      -----------------------------------------------------------      
     |                   =====================                   |     
     |                           x T B                           |     
     |                   =====================                   |     
     |                         S. Grimme                         |     
     |          Mulliken Center for Theoretical Chemistry        |     
     |                    University of Bonn                     |     
      -----------------------------------------------------------      

   * xtb version 6.5.1 (579679a) compiled by 'ehlert@majestix' on 2022-07-11

   xtb is free software: you can redistribute it and/or modify it under
   the terms of the GNU Lesser General Public License as published by
   the Free Software Foundation, either version 3 of the License, or
   (at your option) any later version.
   
   xtb is distributed in the hope that it will be useful,
   but WITHOUT ANY WARRANTY; without even the implied warranty of
   MERCHANTABILITY or FITNESS FOR A PARTICULAR PURPOSE.  See the
   GNU Lesser General Public License for more details.
   
   Cite this work as:
   * C. Bannwarth, E. Caldeweyher, S. Ehlert, A. Hansen, P. Pracht,
     J. Seibert, S. Spicher, S. Grimme, WIREs Comput. Mol. Sci., 2020, 11,
     e01493. DOI: 10.1002/wcms.1493
   
   for GFN2-xTB:
   * C. Bannwarth, S. Ehlert and S. Grimme., J. Chem. Theory Comput., 2019,
     15, 1652-1671. DOI: 10.1021/acs.jctc.8b01176
   for GFN1-xTB:
   * S. Grimme, C. Bannwarth, P. Shushkov, J. Chem. Theory Comput., 2017,
     13, 1989-2009. DOI: 10.1021/acs.jctc.7b00118
   for GFN0-xTB:
   * P. Pracht, E. Caldeweyher, S. Ehlert, S. Grimme, ChemRxiv, 2019, preprint.
     DOI: 10.26434/chemrxiv.8326202.v1
   for GFN-FF:
   * S. Spicher and S. Grimme, Angew. Chem. Int. Ed., 2020, 59, 15665-15673.
     DOI: 10.1002/anie.202004239
   
   for ALPB and GBSA implicit solvation:
   * S. Ehlert, M. Stahn, S. Spicher, S. Grimme, J. Chem. Theory Comput.,
     2021, 17, 4250-4261. DOI: 10.1021/acs.jctc.1c00471
   
   for DFT-D4:
   * E. Caldeweyher, C. Bannwarth and S. Grimme, J. Chem. Phys., 2017,
     147, 034112. DOI: 10.1063/1.4993215
   * E. Caldeweyher, S. Ehlert, A. Hansen, H. Neugebauer, S. Spicher,
     C. Bannwarth and S. Grimme, J. Chem. Phys., 2019, 150, 154122.
     DOI: 10.1063/1.5090222
   * E. Caldeweyher, J.-M. Mewes, S. Ehlert and S. Grimme, Phys. Chem. Chem. Phys.
     2020, 22, 8499-8512. DOI: 10.1039/D0CP00502A
   
   for sTDA-xTB:
   * S. Grimme and C. Bannwarth, J. Chem. Phys., 2016, 145, 054103.
     DOI: 10.1063/1.4959605
   
   in the mass-spec context:
   * V. Asgeirsson, C. Bauer and S. Grimme, Chem. Sci., 2017, 8, 4879.
     DOI: 10.1039/c7sc00601b
   * J. Koopman and S. Grimme, ACS Omega 2019, 4, 12, 15120-15133.
     DOI: 10.1021/acsomega.9b02011
   
   for metadynamics refer to:
   * S. Grimme, J. Chem. Theory Comput., 2019, 155, 2847-2862
     DOI: 10.1021/acs.jctc.9b00143
   
   for SPH calculations refer to:
   * S. Spicher and S. Grimme, J. Chem. Theory Comput., 2021, 17, 1701-1714
     DOI: 10.1021/acs.jctc.0c01306
   
   with help from (in alphabetical order)
   P. Atkinson, C. Bannwarth, F. Bohle, G. Brandenburg, E. Caldeweyher
   M. Checinski, S. Dohm, S. Ehlert, S. Ehrlich, I. Gerasimov, C. Hölzer
   A. Katbashev, J. Koopman, C. Lavigne, S. Lehtola, F. März, M. Müller,
   F. Musil, H. Neugebauer, J. Pisarek, C. Plett, P. Pracht, F. Pultar,
   J. Seibert, P. Shushkov, S. Spicher, M. Stahn, M. Steiner, T. Strunk,
   J. Stückrath, T. Rose, and J. Unsleber
   
 * started run on 2022/11/24 at 09:27:46.526     

           -------------------------------------------------
          |                Calculation Setup                |
           -------------------------------------------------

          program call               : xtb xtbopt.coord --gfn2 --sp --gbsa water
          hostname                   : cn0341
          coordinate file            : xtbopt.coord
          omp threads                :                     2

   ID    Z sym.   atoms
    1    8 o      1, 4, 7, 10, 13, 16, 19, 22, 25, 28, 31, 34, 37, 40, 43,
                  46, 49, 52, 55, 58, 61, 64, 67, 70, 73, 76, 79, 82, 85, 88,
                  91, 94, 97, 100, 103, 106, 109, 112, 115, 118, 121, 124,
                  127, 130, 133, 136, 139, 142, 145, 148, 151, 154, 157, 160,
                  163, 166, 169, 172, 175, 178, 181, 184, 187, 190, 193, 196,
                  199, 202, 205, 208, 211, 214, 217, 220, 223, 226, 229, 232,
                  235, 238, 241, 244, 247, 250, 253, 256, 259, 262, 265, 268,
                  271, 274, 277, 280, 283, 286, 289, 292, 295, 298, 301, 304,
                  307, 310, 313, 316, 319, 322, 325, 328, 331, 334, 337, 340,
                  343, 346, 349, 352, 355, 358, 361, 364, 367, 370, 373, 376,
                  379, 382, 385, 388, 391, 394, 397, 400, 403, 406, 409, 412,
                  415, 418, 421, 424, 427, 430, 433, 436, 439, 442, 445, 448,
                  451, 454, 457, 460, 463, 466, 469, 472, 475, 478, 481, 484,
                  487, 490, 493, 496, 499, 502, 505, 508, 511, 514, 517, 520,
                  523, 526, 529, 532, 535, 538, 541, 544, 547, 550, 553, 556,
                  559, 562, 565, 568, 571, 574, 577, 580, 583, 586, 589, 592,
                  595, 598, 601, 604, 607, 610, 613, 616, 619, 622, 625, 628,
                  631, 634, 637, 640, 643, 646, 649, 652, 655, 658, 661, 664,
                  667, 670, 673, 676, 679, 682, 685, 688, 691, 694, 697, 700,
                  703, 706, 709, 712, 715, 718, 721, 724, 727, 730, 733, 736,
                  739, 742, 745, 748, 751, 754
    2    1 h      2, 3, 5, 6, 8, 9, 11, 12, 14, 15, 17, 18, 20, 21, 23, 24,
                  26, 27, 29, 30, 32, 33, 35, 36, 38, 39, 41, 42, 44, 45, 47,
                  48, 50, 51, 53, 54, 56, 57, 59, 60, 62, 63, 65, 66, 68, 69,
                  71, 72, 74, 75, 77, 78, 80, 81, 83, 84, 86, 87, 89, 90, 92,
                  93, 95, 96, 98, 99, 101, 102, 104, 105, 107, 108, 110, 111,
                  113, 114, 116, 117, 119, 120, 122, 123, 125, 126, 128, 129,
                  131, 132, 134, 135, 137, 138, 140, 141, 143, 144, 146, 147,
                  149, 150, 152, 153, 155, 156, 158, 159, 161, 162, 164, 165,
                  167, 168, 170, 171, 173, 174, 176, 177, 179, 180, 182, 183,
                  185, 186, 188, 189, 191, 192, 194, 195, 197, 198, 200, 201,
                  203, 204, 206, 207, 209, 210, 212, 213, 215, 216, 218, 219,
                  221, 222, 224, 225, 227, 228, 230, 231, 233, 234, 236, 237,
                  239, 240, 242, 243, 245, 246, 248, 249, 251, 252, 254, 255,
                  257, 258, 260, 261, 263, 264, 266, 267, 269, 270, 272, 273,
                  275, 276, 278, 279, 281, 282, 284, 285, 287, 288, 290, 291,
                  293, 294, 296, 297, 299, 300, 302, 303, 305, 306, 308, 309,
                  311, 312, 314, 315, 317, 318, 320, 321, 323, 324, 326, 327,
                  329, 330, 332, 333, 335, 336, 338, 339, 341, 342, 344, 345,
                  347, 348, 350, 351, 353, 354, 356, 357, 359, 360, 362, 363,
                  365, 366, 368, 369, 371, 372, 374, 375, 377, 378, 380, 381,
                  383, 384, 386, 387, 389, 390, 392, 393, 395, 396, 398, 399,
                  401, 402, 404, 405, 407, 408, 410, 411, 413, 414, 416, 417,
                  419, 420, 422, 423, 425, 426, 428, 429, 431, 432, 434, 435,
                  437, 438, 440, 441, 443, 444, 446, 447, 449, 450, 452, 453,
                  455, 456, 458, 459, 461, 462, 464, 465, 467, 468, 470, 471,
                  473, 474, 476, 477, 479, 480, 482, 483, 485, 486, 488, 489,
                  491, 492, 494, 495, 497, 498, 500, 501, 503, 504, 506, 507,
                  509, 510, 512, 513, 515, 516, 518, 519, 521, 522, 524, 525,
                  527, 528, 530, 531, 533, 534, 536, 537, 539, 540, 542, 543,
                  545, 546, 548, 549, 551, 552, 554, 555, 557, 558, 560, 561,
                  563, 564, 566, 567, 569, 570, 572, 573, 575, 576, 578, 579,
                  581, 582, 584, 585, 587, 588, 590, 591, 593, 594, 596, 597,
                  599, 600, 602, 603, 605, 606, 608, 609, 611, 612, 614, 615,
                  617, 618, 620, 621, 623, 624, 626, 627, 629, 630, 632, 633,
                  635, 636, 638, 639, 641, 642, 644, 645, 647, 648, 650, 651,
                  653, 654, 656, 657, 659, 660, 662, 663, 665, 666, 668, 669,
                  671, 672, 674, 675, 677, 678, 680, 681, 683, 684, 686, 687,
                  689, 690, 692, 693, 695, 696, 698, 699, 701, 702, 704, 705,
                  707, 708, 710, 711, 713, 714, 716, 717, 719, 720, 722, 723,
                  725, 726, 728, 729, 731, 732, 734, 735, 737, 738, 740, 741,
                  743, 744, 746, 747, 749, 750, 752, 753, 755, 756

molecular fragmentation (1/2 indicates fragments):
111222222222222222222222222222222222222222222222222222222222222222222222
222222222222222222222222222222222222222222222222222222222222222222222222
222222222222222222222222222222222222222222222222222222222222222222222222
222222222222222222222222222222222222222222222222222222222222222222222222
222222222222222222222222222222222222222222222222222222222222222222222222
222222222222222222222222222222222222222222222222222222222222222222222222
222222222222222222222222222222222222222222222222222222222222222222222222
222222222222222222222222222222222222222222222222222222222222222222222222
222222222222222222222222222222222222222222222222222222222222222222222222
222222222222222222222222222222222222222222222222222222222222222222222222
222222222222222222222222222222222222
# atoms in fragment 1/2:     3   753
 fragment masses (1/2) :       18.02     4521.84
CMA distance (Bohr)    :  15.331
constraining FC (au)   :  0.0500

           -------------------------------------------------
          |                 G F N 2 - x T B                 |
           -------------------------------------------------

        Reference                      10.1021/acs.jctc.8b01176
      * Hamiltonian:
        H0-scaling (s, p, d)           1.850000    2.230000    2.230000
        zeta-weighting                 0.500000
      * Dispersion:
        s8                             2.700000
        a1                             0.520000
        a2                             5.000000
        s9                             5.000000
      * Repulsion:
        kExp                           1.500000    1.000000
        rExp                           1.000000
      * Coulomb:
        alpha                          2.000000
        third order                    shell-resolved
        anisotropic                    true
        a3                             3.000000
        a5                             4.000000
        cn-shift                       1.200000
        cn-exp                         4.000000
        max-rad                        5.000000

      * Solvation model:               GBSA
        Solvent                        water
        Parameter file                 internal GFN2-xTB/GBSA
        Dielectric constant                8.0200E+01
        Reference state                gsolv [1 M gas/solution]
        Free energy shift                  1.8574E-03 Eh       1.1656E+00 kcal/mol
        Temperature                        2.9815E+02 K
        Density                            1.0000E+00 kg/L
        Solvent mass                       1.8000E+01 g/mol
        Interaction kernel             Still
        Born radius scaling (c1)           1.5524E+00
        Born radii integrator          GBOBC
        Born offset                        2.4628E-02 a0       4.6540E-02 AA
        H-bond correction              true
        Ion screening                  false
        Surface tension                    1.0000E-05 Eh       1.5569E+01 dyn/cm
        Grid points                               230 per atom

          ...................................................
          :                      SETUP                      :
          :.................................................:
          :  # basis functions                1512          :
          :  # atomic orbitals                1512          :
          :  # shells                         1008          :
          :  # electrons                      2016          :
          :  max. iterations                   250          :
          :  Hamiltonian                  GFN2-xTB          :
          :  restarted?                      false          :
          :  GBSA solvation                   true          :
          :  PC potential                    false          :
          :  electronic temp.          300.0000000     K    :
          :  accuracy                    1.0000000          :
          :  -> integral cutoff          0.2500000E+02      :
          :  -> integral neglect         0.1000000E-07      :
          :  -> SCF convergence          0.1000000E-05 Eh   :
          :  -> wf. convergence          0.1000000E-03 e    :
          :  Broyden damping             0.4000000          :
          ...................................................

 iter      E             dE          RMSdq      gap      omega  full diag
   1  -1291.2543845 -0.129125E+04  0.408E+00    8.40       0.0  T
   2  -1291.3358796 -0.814950E-01  0.242E+00    8.25       1.0  T
   3  -1291.3709471 -0.350675E-01  0.223E-01    7.81       1.0  T
   4  -1291.3762887 -0.534162E-02  0.478E-02    7.97       1.0  T
   5  -1291.3764429 -0.154188E-03  0.306E-02    7.93       1.0  T
   6  -1291.3764895 -0.465763E-04  0.372E-03    7.92       1.0  T
   7  -1291.3764911 -0.165222E-05  0.888E-04    7.92       4.1  T
   8  -1291.3764912 -0.956793E-07  0.448E-04    7.92       8.1  T
   9  -1291.3764913 -0.342361E-07  0.127E-04    7.92      28.7  T

   *** convergence criteria satisfied after 9 iterations ***

         #    Occupation            Energy/Eh            Energy/eV
      -------------------------------------------------------------
         1        2.0000           -0.6539821             -17.7958
       ...           ...                  ...                  ...
      1002        2.0000           -0.3602080              -9.8018
      1003        2.0000           -0.3597419              -9.7891
      1004        2.0000           -0.3593906              -9.7795
      1005        2.0000           -0.3581901              -9.7468
      1006        2.0000           -0.3549490              -9.6587
      1007        2.0000           -0.3509130              -9.5488
      1008        2.0000           -0.3491026              -9.4996 (HOMO)
      1009                         -0.0581918              -1.5835 (LUMO)
      1010                         -0.0512413              -1.3943
      1011                         -0.0398064              -1.0832
      1012                         -0.0374382              -1.0187
      1013                         -0.0336170              -0.9148
       ...                                ...                  ...
      1512                          0.4771014              12.9826
      -------------------------------------------------------------
                  HL-Gap            0.2909108 Eh            7.9161 eV
             Fermi-level           -0.2036472 Eh           -5.5415 eV

 SCC (total)                   0 d,  0 h,  0 min, 19.896 sec
 SCC setup                      ...        0 min,  0.116 sec (  0.585%)
 Dispersion                     ...        0 min,  0.109 sec (  0.546%)
 classical contributions        ...        0 min,  0.023 sec (  0.117%)
 integral evaluation            ...        0 min,  0.599 sec (  3.011%)
 iterations                     ...        0 min,  6.524 sec ( 32.792%)
 molecular gradient             ...        0 min, 12.459 sec ( 62.624%)
 printout                       ...        0 min,  0.065 sec (  0.325%)

         :::::::::::::::::::::::::::::::::::::::::::::::::::::
         ::                     SUMMARY                     ::
         :::::::::::::::::::::::::::::::::::::::::::::::::::::
         :: total energy           -1283.607663498329 Eh    ::
         :: total w/o Gsasa/hb     -1283.384495698409 Eh    ::
         :: gradient norm              0.097656271733 Eh/a0 ::
         :: HOMO-LUMO gap              7.916086328163 eV    ::
         ::.................................................::
         :: SCC energy             -1291.376491271338 Eh    ::
         :: -> isotropic ES            7.358941422908 Eh    ::
         :: -> anisotropic ES         -1.650479372847 Eh    ::
         :: -> anisotropic XC         -0.119584914994 Eh    ::
         :: -> dispersion             -0.793130939021 Eh    ::
         :: -> Gsolv                  -0.279624661800 Eh    ::
         ::    -> Gelec               -0.056456861879 Eh    ::
         ::    -> Gsasa                0.008563534090 Eh    ::
         ::    -> Ghb                 -0.233588777138 Eh    ::
         ::    -> Gshift               0.001857443127 Eh    ::
         :: repulsion energy           7.613624956779 Eh    ::
         :: add. restraining           0.000000000000 Eh    ::
         :: total charge               0.000000000000 e     ::
         :::::::::::::::::::::::::::::::::::::::::::::::::::::

           -------------------------------------------------
          |                Property Printout                |
           -------------------------------------------------

    * Orbital Energies and Occupations

         #    Occupation            Energy/Eh            Energy/eV
      -------------------------------------------------------------
         1        2.0000           -0.6539821             -17.7958
       ...           ...                  ...                  ...
       996        2.0000           -0.3636230              -9.8947
       997        2.0000           -0.3632312              -9.8840
       998        2.0000           -0.3626858              -9.8692
       999        2.0000           -0.3617075              -9.8426
      1000        2.0000           -0.3612356              -9.8297
      1001        2.0000           -0.3604703              -9.8089
      1002        2.0000           -0.3602080              -9.8018
      1003        2.0000           -0.3597419              -9.7891
      1004        2.0000           -0.3593906              -9.7795
      1005        2.0000           -0.3581901              -9.7468
      1006        2.0000           -0.3549490              -9.6587
      1007        2.0000           -0.3509130              -9.5488
      1008        2.0000           -0.3491026              -9.4996 (HOMO)
      1009                         -0.0581918              -1.5835 (LUMO)
      1010                         -0.0512413              -1.3943
      1011                         -0.0398064              -1.0832
      1012                         -0.0374382              -1.0187
      1013                         -0.0336170              -0.9148
      1014                         -0.0247110              -0.6724
      1015                         -0.0222744              -0.6061
      1016                         -0.0150902              -0.4106
      1017                         -0.0109159              -0.2970
      1018                         -0.0078766              -0.2143
      1019                         -0.0063484              -0.1727
       ...                                ...                  ...
      1512                          0.4771014              12.9826
      -------------------------------------------------------------
                  HL-Gap            0.2909108 Eh            7.9161 eV
             Fermi-level           -0.2036472 Eh           -5.5415 eV

     #   Z          covCN         q      C6AA      α(0)
     1   8 o        1.610    -0.672    26.967     7.009
     2   1 h        0.804     0.347     0.594     1.211
     3   1 h        0.805     0.330     0.638     1.255
     4   8 o        1.607    -0.686    27.349     7.058
     5   1 h        0.804     0.342     0.607     1.224
     6   1 h        0.803     0.329     0.641     1.258
     7   8 o        1.608    -0.682    27.247     7.045
     8   1 h        0.804     0.353     0.581     1.197
     9   1 h        0.803     0.352     0.583     1.200
    10   8 o        1.608    -0.692    27.499     7.077
    11   1 h        0.804     0.345     0.600     1.217
    12   1 h        0.804     0.354     0.579     1.195
    13   8 o        1.607    -0.681    27.213     7.041
    14   1 h        0.805     0.342     0.607     1.224
    15   1 h        0.803     0.355     0.577     1.194
    16   8 o        1.605    -0.712    28.046     7.147
    17   1 h        0.802     0.362     0.561     1.177
    18   1 h        0.803     0.356     0.575     1.191
    19   8 o        1.608    -0.672    26.987     7.011
    20   1 h        0.805     0.342     0.607     1.224
    21   1 h        0.803     0.369     0.546     1.161
    22   8 o        1.604    -0.678    27.140     7.031
    23   1 h        0.799     0.358     0.570     1.187
    24   1 h        0.804     0.349     0.590     1.206
    25   8 o        1.610    -0.669    26.893     6.999
    26   1 h        0.804     0.338     0.616     1.233
    27   1 h        0.806     0.302     0.716     1.329
    28   8 o        1.609    -0.686    27.330     7.056
    29   1 h        0.803     0.366     0.553     1.168
    30   1 h        0.805     0.335     0.624     1.241
    31   8 o        1.608    -0.687    27.362     7.060
    32   1 h        0.804     0.354     0.579     1.195
    33   1 h        0.804     0.348     0.593     1.210
    34   8 o        1.608    -0.684    27.290     7.051
    35   1 h        0.805     0.345     0.599     1.216
    36   1 h        0.804     0.350     0.587     1.204
    37   8 o        1.607    -0.664    26.774     6.984
    38   1 h        0.803     0.346     0.597     1.214
    39   1 h        0.804     0.324     0.654     1.270
    40   8 o        1.608    -0.690    27.445     7.070
    41   1 h        0.804     0.352     0.584     1.201
    42   1 h        0.804     0.337     0.619     1.235
    43   8 o        1.608    -0.682    27.235     7.043
    44   1 h        0.803     0.351     0.585     1.202
    45   1 h        0.805     0.338     0.616     1.233
    46   8 o        1.611    -0.695    27.580     7.088
    47   1 h        0.805     0.354     0.578     1.194
    48   1 h        0.805     0.343     0.606     1.223
    49   8 o        1.605    -0.720    28.253     7.174
    50   1 h        0.803     0.347     0.595     1.212
    51   1 h        0.803     0.359     0.568     1.184
    52   8 o        1.608    -0.678    27.130     7.030
    53   1 h        0.804     0.355     0.577     1.194
    54   1 h        0.804     0.337     0.619     1.236
    55   8 o        1.608    -0.682    27.242     7.044
    56   1 h        0.804     0.344     0.602     1.219
    57   1 h        0.804     0.347     0.595     1.211
    58   8 o        1.607    -0.703    27.788     7.115
    59   1 h        0.804     0.351     0.585     1.201
    60   1 h        0.804     0.345     0.600     1.216
    61   8 o        1.608    -0.660    26.659     6.969
    62   1 h        0.805     0.343     0.605     1.222
    63   1 h        0.803     0.326     0.647     1.264
    64   8 o        1.608    -0.687    27.363     7.060
    65   1 h        0.804     0.336     0.623     1.240
    66   1 h        0.804     0.361     0.564     1.180
    67   8 o        1.609    -0.649    26.396     6.934
    68   1 h        0.804     0.346     0.598     1.215
    69   1 h        0.805     0.344     0.603     1.220
    70   8 o        1.609    -0.679    27.162     7.034
    71   1 h        0.804     0.349     0.590     1.207
    72   1 h        0.804     0.339     0.615     1.232
    73   8 o        1.607    -0.686    27.352     7.059
    74   1 h        0.804     0.344     0.603     1.220
    75   1 h        0.803     0.343     0.606     1.223
    76   8 o        1.607    -0.701    27.732     7.107
    77   1 h        0.803     0.350     0.589     1.205
    78   1 h        0.803     0.351     0.586     1.202
    79   8 o        1.608    -0.686    27.331     7.056
    80   1 h        0.804     0.348     0.592     1.209
    81   1 h        0.804     0.333     0.629     1.246
    82   8 o        1.607    -0.681    27.213     7.041
    83   1 h        0.804     0.326     0.648     1.264
    84   1 h        0.803     0.359     0.568     1.184
    85   8 o        1.607    -0.682    27.248     7.045
    86   1 h        0.803     0.345     0.601     1.218
    87   1 h        0.804     0.344     0.602     1.219
    88   8 o        1.608    -0.685    27.319     7.054
    89   1 h        0.804     0.337     0.619     1.236
    90   1 h        0.804     0.330     0.638     1.254
    91   8 o        1.610    -0.663    26.755     6.981
    92   1 h        0.804     0.342     0.608     1.225
    93   1 h        0.805     0.337     0.620     1.237
    94   8 o        1.609    -0.663    26.740     6.979
    95   1 h        0.804     0.336     0.622     1.238
    96   1 h        0.804     0.328     0.641     1.258
    97   8 o        1.607    -0.693    27.516     7.080
    98   1 h        0.803     0.354     0.578     1.195
    99   1 h        0.804     0.347     0.595     1.212
   100   8 o        1.607    -0.664    26.763     6.982
   101   1 h        0.803     0.343     0.605     1.222
   102   1 h        0.804     0.317     0.672     1.287
   103   8 o        1.608    -0.681    27.208     7.040
   104   1 h        0.804     0.341     0.609     1.226
   105   1 h        0.804     0.344     0.603     1.220
   106   8 o        1.607    -0.674    27.019     7.015
   107   1 h        0.802     0.366     0.552     1.167
   108   1 h        0.805     0.312     0.686     1.301
   109   8 o        1.609    -0.669    26.900     7.000
   110   1 h        0.804     0.314     0.679     1.294
   111   1 h        0.804     0.344     0.602     1.218
   112   8 o        1.609    -0.680    27.196     7.038
   113   1 h        0.805     0.330     0.637     1.254
   114   1 h        0.804     0.327     0.644     1.261
   115   8 o        1.607    -0.693    27.513     7.079
   116   1 h        0.803     0.343     0.606     1.223
   117   1 h        0.804     0.336     0.623     1.240
   118   8 o        1.607    -0.694    27.551     7.084
   119   1 h        0.803     0.354     0.579     1.195
   120   1 h        0.804     0.339     0.614     1.231
   121   8 o        1.609    -0.668    26.885     6.998
   122   1 h        0.805     0.339     0.614     1.230
   123   1 h        0.804     0.340     0.611     1.228
   124   8 o        1.606    -0.697    27.640     7.096
   125   1 h        0.803     0.358     0.569     1.185
   126   1 h        0.803     0.335     0.624     1.241
   127   8 o        1.606    -0.708    27.928     7.132
   128   1 h        0.803     0.345     0.600     1.216
   129   1 h        0.803     0.347     0.595     1.212
   130   8 o        1.609    -0.656    26.576     6.958
   131   1 h        0.803     0.359     0.569     1.185
   132   1 h        0.806     0.302     0.716     1.329
   133   8 o        1.607    -0.694    27.565     7.086
   134   1 h        0.804     0.328     0.641     1.258
   135   1 h        0.803     0.342     0.606     1.223
   136   8 o        1.606    -0.706    27.877     7.126
   137   1 h        0.804     0.340     0.612     1.229
   138   1 h        0.803     0.349     0.591     1.208
   139   8 o        1.606    -0.699    27.678     7.100
   140   1 h        0.804     0.350     0.588     1.205
   141   1 h        0.803     0.363     0.560     1.175
   142   8 o        1.608    -0.665    26.806     6.988
   143   1 h        0.804     0.327     0.645     1.262
   144   1 h        0.805     0.344     0.603     1.220
   145   8 o        1.609    -0.663    26.737     6.979
   146   1 h        0.804     0.337     0.619     1.235
   147   1 h        0.805     0.327     0.646     1.262
   148   8 o        1.605    -0.713    28.053     7.148
   149   1 h        0.802     0.358     0.570     1.186
   150   1 h        0.804     0.343     0.606     1.223
   151   8 o        1.607    -0.685    27.323     7.055
   152   1 h        0.803     0.348     0.594     1.210
   153   1 h        0.803     0.321     0.662     1.278
   154   8 o        1.606    -0.693    27.521     7.080
   155   1 h        0.803     0.354     0.580     1.196
   156   1 h        0.803     0.337     0.620     1.237
   157   8 o        1.607    -0.652    26.470     6.944
   158   1 h        0.806     0.310     0.690     1.305
   159   1 h        0.802     0.345     0.599     1.216
   160   8 o        1.605    -0.712    28.038     7.146
   161   1 h        0.803     0.359     0.568     1.184
   162   1 h        0.803     0.352     0.585     1.201
   163   8 o        1.609    -0.660    26.663     6.969
   164   1 h        0.804     0.346     0.597     1.213
   165   1 h        0.805     0.327     0.646     1.263
   166   8 o        1.608    -0.691    27.462     7.073
   167   1 h        0.803     0.349     0.590     1.206
   168   1 h        0.805     0.344     0.603     1.220
   169   8 o        1.608    -0.689    27.422     7.068
   170   1 h        0.805     0.336     0.622     1.239
   171   1 h        0.803     0.363     0.559     1.175
   172   8 o        1.607    -0.686    27.352     7.058
   173   1 h        0.803     0.341     0.610     1.227
   174   1 h        0.804     0.346     0.597     1.214
   175   8 o        1.608    -0.648    26.361     6.929
   176   1 h        0.803     0.335     0.625     1.242
   177   1 h        0.805     0.330     0.638     1.255
   178   8 o        1.607    -0.685    27.307     7.053
   179   1 h        0.804     0.346     0.598     1.215
   180   1 h        0.803     0.338     0.618     1.235
   181   8 o        1.606    -0.668    26.876     6.997
   182   1 h        0.806     0.316     0.676     1.291
   183   1 h        0.801     0.351     0.586     1.203
   184   8 o        1.608    -0.689    27.426     7.068
   185   1 h        0.803     0.352     0.585     1.201
   186   1 h        0.805     0.312     0.687     1.302
   187   8 o        1.608    -0.677    27.109     7.027
   188   1 h        0.804     0.328     0.643     1.260
   189   1 h        0.804     0.330     0.637     1.254
   190   8 o        1.606    -0.676    27.089     7.024
   191   1 h        0.804     0.327     0.645     1.262
   192   1 h        0.802     0.343     0.606     1.223
   193   8 o        1.607    -0.673    27.002     7.013
   194   1 h        0.803     0.343     0.605     1.222
   195   1 h        0.803     0.333     0.629     1.246
   196   8 o        1.607    -0.686    27.347     7.058
   197   1 h        0.803     0.360     0.565     1.181
   198   1 h        0.805     0.346     0.597     1.214
   199   8 o        1.611    -0.675    27.040     7.018
   200   1 h        0.804     0.358     0.571     1.187
   201   1 h        0.805     0.343     0.604     1.221
   202   8 o        1.606    -0.690    27.443     7.070
   203   1 h        0.803     0.336     0.623     1.239
   204   1 h        0.804     0.344     0.602     1.219
   205   8 o        1.606    -0.690    27.438     7.070
   206   1 h        0.803     0.341     0.610     1.227
   207   1 h        0.803     0.358     0.570     1.187
   208   8 o        1.606    -0.714    28.090     7.153
   209   1 h        0.803     0.323     0.655     1.271
   210   1 h        0.803     0.354     0.579     1.196
   211   8 o        1.608    -0.667    26.844     6.993
   212   1 h        0.805     0.322     0.657     1.273
   213   1 h        0.803     0.337     0.620     1.237
   214   8 o        1.606    -0.687    27.375     7.061
   215   1 h        0.803     0.334     0.627     1.244
   216   1 h        0.803     0.351     0.587     1.203
   217   8 o        1.605    -0.706    27.860     7.124
   218   1 h        0.803     0.360     0.565     1.181
   219   1 h        0.802     0.350     0.589     1.206
   220   8 o        1.607    -0.676    27.081     7.023
   221   1 h        0.803     0.356     0.576     1.192
   222   1 h        0.804     0.341     0.609     1.226
   223   8 o        1.607    -0.687    27.372     7.061
   224   1 h        0.803     0.349     0.592     1.208
   225   1 h        0.804     0.350     0.588     1.205
   226   8 o        1.607    -0.684    27.287     7.050
   227   1 h        0.804     0.324     0.652     1.268
   228   1 h        0.803     0.355     0.578     1.194
   229   8 o        1.606    -0.686    27.347     7.058
   230   1 h        0.803     0.365     0.555     1.171
   231   1 h        0.803     0.333     0.629     1.246
   232   8 o        1.607    -0.693    27.518     7.080
   233   1 h        0.803     0.358     0.569     1.185
   234   1 h        0.804     0.331     0.634     1.251
   235   8 o        1.608    -0.671    26.943     7.006
   236   1 h        0.804     0.340     0.611     1.228
   237   1 h        0.804     0.322     0.658     1.274
   238   8 o        1.610    -0.653    26.478     6.945
   239   1 h        0.805     0.322     0.659     1.275
   240   1 h        0.805     0.344     0.601     1.218
   241   8 o        1.608    -0.705    27.835     7.121
   242   1 h        0.804     0.334     0.628     1.245
   243   1 h        0.804     0.359     0.567     1.183
   244   8 o        1.606    -0.660    26.664     6.969
   245   1 h        0.801     0.350     0.588     1.204
   246   1 h        0.806     0.313     0.682     1.297
   247   8 o        1.609    -0.643    26.228     6.912
   248   1 h        0.805     0.340     0.613     1.229
   249   1 h        0.804     0.329     0.641     1.257
   250   8 o        1.608    -0.682    27.247     7.045
   251   1 h        0.804     0.354     0.579     1.195
   252   1 h        0.804     0.333     0.630     1.247
   253   8 o        1.613    -0.669    26.902     7.000
   254   1 h        0.804     0.329     0.639     1.256
   255   1 h        0.804     0.355     0.576     1.192
   256   8 o        1.607    -0.687    27.367     7.060
   257   1 h        0.803     0.347     0.595     1.212
   258   1 h        0.804     0.329     0.641     1.258
   259   8 o        1.608    -0.696    27.610     7.092
   260   1 h        0.804     0.349     0.590     1.206
   261   1 h        0.804     0.330     0.638     1.255
   262   8 o        1.609    -0.673    27.000     7.013
   263   1 h        0.805     0.322     0.658     1.274
   264   1 h        0.804     0.357     0.573     1.189
   265   8 o        1.606    -0.670    26.934     7.004
   266   1 h        0.803     0.332     0.632     1.249
   267   1 h        0.803     0.330     0.638     1.254
   268   8 o        1.610    -0.660    26.670     6.970
   269   1 h        0.804     0.342     0.607     1.224
   270   1 h        0.806     0.314     0.681     1.296
   271   8 o        1.608    -0.684    27.295     7.051
   272   1 h        0.805     0.334     0.626     1.243
   273   1 h        0.804     0.353     0.582     1.198
   274   8 o        1.606    -0.671    26.940     7.005
   275   1 h        0.803     0.326     0.649     1.266
   276   1 h        0.803     0.338     0.617     1.234
   277   8 o        1.608    -0.674    27.025     7.016
   278   1 h        0.804     0.339     0.616     1.232
   279   1 h        0.803     0.357     0.573     1.189
   280   8 o        1.607    -0.675    27.065     7.021
   281   1 h        0.804     0.349     0.591     1.208
   282   1 h        0.803     0.344     0.603     1.220
   283   8 o        1.606    -0.675    27.058     7.020
   284   1 h        0.803     0.332     0.633     1.250
   285   1 h        0.803     0.357     0.573     1.189
   286   8 o        1.607    -0.694    27.541     7.083
   287   1 h        0.803     0.351     0.586     1.202
   288   1 h        0.803     0.343     0.605     1.222
   289   8 o        1.609    -0.680    27.193     7.038
   290   1 h        0.804     0.343     0.605     1.221
   291   1 h        0.805     0.332     0.633     1.250
   292   8 o        1.609    -0.685    27.302     7.052
   293   1 h        0.805     0.332     0.632     1.249
   294   1 h        0.804     0.352     0.584     1.201
   295   8 o        1.606    -0.703    27.800     7.116
   296   1 h        0.803     0.355     0.576     1.193
   297   1 h        0.804     0.355     0.578     1.194
   298   8 o        1.608    -0.692    27.498     7.077
   299   1 h        0.804     0.339     0.614     1.231
   300   1 h        0.804     0.347     0.595     1.212
   301   8 o        1.608    -0.681    27.219     7.041
   302   1 h        0.804     0.335     0.625     1.242
   303   1 h        0.804     0.360     0.565     1.181
   304   8 o        1.611    -0.687    27.354     7.059
   305   1 h        0.804     0.333     0.630     1.247
   306   1 h        0.803     0.359     0.567     1.183
   307   8 o        1.606    -0.697    27.628     7.094
   308   1 h        0.803     0.367     0.550     1.165
   309   1 h        0.803     0.343     0.604     1.221
   310   8 o        1.607    -0.687    27.365     7.060
   311   1 h        0.803     0.334     0.626     1.243
   312   1 h        0.804     0.329     0.641     1.258
   313   8 o        1.608    -0.679    27.153     7.033
   314   1 h        0.803     0.345     0.601     1.218
   315   1 h        0.805     0.328     0.643     1.259
   316   8 o        1.608    -0.687    27.374     7.061
   317   1 h        0.804     0.336     0.621     1.238
   318   1 h        0.804     0.335     0.624     1.241
   319   8 o        1.608    -0.672    26.980     7.010
   320   1 h        0.805     0.352     0.584     1.201
   321   1 h        0.803     0.353     0.582     1.198
   322   8 o        1.608    -0.663    26.741     6.979
   323   1 h        0.804     0.324     0.653     1.270
   324   1 h        0.804     0.335     0.625     1.242
   325   8 o        1.605    -0.718    28.189     7.166
   326   1 h        0.803     0.360     0.566     1.182
   327   1 h        0.802     0.345     0.601     1.218
   328   8 o        1.609    -0.667    26.852     6.994
   329   1 h        0.805     0.334     0.626     1.243
   330   1 h        0.804     0.345     0.600     1.216
   331   8 o        1.608    -0.685    27.308     7.053
   332   1 h        0.805     0.352     0.585     1.201
   333   1 h        0.803     0.345     0.600     1.217
   334   8 o        1.607    -0.679    27.171     7.035
   335   1 h        0.802     0.349     0.591     1.207
   336   1 h        0.805     0.322     0.660     1.276
   337   8 o        1.606    -0.703    27.786     7.114
   338   1 h        0.802     0.336     0.622     1.239
   339   1 h        0.803     0.356     0.574     1.190
   340   8 o        1.604    -0.709    27.960     7.136
   341   1 h        0.802     0.364     0.557     1.172
   342   1 h        0.802     0.329     0.640     1.257
   343   8 o        1.608    -0.677    27.118     7.028
   344   1 h        0.803     0.355     0.577     1.193
   345   1 h        0.804     0.330     0.637     1.254
   346   8 o        1.609    -0.680    27.174     7.036
   347   1 h        0.804     0.353     0.582     1.198
   348   1 h        0.805     0.322     0.658     1.274
   349   8 o        1.607    -0.698    27.652     7.097
   350   1 h        0.803     0.356     0.574     1.190
   351   1 h        0.804     0.340     0.613     1.229
   352   8 o        1.607    -0.682    27.233     7.043
   353   1 h        0.804     0.324     0.654     1.270
   354   1 h        0.803     0.339     0.615     1.232
   355   8 o        1.608    -0.675    27.044     7.019
   356   1 h        0.803     0.370     0.545     1.160
   357   1 h        0.805     0.322     0.659     1.275
   358   8 o        1.606    -0.705    27.837     7.121
   359   1 h        0.803     0.354     0.580     1.196
   360   1 h        0.804     0.349     0.591     1.207
   361   8 o        1.609    -0.662    26.715     6.976
   362   1 h        0.804     0.334     0.628     1.245
   363   1 h        0.804     0.342     0.608     1.225
   364   8 o        1.603    -0.698    27.655     7.097
   365   1 h        0.805     0.358     0.569     1.185
   366   1 h        0.804     0.331     0.636     1.253
   367   8 o        1.609    -0.662    26.726     6.977
   368   1 h        0.805     0.336     0.622     1.239
   369   1 h        0.804     0.336     0.622     1.239
   370   8 o        1.607    -0.694    27.551     7.084
   371   1 h        0.802     0.368     0.548     1.163
   372   1 h        0.805     0.326     0.648     1.264
   373   8 o        1.607    -0.684    27.278     7.049
   374   1 h        0.804     0.330     0.638     1.254
   375   1 h        0.803     0.351     0.587     1.204
   376   8 o        1.608    -0.667    26.836     6.992
   377   1 h        0.804     0.355     0.576     1.192
   378   1 h        0.804     0.346     0.598     1.215
   379   8 o        1.608    -0.687    27.363     7.060
   380   1 h        0.803     0.365     0.555     1.170
   381   1 h        0.804     0.338     0.618     1.235
   382   8 o        1.609    -0.667    26.842     6.992
   383   1 h        0.804     0.342     0.608     1.225
   384   1 h        0.805     0.328     0.643     1.259
   385   8 o        1.610    -0.695    27.575     7.087
   386   1 h        0.804     0.362     0.561     1.177
   387   1 h        0.804     0.332     0.633     1.249
   388   8 o        1.608    -0.695    27.587     7.089
   389   1 h        0.803     0.357     0.571     1.187
   390   1 h        0.804     0.334     0.627     1.244
   391   8 o        1.609    -0.671    26.959     7.008
   392   1 h        0.804     0.337     0.621     1.238
   393   1 h        0.804     0.335     0.624     1.241
   394   8 o        1.607    -0.683    27.269     7.048
   395   1 h        0.803     0.348     0.592     1.209
   396   1 h        0.804     0.324     0.653     1.270
   397   8 o        1.608    -0.674    27.040     7.018
   398   1 h        0.805     0.322     0.657     1.273
   399   1 h        0.803     0.343     0.605     1.222
   400   8 o        1.610    -0.666    26.824     6.990
   401   1 h        0.803     0.351     0.587     1.203
   402   1 h        0.805     0.317     0.671     1.286
   403   8 o        1.606    -0.696    27.609     7.092
   404   1 h        0.803     0.364     0.557     1.172
   405   1 h        0.803     0.332     0.632     1.248
   406   8 o        1.608    -0.691    27.462     7.073
   407   1 h        0.804     0.345     0.599     1.216
   408   1 h        0.804     0.342     0.606     1.223
   409   8 o        1.609    -0.668    26.871     6.996
   410   1 h        0.805     0.321     0.662     1.278
   411   1 h        0.803     0.338     0.617     1.234
   412   8 o        1.605    -0.685    27.317     7.054
   413   1 h        0.803     0.325     0.651     1.268
   414   1 h        0.803     0.363     0.560     1.175
   415   8 o        1.606    -0.696    27.594     7.090
   416   1 h        0.804     0.335     0.625     1.242
   417   1 h        0.802     0.367     0.551     1.166
   418   8 o        1.609    -0.667    26.839     6.992
   419   1 h        0.805     0.333     0.629     1.246
   420   1 h        0.804     0.340     0.613     1.230
   421   8 o        1.607    -0.686    27.341     7.057
   422   1 h        0.804     0.344     0.604     1.220
   423   1 h        0.803     0.332     0.631     1.248
   424   8 o        1.609    -0.654    26.527     6.951
   425   1 h        0.806     0.308     0.698     1.312
   426   1 h        0.803     0.355     0.577     1.194
   427   8 o        1.609    -0.630    25.920     6.871
   428   1 h        0.805     0.336     0.621     1.238
   429   1 h        0.805     0.331     0.634     1.251
   430   8 o        1.608    -0.662    26.712     6.975
   431   1 h        0.804     0.329     0.640     1.256
   432   1 h        0.804     0.337     0.620     1.237
   433   8 o        1.606    -0.703    27.785     7.114
   434   1 h        0.804     0.356     0.574     1.190
   435   1 h        0.803     0.342     0.608     1.225
   436   8 o        1.607    -0.680    27.196     7.038
   437   1 h        0.803     0.325     0.650     1.267
   438   1 h        0.803     0.350     0.589     1.206
   439   8 o        1.608    -0.671    26.949     7.006
   440   1 h        0.804     0.352     0.583     1.199
   441   1 h        0.804     0.326     0.648     1.264
   442   8 o        1.609    -0.669    26.903     7.000
   443   1 h        0.804     0.340     0.612     1.229
   444   1 h        0.804     0.335     0.625     1.242
   445   8 o        1.608    -0.659    26.635     6.965
   446   1 h        0.803     0.344     0.604     1.221
   447   1 h        0.806     0.322     0.659     1.275
   448   8 o        1.607    -0.695    27.578     7.088
   449   1 h        0.803     0.355     0.577     1.193
   450   1 h        0.804     0.340     0.612     1.229
   451   8 o        1.608    -0.677    27.113     7.028
   452   1 h        0.806     0.312     0.687     1.302
   453   1 h        0.802     0.367     0.550     1.165
   454   8 o        1.609    -0.659    26.637     6.966
   455   1 h        0.805     0.324     0.654     1.270
   456   1 h        0.804     0.331     0.634     1.251
   457   8 o        1.608    -0.689    27.426     7.068
   458   1 h        0.803     0.360     0.565     1.181
   459   1 h        0.805     0.326     0.647     1.264
   460   8 o        1.610    -0.664    26.778     6.984
   461   1 h        0.805     0.328     0.641     1.258
   462   1 h        0.805     0.335     0.625     1.242
   463   8 o        1.606    -0.685    27.320     7.054
   464   1 h        0.804     0.336     0.622     1.239
   465   1 h        0.802     0.339     0.614     1.231
   466   8 o        1.609    -0.659    26.634     6.965
   467   1 h        0.805     0.325     0.650     1.266
   468   1 h        0.803     0.343     0.606     1.223
   469   8 o        1.608    -0.660    26.660     6.969
   470   1 h        0.804     0.337     0.619     1.236
   471   1 h        0.805     0.329     0.639     1.256
   472   8 o        1.609    -0.663    26.758     6.981
   473   1 h        0.803     0.339     0.614     1.231
   474   1 h        0.805     0.334     0.626     1.243
   475   8 o        1.607    -0.688    27.392     7.064
   476   1 h        0.802     0.353     0.582     1.198
   477   1 h        0.805     0.321     0.662     1.278
   478   8 o        1.605    -0.705    27.834     7.120
   479   1 h        0.804     0.335     0.624     1.241
   480   1 h        0.802     0.373     0.539     1.153
   481   8 o        1.609    -0.704    27.829     7.120
   482   1 h        0.804     0.337     0.619     1.236
   483   1 h        0.804     0.341     0.610     1.227
   484   8 o        1.607    -0.667    26.851     6.994
   485   1 h        0.805     0.316     0.675     1.291
   486   1 h        0.803     0.341     0.609     1.226
   487   8 o        1.608    -0.683    27.273     7.048
   488   1 h        0.803     0.335     0.626     1.242
   489   1 h        0.805     0.320     0.664     1.280
   490   8 o        1.606    -0.704    27.817     7.118
   491   1 h        0.803     0.364     0.557     1.172
   492   1 h        0.803     0.335     0.625     1.242
   493   8 o        1.607    -0.663    26.755     6.981
   494   1 h        0.804     0.337     0.620     1.237
   495   1 h        0.803     0.348     0.593     1.210
   496   8 o        1.606    -0.699    27.684     7.101
   497   1 h        0.803     0.344     0.602     1.219
   498   1 h        0.803     0.358     0.571     1.187
   499   8 o        1.608    -0.687    27.366     7.060
   500   1 h        0.803     0.345     0.599     1.216
   501   1 h        0.805     0.330     0.638     1.254
   502   8 o        1.608    -0.684    27.297     7.052
   503   1 h        0.805     0.317     0.672     1.287
   504   1 h        0.803     0.358     0.569     1.185
   505   8 o        1.606    -0.707    27.893     7.128
   506   1 h        0.803     0.352     0.583     1.199
   507   1 h        0.803     0.355     0.576     1.192
   508   8 o        1.608    -0.667    26.840     6.992
   509   1 h        0.803     0.361     0.563     1.179
   510   1 h        0.806     0.309     0.694     1.308
   511   8 o        1.608    -0.663    26.752     6.981
   512   1 h        0.805     0.345     0.599     1.216
   513   1 h        0.804     0.337     0.620     1.237
   514   8 o        1.608    -0.671    26.941     7.005
   515   1 h        0.802     0.346     0.598     1.215
   516   1 h        0.805     0.318     0.668     1.284
   517   8 o        1.607    -0.700    27.710     7.105
   518   1 h        0.805     0.346     0.597     1.214
   519   1 h        0.802     0.365     0.554     1.169
   520   8 o        1.606    -0.708    27.938     7.134
   521   1 h        0.803     0.335     0.624     1.241
   522   1 h        0.803     0.333     0.629     1.246
   523   8 o        1.608    -0.671    26.947     7.006
   524   1 h        0.805     0.319     0.666     1.282
   525   1 h        0.803     0.340     0.613     1.230
   526   8 o        1.608    -0.681    27.218     7.041
   527   1 h        0.804     0.350     0.588     1.205
   528   1 h        0.804     0.337     0.619     1.235
   529   8 o        1.608    -0.678    27.143     7.032
   530   1 h        0.804     0.347     0.596     1.212
   531   1 h        0.804     0.329     0.639     1.256
   532   8 o        1.606    -0.700    27.724     7.106
   533   1 h        0.803     0.360     0.565     1.180
   534   1 h        0.804     0.337     0.619     1.235
   535   8 o        1.606    -0.691    27.478     7.075
   536   1 h        0.803     0.366     0.553     1.168
   537   1 h        0.803     0.331     0.634     1.251
   538   8 o        1.607    -0.682    27.249     7.045
   539   1 h        0.805     0.346     0.597     1.213
   540   1 h        0.802     0.338     0.616     1.233
   541   8 o        1.603    -0.680    27.183     7.036
   542   1 h        0.801     0.355     0.576     1.193
   543   1 h        0.806     0.306     0.704     1.318
   544   8 o        1.607    -0.663    26.746     6.980
   545   1 h        0.804     0.347     0.596     1.212
   546   1 h        0.803     0.327     0.645     1.262
   547   8 o        1.606    -0.707    27.894     7.128
   548   1 h        0.804     0.327     0.646     1.262
   549   1 h        0.802     0.367     0.551     1.166
   550   8 o        1.609    -0.655    26.549     6.954
   551   1 h        0.805     0.339     0.615     1.232
   552   1 h        0.804     0.339     0.616     1.232
   553   8 o        1.609    -0.652    26.470     6.944
   554   1 h        0.804     0.344     0.603     1.220
   555   1 h        0.806     0.308     0.698     1.312
   556   8 o        1.607    -0.688    27.406     7.065
   557   1 h        0.805     0.320     0.665     1.281
   558   1 h        0.803     0.355     0.577     1.194
   559   8 o        1.608    -0.669    26.902     7.000
   560   1 h        0.804     0.341     0.610     1.226
   561   1 h        0.804     0.337     0.620     1.237
   562   8 o        1.605    -0.684    27.301     7.052
   563   1 h        0.802     0.328     0.643     1.259
   564   1 h        0.803     0.337     0.621     1.238
   565   8 o        1.606    -0.685    27.303     7.052
   566   1 h        0.804     0.323     0.655     1.271
   567   1 h        0.803     0.349     0.590     1.207
   568   8 o        1.607    -0.672    26.990     7.012
   569   1 h        0.803     0.333     0.631     1.248
   570   1 h        0.804     0.351     0.586     1.203
   571   8 o        1.605    -0.699    27.678     7.100
   572   1 h        0.802     0.374     0.536     1.151
   573   1 h        0.805     0.323     0.657     1.273
   574   8 o        1.607    -0.705    27.842     7.122
   575   1 h        0.803     0.349     0.591     1.208
   576   1 h        0.803     0.352     0.584     1.200
   577   8 o        1.607    -0.662    26.724     6.977
   578   1 h        0.803     0.338     0.617     1.234
   579   1 h        0.805     0.324     0.652     1.269
   580   8 o        1.608    -0.674    27.028     7.017
   581   1 h        0.803     0.366     0.552     1.168
   582   1 h        0.805     0.307     0.699     1.313
   583   8 o        1.608    -0.683    27.266     7.047
   584   1 h        0.805     0.336     0.621     1.238
   585   1 h        0.803     0.361     0.563     1.179
   586   8 o        1.609    -0.675    27.044     7.019
   587   1 h        0.804     0.337     0.619     1.236
   588   1 h        0.805     0.338     0.618     1.235
   589   8 o        1.608    -0.686    27.349     7.058
   590   1 h        0.805     0.319     0.665     1.281
   591   1 h        0.803     0.356     0.575     1.191
   592   8 o        1.607    -0.693    27.535     7.082
   593   1 h        0.803     0.328     0.642     1.259
   594   1 h        0.803     0.342     0.609     1.226
   595   8 o        1.606    -0.718    28.209     7.168
   596   1 h        0.804     0.329     0.641     1.258
   597   1 h        0.803     0.353     0.581     1.197
   598   8 o        1.609    -0.666    26.833     6.991
   599   1 h        0.805     0.332     0.633     1.249
   600   1 h        0.804     0.341     0.609     1.225
   601   8 o        1.607    -0.696    27.615     7.092
   602   1 h        0.803     0.368     0.549     1.164
   603   1 h        0.804     0.322     0.657     1.274
   604   8 o        1.606    -0.698    27.665     7.099
   605   1 h        0.804     0.325     0.650     1.266
   606   1 h        0.802     0.363     0.558     1.174
   607   8 o        1.610    -0.646    26.312     6.923
   608   1 h        0.805     0.331     0.636     1.252
   609   1 h        0.805     0.323     0.657     1.273
   610   8 o        1.605    -0.694    27.559     7.085
   611   1 h        0.802     0.374     0.535     1.149
   612   1 h        0.805     0.320     0.664     1.280
   613   8 o        1.609    -0.677    27.107     7.027
   614   1 h        0.805     0.320     0.665     1.281
   615   1 h        0.804     0.352     0.584     1.201
   616   8 o        1.609    -0.671    26.949     7.006
   617   1 h        0.804     0.346     0.597     1.213
   618   1 h        0.805     0.336     0.623     1.240
   619   8 o        1.608    -0.687    27.378     7.062
   620   1 h        0.804     0.339     0.613     1.230
   621   1 h        0.804     0.360     0.565     1.181
   622   8 o        1.607    -0.684    27.285     7.050
   623   1 h        0.802     0.361     0.564     1.180
   624   1 h        0.805     0.311     0.689     1.303
   625   8 o        1.603    -0.681    27.210     7.040
   626   1 h        0.802     0.336     0.623     1.240
   627   1 h        0.802     0.336     0.621     1.238
   628   8 o        1.608    -0.692    27.508     7.079
   629   1 h        0.804     0.363     0.558     1.174
   630   1 h        0.804     0.329     0.641     1.258
   631   8 o        1.606    -0.702    27.772     7.112
   632   1 h        0.803     0.355     0.576     1.193
   633   1 h        0.803     0.347     0.595     1.211
   634   8 o        1.608    -0.677    27.098     7.026
   635   1 h        0.804     0.338     0.618     1.235
   636   1 h        0.805     0.340     0.613     1.230
   637   8 o        1.609    -0.678    27.120     7.029
   638   1 h        0.805     0.327     0.645     1.262
   639   1 h        0.804     0.352     0.584     1.200
   640   8 o        1.609    -0.663    26.749     6.980
   641   1 h        0.803     0.335     0.626     1.243
   642   1 h        0.805     0.327     0.646     1.263
   643   8 o        1.607    -0.670    26.917     7.002
   644   1 h        0.803     0.329     0.639     1.256
   645   1 h        0.804     0.337     0.619     1.236
   646   8 o        1.610    -0.670    26.914     7.002
   647   1 h        0.805     0.343     0.604     1.221
   648   1 h        0.805     0.331     0.635     1.251
   649   8 o        1.605    -0.683    27.253     7.046
   650   1 h        0.802     0.340     0.612     1.229
   651   1 h        0.804     0.339     0.616     1.233
   652   8 o        1.606    -0.679    27.160     7.034
   653   1 h        0.804     0.334     0.627     1.244
   654   1 h        0.802     0.336     0.622     1.239
   655   8 o        1.606    -0.692    27.508     7.079
   656   1 h        0.804     0.325     0.651     1.267
   657   1 h        0.802     0.346     0.598     1.215
   658   8 o        1.606    -0.719    28.226     7.170
   659   1 h        0.804     0.358     0.571     1.187
   660   1 h        0.803     0.348     0.594     1.211
   661   8 o        1.609    -0.646    26.321     6.924
   662   1 h        0.805     0.317     0.672     1.288
   663   1 h        0.804     0.343     0.605     1.222
   664   8 o        1.606    -0.708    27.925     7.132
   665   1 h        0.802     0.349     0.590     1.207
   666   1 h        0.804     0.338     0.618     1.235
   667   8 o        1.609    -0.650    26.408     6.936
   668   1 h        0.804     0.336     0.623     1.240
   669   1 h        0.806     0.314     0.680     1.295
   670   8 o        1.608    -0.683    27.258     7.046
   671   1 h        0.804     0.342     0.607     1.224
   672   1 h        0.804     0.311     0.688     1.303
   673   8 o        1.609    -0.690    27.459     7.072
   674   1 h        0.804     0.342     0.606     1.223
   675   1 h        0.804     0.341     0.610     1.227
   676   8 o        1.609    -0.667    26.860     6.995
   677   1 h        0.805     0.323     0.656     1.272
   678   1 h        0.804     0.326     0.648     1.265
   679   8 o        1.607    -0.694    27.560     7.085
   680   1 h        0.804     0.354     0.578     1.195
   681   1 h        0.803     0.349     0.591     1.208
   682   8 o        1.606    -0.677    27.118     7.028
   683   1 h        0.803     0.329     0.640     1.257
   684   1 h        0.803     0.355     0.576     1.192
   685   8 o        1.608    -0.705    27.848     7.122
   686   1 h        0.804     0.352     0.584     1.201
   687   1 h        0.803     0.363     0.560     1.176
   688   8 o        1.608    -0.675    27.047     7.019
   689   1 h        0.804     0.333     0.631     1.247
   690   1 h        0.804     0.354     0.580     1.196
   691   8 o        1.610    -0.647    26.332     6.926
   692   1 h        0.805     0.322     0.658     1.274
   693   1 h        0.804     0.320     0.664     1.280
   694   8 o        1.607    -0.692    27.495     7.077
   695   1 h        0.804     0.339     0.614     1.231
   696   1 h        0.803     0.345     0.601     1.217
   697   8 o        1.608    -0.673    27.010     7.014
   698   1 h        0.803     0.369     0.546     1.161
   699   1 h        0.805     0.323     0.655     1.271
   700   8 o        1.606    -0.696    27.593     7.090
   701   1 h        0.803     0.356     0.574     1.190
   702   1 h        0.804     0.323     0.656     1.272
   703   8 o        1.606    -0.692    27.496     7.077
   704   1 h        0.802     0.338     0.619     1.236
   705   1 h        0.804     0.333     0.630     1.247
   706   8 o        1.607    -0.676    27.089     7.024
   707   1 h        0.802     0.360     0.565     1.181
   708   1 h        0.806     0.311     0.690     1.305
   709   8 o        1.608    -0.686    27.347     7.058
   710   1 h        0.804     0.343     0.605     1.222
   711   1 h        0.804     0.340     0.612     1.229
   712   8 o        1.608    -0.649    26.397     6.934
   713   1 h        0.805     0.326     0.647     1.264
   714   1 h        0.803     0.341     0.609     1.226
   715   8 o        1.609    -0.695    27.583     7.088
   716   1 h        0.804     0.347     0.595     1.211
   717   1 h        0.805     0.335     0.624     1.241
   718   8 o        1.604    -0.716    28.129     7.158
   719   1 h        0.802     0.372     0.539     1.153
   720   1 h        0.804     0.342     0.608     1.225
   721   8 o        1.608    -0.686    27.332     7.056
   722   1 h        0.805     0.331     0.635     1.252
   723   1 h        0.804     0.357     0.573     1.189
   724   8 o        1.607    -0.685    27.310     7.053
   725   1 h        0.804     0.332     0.631     1.248
   726   1 h        0.803     0.333     0.630     1.247
   727   8 o        1.607    -0.658    26.611     6.962
   728   1 h        0.805     0.329     0.639     1.255
   729   1 h        0.802     0.334     0.628     1.245
   730   8 o        1.608    -0.679    27.165     7.034
   731   1 h        0.802     0.350     0.588     1.204
   732   1 h        0.805     0.320     0.664     1.280
   733   8 o        1.608    -0.685    27.312     7.053
   734   1 h        0.804     0.334     0.628     1.244
   735   1 h        0.804     0.340     0.612     1.229
   736   8 o        1.609    -0.669    26.893     6.999
   737   1 h        0.804     0.330     0.638     1.255
   738   1 h        0.805     0.324     0.653     1.269
   739   8 o        1.608    -0.675    27.059     7.021
   740   1 h        0.805     0.321     0.661     1.277
   741   1 h        0.803     0.361     0.562     1.178
   742   8 o        1.606    -0.694    27.555     7.085
   743   1 h        0.802     0.361     0.563     1.178
   744   1 h        0.805     0.323     0.657     1.273
   745   8 o        1.609    -0.659    26.649     6.967
   746   1 h        0.804     0.335     0.624     1.241
   747   1 h        0.805     0.330     0.637     1.254
   748   8 o        1.610    -0.671    26.959     7.008
   749   1 h        0.804     0.332     0.632     1.249
   750   1 h        0.805     0.337     0.620     1.236
   751   8 o        1.610    -0.642    26.213     6.910
   752   1 h        0.804     0.340     0.613     1.230
   753   1 h        0.805     0.323     0.655     1.271
   754   8 o        1.610    -0.650    26.417     6.937
   755   1 h        0.805     0.327     0.645     1.261
   756   1 h        0.804     0.336     0.621     1.238

 Mol. C6AA /au·bohr⁶  :    2900690.857100
 Mol. C8AA /au·bohr⁸  :   52640877.395342
 Mol. α(0) /au        :       2393.455461


Wiberg/Mayer (AO) data.
largest (>0.10) Wiberg bond orders for each atom

 ---------------------------------------------------------------------------
     #   Z sym  total        # sym  WBO       # sym  WBO       # sym  WBO
 ---------------------------------------------------------------------------
     1   8 o    1.813 --     3 h    0.866     2 h    0.842
     2   1 h    0.879 --     1 o    0.842
     3   1 h    0.891 --     1 o    0.866
     4   8 o    1.849 --     6 h    0.820     5 h    0.811
     5   1 h    0.883 --     4 o    0.811
     6   1 h    0.892 --     4 o    0.820
     7   8 o    1.867 --     8 h    0.836     9 h    0.801
     8   1 h    0.875 --     7 o    0.836
     9   1 h    0.876 --     7 o    0.801
    10   8 o    1.858 --    12 h    0.817    11 h    0.808
    11   1 h    0.881 --    10 o    0.808
    12   1 h    0.875 --    10 o    0.817
    13   8 o    1.871 --    14 h    0.847    15 h    0.788
    14   1 h    0.883 --    13 o    0.847
    15   1 h    0.874 --    13 o    0.788
    16   8 o    1.861 --    18 h    0.805    17 h    0.778
    17   1 h    0.869 --    16 o    0.778
    18   1 h    0.873 --    16 o    0.805
    19   8 o    1.897 --    20 h    0.848    21 h    0.787
    20   1 h    0.883 --    19 o    0.848
    21   1 h    0.864 --    19 o    0.787
    22   8 o    1.884 --    24 h    0.818    23 h    0.811
    23   1 h    0.871 --    22 o    0.811
    24   1 h    0.878 --    22 o    0.818
    25   8 o    1.797 --    27 h    0.885    26 h    0.824
    26   1 h    0.885 --    25 o    0.824
    27   1 h    0.909 --    25 o    0.885
    28   8 o    1.849 --    30 h    0.846    29 h    0.795
    29   1 h    0.866 --    28 o    0.795
    30   1 h    0.888 --    28 o    0.846
    31   8 o    1.873 --    33 h    0.818    32 h    0.805
    32   1 h    0.875 --    31 o    0.805
    33   1 h    0.879 --    31 o    0.818
    34   8 o    1.857 --    35 h    0.838    36 h    0.800
    35   1 h    0.881 --    34 o    0.838
    36   1 h    0.877 --    34 o    0.800
    37   8 o    1.863 --    39 h    0.847    38 h    0.821
    38   1 h    0.880 --    37 o    0.821
    39   1 h    0.895 --    37 o    0.847
    40   8 o    1.856 --    42 h    0.825    41 h    0.808
    41   1 h    0.876 --    40 o    0.808
    42   1 h    0.886 --    40 o    0.825
    43   8 o    1.855 --    45 h    0.846    44 h    0.806
    44   1 h    0.877 --    43 o    0.806
    45   1 h    0.886 --    43 o    0.846
    46   8 o    1.821 --    48 h    0.838    47 h    0.811
    47   1 h    0.874 --    46 o    0.811
    48   1 h    0.883 --    46 o    0.838
    49   8 o    1.846 --    50 h    0.792    51 h    0.780
    50   1 h    0.879 --    49 o    0.792
    51   1 h    0.871 --    49 o    0.780
    52   8 o    1.873 --    54 h    0.828    53 h    0.813
    53   1 h    0.874 --    52 o    0.813
    54   1 h    0.886 --    52 o    0.828
    55   8 o    1.850 --    56 h    0.830    57 h    0.829
    56   1 h    0.882 --    55 o    0.830
    57   1 h    0.879 --    55 o    0.829
    58   8 o    1.832 --    60 h    0.812    59 h    0.810
    59   1 h    0.876 --    58 o    0.810
    60   1 h    0.881 --    58 o    0.812
    61   8 o    1.853 --    62 h    0.851    63 h    0.833
    62   1 h    0.882 --    61 o    0.851
    63   1 h    0.893 --    61 o    0.833
    64   8 o    1.849 --    65 h    0.836    66 h    0.814
    65   1 h    0.887 --    64 o    0.836
    66   1 h    0.870 --    64 o    0.814
    67   8 o    1.885 --    69 h    0.853    68 h    0.841
    68   1 h    0.880 --    67 o    0.841
    69   1 h    0.882 --    67 o    0.853
    70   8 o    1.867 --    72 h    0.833    71 h    0.813
    71   1 h    0.878 --    70 o    0.813
    72   1 h    0.885 --    70 o    0.833
    73   8 o    1.855 --    74 h    0.834    75 h    0.813
    74   1 h    0.882 --    73 o    0.834
    75   1 h    0.883 --    73 o    0.813
    76   8 o    1.858 --    78 h    0.805    77 h    0.803
    77   1 h    0.877 --    76 o    0.803
    78   1 h    0.877 --    76 o    0.805
    79   8 o    1.828 --    81 h    0.853    80 h    0.833
    80   1 h    0.879 --    79 o    0.833
    81   1 h    0.889 --    79 o    0.853
    82   8 o    1.854 --    83 h    0.844    84 h    0.797
    83   1 h    0.894 --    82 o    0.844
    84   1 h    0.871 --    82 o    0.797
    85   8 o    1.861 --    87 h    0.826    86 h    0.820
    86   1 h    0.881 --    85 o    0.820
    87   1 h    0.881 --    85 o    0.826
    88   8 o    1.799 --    90 h    0.850    89 h    0.839
    89   1 h    0.886 --    88 o    0.839
    90   1 h    0.891 --    88 o    0.850
    91   8 o    1.852 --    93 h    0.868    92 h    0.833
    92   1 h    0.883 --    91 o    0.833
    93   1 h    0.886 --    91 o    0.868
    94   8 o    1.850 --    95 h    0.842    96 h    0.840
    95   1 h    0.887 --    94 o    0.842
    96   1 h    0.892 --    94 o    0.840
    97   8 o    1.842 --    99 h    0.832    98 h    0.806
    98   1 h    0.874 --    97 o    0.806
    99   1 h    0.880 --    97 o    0.832
   100   8 o    1.863 --   102 h    0.854   101 h    0.803
   101   1 h    0.882 --   100 o    0.803
   102   1 h    0.899 --   100 o    0.854
   103   8 o    1.844 --   104 h    0.830   105 h    0.819
   104   1 h    0.884 --   103 o    0.830
   105   1 h    0.882 --   103 o    0.819
   106   8 o    1.844 --   108 h    0.885   107 h    0.787
   107   1 h    0.866 --   106 o    0.787
   108   1 h    0.903 --   106 o    0.885
   109   8 o    1.838 --   110 h    0.847   111 h    0.832
   110   1 h    0.901 --   109 o    0.847
   111   1 h    0.881 --   109 o    0.832
   112   8 o    1.794 --   114 h    0.860   113 h    0.850
   113   1 h    0.891 --   112 o    0.850
   114   1 h    0.893 --   112 o    0.860
   115   8 o    1.829 --   117 h    0.844   116 h    0.803
   116   1 h    0.882 --   115 o    0.803
   117   1 h    0.887 --   115 o    0.844
   118   8 o    1.876 --   120 h    0.810   119 h    0.790
   119   1 h    0.875 --   118 o    0.790
   120   1 h    0.885 --   118 o    0.810
   121   8 o    1.841 --   122 h    0.860   123 h    0.845
   122   1 h    0.885 --   121 o    0.860
   123   1 h    0.884 --   121 o    0.845
   124   8 o    1.851 --   126 h    0.811   125 h    0.802
   125   1 h    0.872 --   124 o    0.802
   126   1 h    0.887 --   124 o    0.811
   127   8 o    1.842 --   129 h    0.807   128 h    0.802
   128   1 h    0.881 --   127 o    0.802
   129   1 h    0.879 --   127 o    0.807
   130   8 o    1.849 --   132 h    0.903   131 h    0.795
   131   1 h    0.871 --   130 o    0.795
   132   1 h    0.909 --   130 o    0.903
   133   8 o    1.813 --   134 h    0.846   135 h    0.813
   134   1 h    0.892 --   133 o    0.846
   135   1 h    0.883 --   133 o    0.813
   136   8 o    1.836 --   137 h    0.823   138 h    0.789
   137   1 h    0.884 --   136 o    0.823
   138   1 h    0.878 --   136 o    0.789
   139   8 o    1.876 --   140 h    0.826   141 h    0.771
   140   1 h    0.877 --   139 o    0.826
   141   1 h    0.868 --   139 o    0.771
   142   8 o    1.852 --   144 h    0.840   143 h    0.831
   143   1 h    0.893 --   142 o    0.831
   144   1 h    0.882 --   142 o    0.840
   145   8 o    1.826 --   147 h    0.871   146 h    0.848
   146   1 h    0.886 --   145 o    0.848
   147   1 h    0.893 --   145 o    0.871
   148   8 o    1.843 --   150 h    0.817   149 h    0.773
   149   1 h    0.872 --   148 o    0.773
   150   1 h    0.883 --   148 o    0.817
   151   8 o    1.847 --   153 h    0.827   152 h    0.810
   152   1 h    0.879 --   151 o    0.810
   153   1 h    0.897 --   151 o    0.827
   154   8 o    1.851 --   156 h    0.820   155 h    0.805
   155   1 h    0.875 --   154 o    0.805
   156   1 h    0.886 --   154 o    0.820
   157   8 o    1.855 --   158 h    0.897   159 h    0.796
   158   1 h    0.904 --   157 o    0.897
   159   1 h    0.881 --   157 o    0.796
   160   8 o    1.850 --   162 h    0.805   161 h    0.784
   161   1 h    0.871 --   160 o    0.784
   162   1 h    0.876 --   160 o    0.805
   163   8 o    1.827 --   165 h    0.871   164 h    0.841
   164   1 h    0.880 --   163 o    0.841
   165   1 h    0.893 --   163 o    0.871
   166   8 o    1.834 --   168 h    0.840   167 h    0.808
   167   1 h    0.878 --   166 o    0.808
   168   1 h    0.882 --   166 o    0.840
   169   8 o    1.849 --   170 h    0.860   171 h    0.787
   170   1 h    0.887 --   169 o    0.860
   171   1 h    0.868 --   169 o    0.787
   172   8 o    1.855 --   173 h    0.818   174 h    0.817
   173   1 h    0.884 --   172 o    0.818
   174   1 h    0.880 --   172 o    0.817
   175   8 o    1.882 --   177 h    0.866   176 h    0.820
   176   1 h    0.888 --   175 o    0.820
   177   1 h    0.891 --   175 o    0.866
   178   8 o    1.841 --   180 h    0.826   179 h    0.819
   179   1 h    0.880 --   178 o    0.819
   180   1 h    0.886 --   178 o    0.826
   181   8 o    1.848 --   182 h    0.895   183 h    0.786
   182   1 h    0.900 --   181 o    0.895
   183   1 h    0.877 --   181 o    0.786
   184   8 o    1.805 --   186 h    0.862   185 h    0.793
   185   1 h    0.876 --   184 o    0.793
   186   1 h    0.903 --   184 o    0.862
   187   8 o    1.808 --   188 h    0.857   189 h    0.848
   188   1 h    0.893 --   187 o    0.857
   189   1 h    0.891 --   187 o    0.848
   190   8 o    1.877 --   191 h    0.838   192 h    0.789
   191   1 h    0.893 --   190 o    0.838
   192   1 h    0.883 --   190 o    0.789
   193   8 o    1.881 --   195 h    0.829   194 h    0.816
   194   1 h    0.882 --   193 o    0.816
   195   1 h    0.889 --   193 o    0.829
   196   8 o    1.870 --   198 h    0.836   197 h    0.786
   197   1 h    0.870 --   196 o    0.786
   198   1 h    0.880 --   196 o    0.836
   199   8 o    1.870 --   201 h    0.841   200 h    0.825
   200   1 h    0.872 --   199 o    0.825
   201   1 h    0.882 --   199 o    0.841
   202   8 o    1.840 --   204 h    0.824   203 h    0.812
   203   1 h    0.887 --   202 o    0.812
   204   1 h    0.882 --   202 o    0.824
   205   8 o    1.850 --   206 h    0.822   207 h    0.800
   206   1 h    0.883 --   205 o    0.822
   207   1 h    0.872 --   205 o    0.800
   208   8 o    1.799 --   209 h    0.826   210 h    0.797
   209   1 h    0.895 --   208 o    0.826
   210   1 h    0.875 --   208 o    0.797
   211   8 o    1.830 --   212 h    0.870   213 h    0.828
   212   1 h    0.896 --   211 o    0.870
   213   1 h    0.886 --   211 o    0.828
   214   8 o    1.876 --   215 h    0.816   216 h    0.803
   215   1 h    0.888 --   214 o    0.816
   216   1 h    0.877 --   214 o    0.803
   217   8 o    1.853 --   219 h    0.801   218 h    0.799
   218   1 h    0.870 --   217 o    0.799
   219   1 h    0.878 --   217 o    0.801
   220   8 o    1.896 --   222 h    0.823   221 h    0.801
   221   1 h    0.874 --   220 o    0.801
   222   1 h    0.883 --   220 o    0.823
   223   8 o    1.867 --   225 h    0.823   224 h    0.814
   224   1 h    0.878 --   223 o    0.814
   225   1 h    0.877 --   223 o    0.823
   226   8 o    1.851 --   227 h    0.833   228 h    0.801
   227   1 h    0.895 --   226 o    0.833
   228   1 h    0.874 --   226 o    0.801
   229   8 o    1.870 --   231 h    0.818   230 h    0.807
   230   1 h    0.867 --   229 o    0.807
   231   1 h    0.889 --   229 o    0.818
   232   8 o    1.847 --   234 h    0.834   233 h    0.792
   233   1 h    0.872 --   232 o    0.792
   234   1 h    0.890 --   232 o    0.834
   235   8 o    1.839 --   237 h    0.843   236 h    0.840
   236   1 h    0.884 --   235 o    0.840
   237   1 h    0.896 --   235 o    0.843
   238   8 o    1.823 --   239 h    0.883   240 h    0.846
   239   1 h    0.896 --   238 o    0.883
   240   1 h    0.881 --   238 o    0.846
   241   8 o    1.815 --   242 h    0.825   243 h    0.822
   242   1 h    0.889 --   241 o    0.825
   243   1 h    0.871 --   241 o    0.822
   244   8 o    1.844 --   246 h    0.897   245 h    0.794
   245   1 h    0.877 --   244 o    0.794
   246   1 h    0.902 --   244 o    0.897
   247   8 o    1.884 --   248 h    0.852   249 h    0.845
   248   1 h    0.884 --   247 o    0.852
   249   1 h    0.892 --   247 o    0.845
   250   8 o    1.847 --   252 h    0.841   251 h    0.824
   251   1 h    0.874 --   250 o    0.824
   252   1 h    0.889 --   250 o    0.841
   253   8 o    1.881 --   254 h    0.836   255 h    0.816   365 h    0.106
   254   1 h    0.891 --   253 o    0.836
   255   1 h    0.874 --   253 o    0.816
   256   8 o    1.848 --   258 h    0.831   257 h    0.808
   257   1 h    0.880 --   256 o    0.808
   258   1 h    0.892 --   256 o    0.831
   259   8 o    1.813 --   261 h    0.846   260 h    0.825
   260   1 h    0.878 --   259 o    0.825
   261   1 h    0.891 --   259 o    0.846
   262   8 o    1.822 --   263 h    0.877   264 h    0.836
   263   1 h    0.896 --   262 o    0.877
   264   1 h    0.873 --   262 o    0.836
   265   8 o    1.864 --   266 h    0.824   267 h    0.821
   266   1 h    0.890 --   265 o    0.824
   267   1 h    0.891 --   265 o    0.821
   268   8 o    1.807 --   270 h    0.895   269 h    0.836
   269   1 h    0.883 --   268 o    0.836
   270   1 h    0.901 --   268 o    0.895
   271   8 o    1.838 --   272 h    0.842   273 h    0.809
   272   1 h    0.888 --   271 o    0.842
   273   1 h    0.875 --   271 o    0.809
   274   8 o    1.862 --   275 h    0.834   276 h    0.811
   275   1 h    0.894 --   274 o    0.834
   276   1 h    0.886 --   274 o    0.811
   277   8 o    1.879 --   278 h    0.840   279 h    0.815
   278   1 h    0.885 --   277 o    0.840
   279   1 h    0.873 --   277 o    0.815
   280   8 o    1.874 --   281 h    0.831   282 h    0.809
   281   1 h    0.878 --   280 o    0.831
   282   1 h    0.882 --   280 o    0.809
   283   8 o    1.872 --   284 h    0.822   285 h    0.821
   284   1 h    0.890 --   283 o    0.822
   285   1 h    0.873 --   283 o    0.821
   286   8 o    1.866 --   288 h    0.811   287 h    0.798
   287   1 h    0.877 --   286 o    0.798
   288   1 h    0.882 --   286 o    0.811
   289   8 o    1.814 --   291 h    0.853   290 h    0.832
   290   1 h    0.882 --   289 o    0.832
   291   1 h    0.890 --   289 o    0.853
   292   8 o    1.833 --   293 h    0.859   294 h    0.826
   293   1 h    0.890 --   292 o    0.859
   294   1 h    0.876 --   292 o    0.826
   295   8 o    1.856 --   297 h    0.813   296 h    0.789
   296   1 h    0.874 --   295 o    0.789
   297   1 h    0.874 --   295 o    0.813
   298   8 o    1.836 --   299 h    0.827   300 h    0.818
   299   1 h    0.885 --   298 o    0.827
   300   1 h    0.879 --   298 o    0.818
   301   8 o    1.852 --   302 h    0.843   303 h    0.804
   302   1 h    0.888 --   301 o    0.843
   303   1 h    0.870 --   301 o    0.804
   304   8 o    1.857 --   305 h    0.837   306 h    0.808   542 h    0.108
   305   1 h    0.889 --   304 o    0.837
   306   1 h    0.871 --   304 o    0.808
   307   8 o    1.867 --   309 h    0.811   308 h    0.801
   308   1 h    0.865 --   307 o    0.801
   309   1 h    0.882 --   307 o    0.811
   310   8 o    1.807 --   312 h    0.831   311 h    0.816
   311   1 h    0.888 --   310 o    0.816
   312   1 h    0.892 --   310 o    0.831
   313   8 o    1.823 --   315 h    0.862   314 h    0.821
   314   1 h    0.881 --   313 o    0.821
   315   1 h    0.892 --   313 o    0.862
   316   8 o    1.818 --   317 h    0.852   318 h    0.829
   317   1 h    0.887 --   316 o    0.852
   318   1 h    0.888 --   316 o    0.829
   319   8 o    1.875 --   320 h    0.835   321 h    0.816
   320   1 h    0.876 --   319 o    0.835
   321   1 h    0.875 --   319 o    0.816
   322   8 o    1.840 --   323 h    0.853   324 h    0.835
   323   1 h    0.895 --   322 o    0.853
   324   1 h    0.888 --   322 o    0.835
   325   8 o    1.837 --   327 h    0.805   326 h    0.801
   326   1 h    0.871 --   325 o    0.801
   327   1 h    0.881 --   325 o    0.805
   328   8 o    1.837 --   329 h    0.862   330 h    0.848
   329   1 h    0.888 --   328 o    0.862
   330   1 h    0.881 --   328 o    0.848
   331   8 o    1.853 --   332 h    0.854   333 h    0.812
   332   1 h    0.876 --   331 o    0.854
   333   1 h    0.881 --   331 o    0.812
   334   8 o    1.829 --   336 h    0.872   335 h    0.800
   335   1 h    0.878 --   334 o    0.800
   336   1 h    0.897 --   334 o    0.872
   337   8 o    1.848 --   339 h    0.809   338 h    0.802
   338   1 h    0.887 --   337 o    0.802
   339   1 h    0.873 --   337 o    0.809
   340   8 o    1.848 --   342 h    0.811   341 h    0.785
   341   1 h    0.867 --   340 o    0.785
   342   1 h    0.892 --   340 o    0.811
   343   8 o    1.849 --   345 h    0.839   344 h    0.809
   344   1 h    0.874 --   343 o    0.809
   345   1 h    0.891 --   343 o    0.839
   346   8 o    1.836 --   348 h    0.851   347 h    0.812
   347   1 h    0.875 --   346 o    0.812
   348   1 h    0.896 --   346 o    0.851
   349   8 o    1.839 --   351 h    0.839   350 h    0.808
   350   1 h    0.873 --   349 o    0.808
   351   1 h    0.884 --   349 o    0.839
   352   8 o    1.837 --   353 h    0.849   354 h    0.813
   353   1 h    0.895 --   352 o    0.849
   354   1 h    0.885 --   352 o    0.813
   355   8 o    1.847 --   357 h    0.886   356 h    0.803
   356   1 h    0.863 --   355 o    0.803
   357   1 h    0.896 --   355 o    0.886
   358   8 o    1.857 --   360 h    0.823   359 h    0.772
   359   1 h    0.875 --   358 o    0.772
   360   1 h    0.878 --   358 o    0.823
   361   8 o    1.847 --   362 h    0.859   363 h    0.844
   362   1 h    0.889 --   361 o    0.859
   363   1 h    0.883 --   361 o    0.844
[...]
   369   1 h    0.887 --   367 o    0.846
   370   8 o    1.839 --   372 h    0.857   371 h    0.784
   371   1 h    0.865 --   370 o    0.784
   372   1 h    0.894 --   370 o    0.857
   373   8 o    1.843 --   374 h    0.858   375 h    0.800
   374   1 h    0.891 --   373 o    0.858
   375   1 h    0.877 --   373 o    0.800
   376   8 o    1.874 --   378 h    0.837   377 h    0.825
   377   1 h    0.873 --   376 o    0.825
   378   1 h    0.880 --   376 o    0.837
   379   8 o    1.869 --   381 h    0.833   380 h    0.796
   380   1 h    0.867 --   379 o    0.796
   381   1 h    0.886 --   379 o    0.833
   382   8 o    1.822 --   384 h    0.862   383 h    0.843
   383   1 h    0.883 --   382 o    0.843
   384   1 h    0.892 --   382 o    0.862
   385   8 o    1.835 --   387 h    0.830   386 h    0.797
   386   1 h    0.869 --   385 o    0.797
   387   1 h    0.890 --   385 o    0.830
   388   8 o    1.833 --   390 h    0.844   389 h    0.817
   389   1 h    0.872 --   388 o    0.817
   390   1 h    0.888 --   388 o    0.844
   391   8 o    1.836 --   393 h    0.856   392 h    0.846
   392   1 h    0.887 --   391 o    0.846
   393   1 h    0.888 --   391 o    0.856
   394   8 o    1.842 --   396 h    0.826   395 h    0.803
   395   1 h    0.878 --   394 o    0.803
   396   1 h    0.895 --   394 o    0.826
   397   8 o    1.831 --   398 h    0.871   399 h    0.817
   398   1 h    0.896 --   397 o    0.871
   399   1 h    0.882 --   397 o    0.817
   400   8 o    1.857 --   402 h    0.863   401 h    0.811
   401   1 h    0.877 --   400 o    0.811
   402   1 h    0.899 --   400 o    0.863
   403   8 o    1.855 --   405 h    0.813   404 h    0.807
   404   1 h    0.868 --   403 o    0.807
   405   1 h    0.889 --   403 o    0.813
   406   8 o    1.836 --   407 h    0.823   408 h    0.813
   407   1 h    0.881 --   406 o    0.823
   408   1 h    0.883 --   406 o    0.813
   409   8 o    1.822 --   410 h    0.881   411 h    0.821
   410   1 h    0.897 --   409 o    0.881
   411   1 h    0.886 --   409 o    0.821
   412   8 o    1.872 --   413 h    0.822   414 h    0.802
   413   1 h    0.894 --   412 o    0.822
   414   1 h    0.868 --   412 o    0.802
   415   8 o    1.845 --   416 h    0.842   417 h    0.780
   416   1 h    0.888 --   415 o    0.842
   417   1 h    0.865 --   415 o    0.780
   418   8 o    1.842 --   419 h    0.869   420 h    0.837
   419   1 h    0.889 --   418 o    0.869
   420   1 h    0.885 --   418 o    0.837
   421   8 o    1.843 --   422 h    0.831   423 h    0.830
   422   1 h    0.882 --   421 o    0.831
   423   1 h    0.889 --   421 o    0.830
   424   8 o    1.844 --   425 h    0.900   426 h    0.808
   425   1 h    0.905 --   424 o    0.900
   426   1 h    0.874 --   424 o    0.808
   427   8 o    1.887 --   429 h    0.870   428 h    0.859
   428   1 h    0.887 --   427 o    0.859
   429   1 h    0.890 --   427 o    0.870
   430   8 o    1.865 --   431 h    0.843   432 h    0.831
   431   1 h    0.892 --   430 o    0.843
   432   1 h    0.886 --   430 o    0.831
   433   8 o    1.849 --   434 h    0.815   435 h    0.814
   434   1 h    0.873 --   433 o    0.815
   435   1 h    0.883 --   433 o    0.814
   436   8 o    1.849 --   437 h    0.836   438 h    0.812
   437   1 h    0.894 --   436 o    0.836
   438   1 h    0.878 --   436 o    0.812
   439   8 o    1.874 --   441 h    0.836   440 h    0.812
   440   1 h    0.876 --   439 o    0.812
   441   1 h    0.894 --   439 o    0.836
   442   8 o    1.840 --   444 h    0.850   443 h    0.842
   443   1 h    0.884 --   442 o    0.842
   444   1 h    0.888 --   442 o    0.850
   445   8 o    1.840 --   447 h    0.889   446 h    0.817
   446   1 h    0.882 --   445 o    0.817
   447   1 h    0.897 --   445 o    0.889
   448   8 o    1.844 --   450 h    0.846   449 h    0.806
   449   1 h    0.874 --   448 o    0.806
   450   1 h    0.884 --   448 o    0.846
   451   8 o    1.835 --   452 h    0.893   453 h    0.785
   452   1 h    0.903 --   451 o    0.893
   453   1 h    0.865 --   451 o    0.785
   454   8 o    1.831 --   455 h    0.867   456 h    0.838
   455   1 h    0.895 --   454 o    0.867
   456   1 h    0.890 --   454 o    0.838
   457   8 o    1.832 --   459 h    0.866   458 h    0.803
   458   1 h    0.870 --   457 o    0.803
   459   1 h    0.894 --   457 o    0.866
   460   8 o    1.811 --   461 h    0.872   462 h    0.854
   461   1 h    0.892 --   460 o    0.872
   462   1 h    0.888 --   460 o    0.854
   463   8 o    1.844 --   464 h    0.844   465 h    0.808
   464   1 h    0.887 --   463 o    0.844
   465   1 h    0.885 --   463 o    0.808
   466   8 o    1.839 --   467 h    0.879   468 h    0.832
   467   1 h    0.894 --   466 o    0.879
   468   1 h    0.883 --   466 o    0.832
   469   8 o    1.848 --   471 h    0.854   470 h    0.839
   470   1 h    0.886 --   469 o    0.839
   471   1 h    0.891 --   469 o    0.854
   472   8 o    1.838 --   474 h    0.869   473 h    0.836
   473   1 h    0.885 --   472 o    0.836
   474   1 h    0.888 --   472 o    0.869
   475   8 o    1.833 --   477 h    0.866   476 h    0.790
   476   1 h    0.875 --   475 o    0.790
   477   1 h    0.897 --   475 o    0.866
   478   8 o    1.843 --   479 h    0.833   480 h    0.786
   479   1 h    0.887 --   478 o    0.833
   480   1 h    0.861 --   478 o    0.786
   481   8 o    1.795 --   483 h    0.829   482 h    0.821
   482   1 h    0.886 --   481 o    0.821
   483   1 h    0.884 --   481 o    0.829
   484   8 o    1.838 --   485 h    0.865   486 h    0.817
   485   1 h    0.900 --   484 o    0.865
   486   1 h    0.883 --   484 o    0.817
   487   8 o    1.783 --   489 h    0.873   488 h    0.829
   488   1 h    0.888 --   487 o    0.829
   489   1 h    0.898 --   487 o    0.873
   490   8 o    1.833 --   492 h    0.832   491 h    0.808
   491   1 h    0.867 --   490 o    0.808
   492   1 h    0.888 --   490 o    0.832
   493   8 o    1.903 --   494 h    0.830   495 h    0.815
   494   1 h    0.886 --   493 o    0.830
   495   1 h    0.879 --   493 o    0.815
   496   8 o    1.857 --   497 h    0.806   498 h    0.799
   497   1 h    0.881 --   496 o    0.806
   498   1 h    0.872 --   496 o    0.799
   499   8 o    1.829 --   501 h    0.861   500 h    0.812
   500   1 h    0.881 --   499 o    0.812
   501   1 h    0.891 --   499 o    0.861
   502   8 o    1.815 --   503 h    0.876   504 h    0.804
   503   1 h    0.899 --   502 o    0.876
   504   1 h    0.871 --   502 o    0.804
   505   8 o    1.874 --   506 h    0.807   507 h    0.778
   506   1 h    0.876 --   505 o    0.807
   507   1 h    0.874 --   505 o    0.778
   508   8 o    1.839 --   510 h    0.896   509 h    0.790
   509   1 h    0.870 --   508 o    0.790
   510   1 h    0.904 --   508 o    0.896
   511   8 o    1.873 --   512 h    0.839   513 h    0.828
   512   1 h    0.881 --   511 o    0.839
   513   1 h    0.886 --   511 o    0.828
   514   8 o    1.828 --   516 h    0.889   515 h    0.808
   515   1 h    0.880 --   514 o    0.808
   516   1 h    0.899 --   514 o    0.889
   517   8 o    1.849 --   518 h    0.830   519 h    0.788
   518   1 h    0.880 --   517 o    0.830
   519   1 h    0.866 --   517 o    0.788
   520   8 o    1.795 --   522 h    0.825   521 h    0.820
   521   1 h    0.887 --   520 o    0.820
   522   1 h    0.889 --   520 o    0.825
   523   8 o    1.822 --   524 h    0.887   525 h    0.815
   524   1 h    0.898 --   523 o    0.887
   525   1 h    0.884 --   523 o    0.815
   526   8 o    1.844 --   528 h    0.843   527 h    0.824
   527   1 h    0.878 --   526 o    0.824
   528   1 h    0.886 --   526 o    0.843
   529   8 o    1.854 --   530 h    0.827   531 h    0.825
   530   1 h    0.880 --   529 o    0.827
   531   1 h    0.891 --   529 o    0.825
   532   8 o    1.843 --   534 h    0.836   533 h    0.801
   533   1 h    0.870 --   532 o    0.801
   534   1 h    0.886 --   532 o    0.836
   535   8 o    1.872 --   537 h    0.823   536 h    0.807
   536   1 h    0.866 --   535 o    0.807
   537   1 h    0.890 --   535 o    0.823
   538   8 o    1.846 --   539 h    0.842   540 h    0.809
   539   1 h    0.880 --   538 o    0.842
   540   1 h    0.885 --   538 o    0.809
   541   8 o    1.829 --   543 h    0.902   542 h    0.757
   542   1 h    0.874 --   541 o    0.757   304 o    0.108
   543   1 h    0.906 --   541 o    0.902
   544   8 o    1.897 --   545 h    0.826   546 h    0.821
   545   1 h    0.880 --   544 o    0.826
   546   1 h    0.893 --   544 o    0.821
   547   8 o    1.826 --   548 h    0.837   549 h    0.796
   548   1 h    0.893 --   547 o    0.837
   549   1 h    0.865 --   547 o    0.796
   550   8 o    1.857 --   551 h    0.858   552 h    0.844
   551   1 h    0.885 --   550 o    0.858
   552   1 h    0.885 --   550 o    0.844
   553   8 o    1.819 --   555 h    0.898   554 h    0.836
   554   1 h    0.882 --   553 o    0.836
   555   1 h    0.905 --   553 o    0.898
   556   8 o    1.822 --   557 h    0.878   558 h    0.800
   557   1 h    0.898 --   556 o    0.878
   558   1 h    0.874 --   556 o    0.800
   559   8 o    1.842 --   560 h    0.852   561 h    0.846
   560   1 h    0.884 --   559 o    0.852
   561   1 h    0.887 --   559 o    0.846
   562   8 o    1.843 --   563 h    0.818   564 h    0.817
   563   1 h    0.892 --   562 o    0.818
   564   1 h    0.887 --   562 o    0.817
   565   8 o    1.851 --   566 h    0.846   567 h    0.794
   566   1 h    0.895 --   565 o    0.846
   567   1 h    0.878 --   565 o    0.794
   568   8 o    1.870 --   570 h    0.829   569 h    0.828
   569   1 h    0.889 --   568 o    0.828
   570   1 h    0.877 --   568 o    0.829
   571   8 o    1.840 --   573 h    0.860   572 h    0.771
   572   1 h    0.860 --   571 o    0.771
   573   1 h    0.896 --   571 o    0.860
   574   8 o    1.849 --   576 h    0.810   575 h    0.797
   575   1 h    0.878 --   574 o    0.797
   576   1 h    0.876 --   574 o    0.810
   577   8 o    1.869 --   579 h    0.862   578 h    0.806
   578   1 h    0.886 --   577 o    0.806
   579   1 h    0.895 --   577 o    0.862
   580   8 o    1.818 --   582 h    0.897   581 h    0.805
   581   1 h    0.866 --   580 o    0.805
   582   1 h    0.905 --   580 o    0.897
   583   8 o    1.846 --   584 h    0.849   585 h    0.799
   584   1 h    0.887 --   583 o    0.849
   585   1 h    0.869 --   583 o    0.799
   586   8 o    1.819 --   588 h    0.855   587 h    0.853
   587   1 h    0.886 --   586 o    0.853
   588   1 h    0.886 --   586 o    0.855
   589   8 o    1.822 --   590 h    0.866   591 h    0.809
   590   1 h    0.898 --   589 o    0.866
   591   1 h    0.873 --   589 o    0.809
   592   8 o    1.817 --   593 h    0.833   594 h    0.826
   593   1 h    0.892 --   592 o    0.833
   594   1 h    0.883 --   592 o    0.826
   595   8 o    1.800 --   596 h    0.844   597 h    0.797
   596   1 h    0.892 --   595 o    0.844
   597   1 h    0.875 --   595 o    0.797
   598   8 o    1.836 --   599 h    0.859   600 h    0.833
   599   1 h    0.890 --   598 o    0.859
   600   1 h    0.883 --   598 o    0.833
   601   8 o    1.839 --   603 h    0.838   602 h    0.806
   602   1 h    0.865 --   601 o    0.806
   603   1 h    0.896 --   601 o    0.838
   604   8 o    1.841 --   605 h    0.847   606 h    0.786
   605   1 h    0.894 --   604 o    0.847
   606   1 h    0.868 --   604 o    0.786
   607   8 o    1.834 --   609 h    0.885   608 h    0.850
   608   1 h    0.891 --   607 o    0.850
   609   1 h    0.896 --   607 o    0.885
   610   8 o    1.832 --   612 h    0.878   611 h    0.763
   611   1 h    0.860 --   610 o    0.763
   612   1 h    0.898 --   610 o    0.878
   613   8 o    1.813 --   614 h    0.877   615 h    0.827
   614   1 h    0.898 --   613 o    0.877
   615   1 h    0.876 --   613 o    0.827
   616   8 o    1.847 --   618 h    0.861   617 h    0.833
   617   1 h    0.880 --   616 o    0.833
   618   1 h    0.887 --   616 o    0.861
   619   8 o    1.855 --   620 h    0.825   621 h    0.800
   620   1 h    0.885 --   619 o    0.825
   621   1 h    0.870 --   619 o    0.800
   622   8 o    1.819 --   624 h    0.887   623 h    0.793
   623   1 h    0.870 --   622 o    0.793
   624   1 h    0.903 --   622 o    0.887
   625   8 o    1.893 --   626 h    0.802   627 h    0.802
   626   1 h    0.887 --   625 o    0.802
   627   1 h    0.887 --   625 o    0.802
   628   8 o    1.828 --   630 h    0.847   629 h    0.819
   629   1 h    0.868 --   628 o    0.819
   630   1 h    0.892 --   628 o    0.847
   631   8 o    1.850 --   633 h    0.807   632 h    0.797
   632   1 h    0.874 --   631 o    0.797
   633   1 h    0.879 --   631 o    0.807
   634   8 o    1.833 --   636 h    0.860   635 h    0.840
   635   1 h    0.886 --   634 o    0.840
   636   1 h    0.885 --   634 o    0.860
   637   8 o    1.824 --   638 h    0.864   639 h    0.834
   638   1 h    0.893 --   637 o    0.864
   639   1 h    0.876 --   637 o    0.834
   640   8 o    1.840 --   642 h    0.870   641 h    0.830
   641   1 h    0.888 --   640 o    0.830
   642   1 h    0.893 --   640 o    0.870
   643   8 o    1.865 --   645 h    0.839   644 h    0.809
   644   1 h    0.891 --   643 o    0.809
   645   1 h    0.886 --   643 o    0.839
   646   8 o    1.812 --   648 h    0.865   647 h    0.860
   647   1 h    0.882 --   646 o    0.860
   648   1 h    0.890 --   646 o    0.865
   649   8 o    1.861 --   651 h    0.832   650 h    0.798
   650   1 h    0.884 --   649 o    0.798
   651   1 h    0.885 --   649 o    0.832
   652   8 o    1.842 --   653 h    0.853   654 h    0.804
   653   1 h    0.888 --   652 o    0.853
   654   1 h    0.887 --   652 o    0.804
   655   8 o    1.842 --   656 h    0.831   657 h    0.799
   656   1 h    0.894 --   655 o    0.831
   657   1 h    0.880 --   655 o    0.799
   658   8 o    1.812 --   659 h    0.810   660 h    0.793
   659   1 h    0.872 --   658 o    0.810
   660   1 h    0.879 --   658 o    0.793
   661   8 o    1.856 --   662 h    0.888   663 h    0.827
   662   1 h    0.899 --   661 o    0.888
   663   1 h    0.882 --   661 o    0.827
   664   8 o    1.830 --   666 h    0.820   665 h    0.803
   665   1 h    0.878 --   664 o    0.803
   666   1 h    0.886 --   664 o    0.820
   667   8 o    1.832 --   669 h    0.894   668 h    0.835
   668   1 h    0.887 --   667 o    0.835
   669   1 h    0.901 --   667 o    0.894
   670   8 o    1.815 --   672 h    0.844   671 h    0.818
   671   1 h    0.883 --   670 o    0.818
   672   1 h    0.903 --   670 o    0.844
   673   8 o    1.820 --   675 h    0.845   674 h    0.833
   674   1 h    0.883 --   673 o    0.833
   675   1 h    0.884 --   673 o    0.845
   676   8 o    1.820 --   677 h    0.856   678 h    0.826
   677   1 h    0.896 --   676 o    0.856
   678   1 h    0.894 --   676 o    0.826
   679   8 o    1.860 --   680 h    0.816   681 h    0.801
   680   1 h    0.874 --   679 o    0.816
   681   1 h    0.878 --   679 o    0.801
   682   8 o    1.876 --   683 h    0.824   684 h    0.814
   683   1 h    0.892 --   682 o    0.824
   684   1 h    0.874 --   682 o    0.814
   685   8 o    1.854 --   686 h    0.810   687 h    0.783
   686   1 h    0.876 --   685 o    0.810
   687   1 h    0.869 --   685 o    0.783
   688   8 o    1.850 --   689 h    0.842   690 h    0.819
   689   1 h    0.889 --   688 o    0.842
   690   1 h    0.875 --   688 o    0.819
   691   8 o    1.846 --   692 h    0.866   693 h    0.849
   692   1 h    0.896 --   691 o    0.866
   693   1 h    0.898 --   691 o    0.849
   694   8 o    1.865 --   695 h    0.820   696 h    0.794
   695   1 h    0.885 --   694 o    0.820
   696   1 h    0.881 --   694 o    0.794
   697   8 o    1.863 --   699 h    0.867   698 h    0.795
   698   1 h    0.864 --   697 o    0.795
   699   1 h    0.895 --   697 o    0.867
   700   8 o    1.838 --   702 h    0.836   701 h    0.796
   701   1 h    0.873 --   700 o    0.796
   702   1 h    0.896 --   700 o    0.836
   703   8 o    1.825 --   705 h    0.833   704 h    0.811
   704   1 h    0.886 --   703 o    0.811
   705   1 h    0.889 --   703 o    0.833
   706   8 o    1.833 --   708 h    0.896   707 h    0.781
   707   1 h    0.870 --   706 o    0.781
   708   1 h    0.903 --   706 o    0.896
   709   8 o    1.838 --   710 h    0.839   711 h    0.835
   710   1 h    0.882 --   709 o    0.839
   711   1 h    0.884 --   709 o    0.835
   712   8 o    1.864 --   713 h    0.874   714 h    0.823
   713   1 h    0.893 --   712 o    0.874
   714   1 h    0.884 --   712 o    0.823
   715   8 o    1.803 --   717 h    0.840   716 h    0.822
   716   1 h    0.879 --   715 o    0.822
   717   1 h    0.887 --   715 o    0.840
   718   8 o    1.843 --   720 h    0.827   719 h    0.769
   719   1 h    0.861 --   718 o    0.769
   720   1 h    0.883 --   718 o    0.827
   721   8 o    1.832 --   722 h    0.857   723 h    0.822
   722   1 h    0.890 --   721 o    0.857
   723   1 h    0.873 --   721 o    0.822
   724   8 o    1.835 --   725 h    0.838   726 h    0.822
   725   1 h    0.889 --   724 o    0.838
   726   1 h    0.889 --   724 o    0.822
   727   8 o    1.871 --   728 h    0.857   729 h    0.813
   728   1 h    0.891 --   727 o    0.857
   729   1 h    0.889 --   727 o    0.813
   730   8 o    1.822 --   732 h    0.879   731 h    0.803
   731   1 h    0.877 --   730 o    0.803
   732   1 h    0.898 --   730 o    0.879
   733   8 o    1.828 --   734 h    0.847   735 h    0.836
   734   1 h    0.889 --   733 o    0.847
   735   1 h    0.884 --   733 o    0.836
   736   8 o    1.805 --   738 h    0.851   737 h    0.849
   737   1 h    0.891 --   736 o    0.849
   738   1 h    0.895 --   736 o    0.851
   739   8 o    1.843 --   740 h    0.864   741 h    0.807
   740   1 h    0.897 --   739 o    0.864
   741   1 h    0.869 --   739 o    0.807
   742   8 o    1.829 --   744 h    0.874   743 h    0.776
   743   1 h    0.869 --   742 o    0.776
   744   1 h    0.896 --   742 o    0.874
   745   8 o    1.832 --   747 h    0.882   746 h    0.833
   746   1 h    0.887 --   745 o    0.833
   747   1 h    0.891 --   745 o    0.882
   748   8 o    1.814 --   750 h    0.867   749 h    0.853
   749   1 h    0.890 --   748 o    0.853
   750   1 h    0.886 --   748 o    0.867
   751   8 o    1.840 --   753 h    0.888   752 h    0.853
   752   1 h    0.885 --   751 o    0.853
   753   1 h    0.895 --   751 o    0.888
   754   8 o    1.832 --   755 h    0.879   756 h    0.859
   755   1 h    0.893 --   754 o    0.879
   756   1 h    0.887 --   754 o    0.859
 ---------------------------------------------------------------------------

Topologies differ in total number of bonds
Writing topology from bond orders to xtbtopo.mol

molecular dipole:
                 x           y           z       tot (Debye)
 q only:        5.851      -0.684       2.083
   full:        8.363      -0.878       3.083      22.764
molecular quadrupole (traceless):
                xx          xy          yy          xz          yz          zz
 q only:      -19.667     125.132      40.005      32.103       8.355     -20.338
  q+dip:      -18.979     155.281      37.504      47.699      -5.031     -18.525
   full:      -17.222     155.288      36.012      46.599      -6.042     -18.790


           -------------------------------------------------
          | TOTAL ENERGY            -1283.607663498329 Eh   |
          | GRADIENT NORM               0.097656271733 Eh/α |
          | HOMO-LUMO GAP               7.916086328163 eV   |
           -------------------------------------------------

------------------------------------------------------------------------
 * finished run on 2022/11/24 at 09:28:07.441     
------------------------------------------------------------------------
 total:
 * wall-time:     0 d,  0 h,  0 min, 20.915 sec
 *  cpu-time:     0 d,  0 h,  0 min, 33.295 sec
 * ratio c/w:     1.592 speedup
 SCF:
 * wall-time:     0 d,  0 h,  0 min, 19.907 sec
 *  cpu-time:     0 d,  0 h,  0 min, 31.576 sec
 * ratio c/w:     1.586 speedup

