756
 energy: -1283.340266091856 gnorm: 0.011907112926 xtb: 6.5.1 (579679a)
o           -2.92831808831900       -6.54586830929352       -3.78247370647303
h           -3.58730115388048       -5.90622340903805       -3.47636307417324
h           -2.66070708784740       -6.24803981442523       -4.65860563738844
o            3.41061474697321       -3.41424110113676        5.15378685914668
h            4.16828325487912       -2.80235655780578        5.15415672891240
h            2.93943607078761       -3.25443990976272        5.99929910600251
o            1.61348206410567        0.84579792592910       -3.47600505950636
h            1.71722668618067        0.34570644092631       -2.65102034504615
h            1.50114100562841        1.78306749387231       -3.22281681789643
o            3.99324749531823       -0.27610417178405        0.70240833413287
h            3.69174066579105       -1.20397078039919        0.66146956853077
h            4.57050219336243       -0.15992420306286       -0.07119322519501
o            3.31436165710309       -1.37561747727445       -3.18463799433887
h            3.48883507941619       -1.94457018318836       -3.94751929516099
h            2.42540404317826       -1.64004379084165       -2.85070091202026
o           -0.56080804056983       -4.94290057771209       -0.87374245223690
h           -0.52853789596395       -4.33249860604348       -0.09982702033814
h           -1.02654147816030       -4.47389692962524       -1.59850895439503
o            4.75627547682672        0.05645156626251        3.22317242666335
h            4.17997995649372       -0.34555701544009        3.88473297518575
h            4.44132779324663       -0.14997199778615        2.31508456811312
o            0.97478931866171       -2.26267253507585       -2.44739156203809
h            0.30044270382569       -1.83870753370989       -1.84059058643517
h            0.47823312463097       -2.43670439852964       -3.26773078102960
o            4.16564251532381       -5.15212927240054        2.70572946187056
h            4.46058246066004       -4.23685765651684        2.83573681830870
h            4.96330352301917       -5.68127713890783        2.73742537752978
o            0.34600443129892        3.38281629465221        3.11713222900178
h            0.35718803616136        2.40535670063829        3.17348812927298
h            1.18760234691774        3.71978678548929        3.43077804920233
o           -2.10652205946327        4.24193051204606        3.29352056383678
h           -1.14394696816778        4.10789652408133        3.39013967427304
h           -2.21720496189444        4.74494676497791        2.46858774227190
o            0.03825231045082        0.72858156440449        2.81796003685803
h            0.63492697719358        0.71120958271609        2.05704891785299
h            0.33996245195903        0.00548213939154        3.40335592824689
o            1.95037482024983       -3.39597005073207       -5.04544009809890
h            2.66861677421372       -3.95874320461944       -4.69848593998845
h            2.10591886941888       -3.36091212968422       -6.00436357743269
o           -2.43535854885446        1.67106870406328        2.59103299741144
h           -1.57270935758849        1.25099778383591        2.75721214959418
h           -2.41382749845203        2.56521724350646        2.98099866983183
o            5.45638707357238        0.10180156835512       -1.63939202160220
h            4.82805854286665        0.84311644667823       -1.74533654287256
h            6.35745135127453        0.44169298202122       -1.57161065069073
o            1.78393081759194       -0.69993515836199       -5.65220077670533
h            1.81415521708818       -0.06585944248985       -4.92164342408457
h            1.72204546303376       -1.58503734494469       -5.26600422143540
o           -3.88375080327691        0.53856453463351       -5.25657996491009
h           -3.84382722228120        1.48522695940489       -5.01154484574381
h           -3.59832318765809        0.02282730658215       -4.46456553679098
o           -7.06582053995412       -1.62707272764490       -0.10468945608705
h           -6.53898202143230       -1.97109969872706        0.64013746511017
h           -7.91992430511278       -2.08569179589590       -0.09799889640791
o           -3.23694736258547       -3.20120005650186       -0.16430726265604
h           -3.93015562237185       -3.85930140194513        0.01710227511327
h           -2.81873852768579       -3.48163428578439       -0.99501949768497
o           -6.72935062517072        0.99868420094476        0.14152810876958
h           -5.93727599645718        1.12942388471540       -0.40773733107159
h           -6.95972769089681        0.05381553570702        0.05317132246673
o           -0.93953328643303        4.35937920934953       -4.20708560757916
h           -1.68644546183649        4.45747778714806       -3.60546929529510
h           -1.17528332936080        4.89139435379059       -4.99126235572548
o            4.45729851326515        0.90282132953878       -4.23184150038209
h            3.90342121395214        1.69920304745268       -4.23414340156837
h            3.95604810196957        0.20991882672452       -3.76397156718974
o           -0.85578817970240       -3.57669243106515        1.35131746162895
h           -0.78929089427209       -4.41575528881945        1.83832605724533
h           -1.78836469698052       -3.32461277565229        1.31231882554680
o           -3.21977617237847       -1.11567941809053       -3.36162602281796
h           -3.97482109632774       -1.36834579154869       -2.80034060639284
h           -3.16352044969783       -1.82532952205115       -4.02465194670450
o           -2.20386374863209       -1.35595928349811        2.83632112695460
h           -1.88839373700025       -0.71560748800814        3.49609063044306
h           -3.05069504126526       -1.67252431262801        3.21366374514549
o           -5.05730413039802       -2.14075956198655       -1.74773586925003
h           -5.91625553680726       -1.94407541173454       -1.32729733055725
h           -4.43068749693383       -2.32850571816792       -1.01946894141655
o            6.78048803772642       -1.79202187964152       -7.66861381262838
h            6.17268912491587       -1.13648363416014       -7.28592939233268
h            7.59224792561341       -1.73819178143592       -7.14140050534179
o            4.14042104596376       -5.55967514868972       -0.56868739243887
h            4.31136344320446       -6.31516545409774       -1.15265975865974
h            3.36246549774045       -5.10586655139246       -0.95433662115944
o           -5.64561253931643       -4.57787118097845       -0.05237236144094
h           -6.20224822447386       -4.35636191932971       -0.82286568925713
h           -6.14473520730963       -4.21881035829109        0.70309419086899
o            3.99814876716357        7.38795381356712        4.10268465676486
h            4.79385210814057        7.10584721974042        3.61977437456812
h            3.40126772414018        7.67724489972798        3.39700129803644
o          -12.91671259322547        0.59083611878375       -2.33891360220241
h          -13.10523289183517       -0.20155949460005       -1.80554324308678
h          -12.74759759801515        1.29968003841949       -1.70911547713334
o           -4.20980241882716       -2.10673266354331        4.36043765305147
h           -4.16352293932080       -3.07241263215068        4.43399704492680
h           -4.02596574798271       -1.77322079358565        5.25201232133384
o            3.50430743688062        1.88033438334812       -1.31618842418796
h            3.77406013185402        2.19900512678294       -0.43050834275861
h            2.74049449964512        1.30024563496709       -1.15826353723963
o            5.67679546252380       -1.92544532666278        5.21044092289070
h            5.65918070165802       -1.14300177905560        5.80255295275627
h            6.13132934565330       -2.63950546341463        5.68110099012433
o            5.32674569809994       -2.70966090690548        2.68868747185125
h            6.25341076622706       -2.89493996391609        2.46677222464038
h            5.35658673153187       -2.31829479981547        3.57554193967188
o           -5.93630803634690       -7.04964443515473        0.90960241660958
h           -5.69879331088257       -6.20608674771725        0.45554624733566
h           -6.74582975864158       -7.34524874002944        0.48949386558636
o            0.32061176055482        5.59231384976149        1.32605139477305
h            0.47805903394729        6.51738627293610        1.08320098820359
h           -0.62926286181858        5.46258160289781        1.17943489527545
o            1.21200480865397       -1.64620985056966        1.21615029486911
h            1.97358964649605       -2.22343775691619        1.08462608587140
h            0.45173000798963       -2.24045556803708        1.29552449760503
o           -3.89289731712821       -0.21755928021558        0.94165353583626
h           -4.48226644584822       -0.97293869513355        1.15168813994998
h           -3.08730282676905       -0.40437147118368        1.44610192793513
o            4.97083113722086       -2.59990159528901       -1.54543354841940
h            4.38379180238454       -2.05602915774760       -2.11492482438361
h            5.25753000312177       -3.36635104117996       -2.08072286015666
o            3.68887558345691       -5.55349234186350       -7.10476192254086
h            3.14478741803585       -4.83978046517930       -7.46086834640276
h            4.60559825070635       -5.25365889008074       -7.22164535899722
o            3.26345267512649        3.33780642122831       -4.53292743664827
h            2.53907739093184        3.35895360366620       -3.87612184928502
h            3.66106471843722        4.23144532451870       -4.44414331348561
o           -2.27068243153270        1.73021311497597       -2.58380326478246
h           -1.81614455000369        1.04841633013087       -3.11904963932372
h           -3.09279277976003        1.31771315784670       -2.24088820049707
o           -5.91397967681836       -0.94481614164254       -6.09708757082998
h           -5.21619479455673       -0.36621140442401       -5.72092317032947
h           -5.58358345757129       -1.24596118790331       -6.94295123615347
o           11.05414297452902       -1.76356286668174       -4.46228613520211
h           11.25874876484621       -2.61037690141676       -4.03272514725575
h           10.25102185594004       -1.95454233786331       -4.99392474617849
o            8.20591882317901        0.65587109395016       -2.10442170755815
h            8.78459400799112        1.19201010210855       -1.53115859684385
h            7.69404679656918        1.30186517351668       -2.64258312192886
o            3.59141271449912       -2.89704332512078        0.62090533169439
h            4.24907678398306       -2.96475731383843        1.33294457063345
h            4.09891396161482       -2.92853748169913       -0.22742486900017
o           -8.76875402656100        0.26584620393545       -1.62631041611561
h           -9.44150425614485        0.13839844285982       -2.32026704393245
h           -9.23021744234732        0.13942760526419       -0.78687588889616
o           -5.01807844073736        8.46709956484714       -1.32065261727398
h           -4.10418079502594        8.46091534472088       -0.99553026583779
h           -5.56796172442098        8.49376061857370       -0.52828712818717
o           -3.44219315504331        3.06055534595081       -4.49719378406379
h           -2.86801025451430        2.65759170713625       -3.80355621811741
h           -4.20311504194733        3.40421911056667       -3.99259914827839
o            4.61321791679945       -2.78618986900524       -5.16809773241908
h            5.33060188334237       -2.38878743467532       -4.63513437026559
h            5.04434435250062       -3.42653879159583       -5.76746701061144
o           -0.69090233399998        2.25331866984390       -5.90298144213862
h           -0.87884436916359        2.97680017722138       -5.27177182550035
h            0.25046741906215        2.36290508347651       -6.14790806411511
o            7.59833164354915        4.93066185234777        4.37777698224267
h            8.45373173798753        5.27507875849375        4.63606085017990
h            7.17488647603488        4.58298410350416        5.20180967089154
o            5.03679018510143        2.63623703381759        3.52249778829300
h            4.91447348474972        1.66145027965553        3.40827101309066
h            4.78843987934257        2.99588582575061        2.64869848056175
o            2.23461608157911        3.64416954900445        7.05478048147835
h            1.31402749958847        3.83305597958057        6.81320284139111
h            2.68540419945629        4.49586711998674        7.07654551385904
o            8.45651697992943       -2.12437493250686       -2.50155624241290
h            7.64383926792688       -2.01946678373963       -3.03350511136020
h            8.62469195892637       -1.23223284997698       -2.16888941827707
o           -4.61582696205726        0.82882384340407        3.83488878011017
h           -4.69022156675493       -0.13021827591891        3.84217398043451
h           -3.82876125327856        1.06448525324009        3.29813071990886
o           -1.87289926483811        0.08993609955577        5.13564354343002
h           -2.52932330963675        0.79164824245338        5.32625923754514
h           -1.02003741756397        0.54721054993125        5.23921946412081
o           -7.50706791661642       -3.89017651938085       -1.92933638780186
h           -7.67333087459088       -4.55591115401616       -2.62960348603324
h           -8.27901635899720       -3.89074234792820       -1.35412438606836
o          -11.77200893732745        2.09754943909565       -0.08638949538510
h          -11.30392747875490        2.48602017505452       -0.84952223098384
h          -11.49245191726397        2.64394949080229        0.67414444745472
o            6.05312313440897       -6.49776871375596        5.07494648386112
h            6.56131821236022       -7.25301259608661        5.36908311867249
h            6.37252749107586       -6.29167931637664        4.15674485124967
o           -6.19642939271367        2.12835196013752       -4.53535961242291
h           -6.22893137389803        1.29755569481662       -4.01994143104139
h           -6.08791262468138        1.88963604228535       -5.46509702246421
o           -6.01201671742296        2.51417121614238       -7.29600507999818
h           -6.32218118794682        3.37471382710386       -6.97130726262253
h           -5.06563770582508        2.65220887803605       -7.46139681805375
o           -0.00749855160406       -1.63316979067953        6.87238557280012
h           -0.72033897816881       -2.27053511804617        7.03238649565593
h           -0.20479576679966       -0.79882004098779        7.36516522778163
o           -6.59058881524460       -1.11034417248555        3.78593774585192
h           -7.43024189944414       -1.05733217590370        3.29102891336814
h           -6.63843904100531       -1.91156874035043        4.34103446605136
o           -9.65316526570746        0.85453477591857        2.65415316725560
h           -9.43774845009363        1.43815623967196        1.89260208401011
h           -9.42971960703837       -0.04221419368324        2.36928211808485
o            5.10686293780024        3.83643486316683       -2.23680564437558
h            4.37798764162331        3.22252055802379       -2.05195994132528
h            5.62151607495224        3.92178328354832       -1.42349097223244
o           -2.87639829943599       -5.89038573230751        0.34470567261901
h           -3.27725263414608       -6.50525830006141       -0.31004446363500
h           -1.99873822166301       -5.66598492272661       -0.00435419219579
o           -7.67480860675356        2.64749605727332       -2.25052682110282
h           -7.87320969714664        2.47362120270464       -3.19176162427794
h           -8.09700831138337        1.88671120375664       -1.79731510125055
o           -2.91466651668600       -0.89981855421750       -7.26801004129561
h           -2.38426343869484       -0.27780485352630       -7.80662407842410
h           -3.23120751181785       -0.33485205353347       -6.52971867469177
o           -0.83478481825130       -2.65074570557155       -7.21353378224951
h           -0.14410791372993       -2.19482910506996       -7.70364978997790
h           -1.62165583054768       -2.07560788863138       -7.29105190045747
o           -0.86012028310053        0.23367493162042       -4.25029823766989
h           -0.93496058005700        0.87306596999943       -4.98923274271382
h            0.05259972051980        0.36031083527131       -3.92041823577532
o            1.83311584902906        3.87466104712008       -0.00462284657135
h            1.91260631065412        3.03559144756661        0.49309984125142
h            1.15489705865201        4.42655967761685        0.44884858145694
o            0.91893032284442       -1.17578596781387        4.41634810386413
h            1.03129158951985       -2.02019147657271        3.93301129850698
h            0.42568818750578       -1.36850977703366        5.23594176392484
o           -4.49037902809560        0.86051954826344       -1.42941018818351
h           -5.07043848697945        0.36850197691153       -2.04263765609014
h           -4.19834067059031        0.27026080442613       -0.71266433788097
o           -0.72858843320354       -2.38582713514984       -4.50945056142652
h           -0.67073829727077       -2.57486282041177       -5.46157747199108
h           -0.92327281834157       -1.42977057664993       -4.43042904675756
o           -2.40344874971512        5.57041231419357        0.86591619956287
h           -2.80269356567412        4.89758527911653        0.28078633194933
h           -3.13370138956428        6.00167614548219        1.35584978650842
o            0.11019144767701        1.80206289310997        5.61136431529402
h            0.92090693026088        1.72827403885575        5.07013319410791
h           -0.11963425400091        2.74585860634711        5.65902136127262
o           -3.79791682814066       -4.37542967346061        2.49488110403245
h           -3.44001641744551       -4.88577226611260        1.75363651830268
h           -4.53095420023141       -4.90189003451681        2.85709592232707
o          -10.63617824900635        3.16883679330451       -2.27796706895695
h          -10.33467295377928        4.07745015360606       -2.22216530923413
h          -10.15552955839970        2.76057012228256       -3.00770158455453
o           -6.41156308435413        4.63066030058118       -5.53995607471889
h           -5.60537450044967        5.16379900141772       -5.41262564343254
h           -6.29034107050066        3.83157748061736       -4.99915580519292
o          -13.19048330552586       -1.59646588298447       -0.68037863627633
h          -13.25513173642774       -0.95974542225757        0.07903159276744
h          -13.96974602442793       -2.14751225635996       -0.62450269866065
o           -7.47096252406611       -4.03243138288282        1.89870176044408
h           -6.95730653312141       -4.38025557541285        2.64149514653008
h           -8.10652703520036       -4.73844894638080        1.69393684294170
o            4.12053580530882        5.79391307475793       -3.95419422184146
h            4.02252011200236        5.65653114470383       -2.99332851248757
h            5.06023469182639        5.66390112081971       -4.15597910722033
o            3.41078388055761        5.20610937669236        1.86634370854633
h            3.09778125469678        6.12698729295630        1.79495811326908
h            2.91703987346536        4.68895197957256        1.20784794453929
o            1.81912937022632        2.63272349134363       -6.66853158831315
h            2.39916395241275        2.85404904500978       -5.91319708699080
h            2.30510813703860        2.02296233981569       -7.25245494563861
o           -1.19193851901551        0.89485377147794       -8.20603971006787
h           -1.00232828800705        1.41433267738246       -7.40667724853001
h           -0.40175639402640        0.34810731440363       -8.34793648590297
o           10.78040852512520       -3.82034883225952       -2.69871611672105
h           11.30247471658940       -3.62000291924683       -1.91457530587121
h            9.96250182740812       -3.30375688128721       -2.61359242351852
o           10.87716381494886       -0.54717944563405       -2.02366575145015
h           10.96050633271642       -0.97533032731195       -2.89895348874342
h           11.40668315312120        0.27821335158797       -2.07195580046999
o           -1.35213142565313        7.20557876158745        3.29128929114384
h           -0.56341394922815        6.80265908946939        3.68579991104213
h           -1.04984989759798        7.72047707211667        2.54193771076632
o            6.68812469709522        0.94305764130606        0.79439829039804
h            7.36912714961382        0.99325028464905        1.47991277309812
h            6.64046379571720       -0.00062631054182        0.55054984222170
o            8.02141361059693       -2.75455492674025        2.46439529876076
h            8.29804680243154       -3.06957868211357        3.34622390494712
h            8.73903228991819       -3.01624818396150        1.85031713903321
o            4.70345893522705        2.77925860154836        0.90336040778866
h            5.09105834296669        3.62881584012887        0.64555552690739
h            5.40201777281689        2.09763336038770        0.86864652980955
o           -6.41965098780366       -0.03583434937515       -3.00227469915755
h           -7.19389419807143        0.05562989683868       -2.42307167639475
h           -6.60861472867205       -0.83329014568991       -3.53905149745722
o           -9.55819173861922       -2.73458208019373       -0.09382785569502
h          -10.07843202975265       -2.81949571571551       -0.91897992723988
h           -9.82625755834891       -1.85119433165144        0.22373428374279
o           -5.29884476388886       -2.27687847465791        1.76760921090664
h           -4.67907073558979       -2.99275711584076        2.02125648177362
h           -5.64645932583811       -1.88381346662550        2.59322141580875
o            1.49253540792717        6.35454722804392       -4.60639993093200
h            1.18560700060280        6.38650158817911       -3.68542493517723
h            2.45682864996244        6.31013411496445       -4.55159165861646
o           -2.99860799059819        0.86936411874286        8.41226305013482
h           -3.28237730237066       -0.02427101004820        8.17862561211100
h           -3.28784762176315        1.41700446273443        7.65918893670273
o            7.54749989116530        2.16304259141943        4.20175144827392
h            6.64315546456737        2.47196620865802        3.97705924512026
h            7.63565684048644        1.28976483413941        3.77657300282041
o            2.19661933750413        1.61375446228036        1.42344940263674
h            2.36721840957641        1.71628633826790        2.37428999932050
h            2.81429347819817        0.93282187975576        1.10683015171159
o            9.41428737337019       -0.72928014803934        0.30115599255967
h            9.82843083914685       -0.60585022799108       -0.56592711099488
h            8.53754529151176       -1.13115785035429        0.15381837112898
o            9.06713212457785        3.21792025835087       -4.56008212252917
h            9.41428386417015        2.32728062148177       -4.74505077106823
h            8.16759593873429        3.04479172171294       -4.21625959492798
o            6.34227063468272       -1.26084405922237       -3.84653749852931
h            5.89291286857280       -0.83270528094385       -3.09188953764375
h            6.47535939253514       -0.55934004450582       -4.51995363155208
o          -10.61124681401946       -0.31417228115225        0.35750764843170
h          -10.98699142985930        0.56775149632569        0.16493021289823
h          -11.12907513077703       -0.65145054206057        1.11149550307872
o          -11.05171885575418        3.75852776249499        1.98285215423669
h          -10.26710261044837        3.58166694400357        2.54058333439207
h          -10.75837406656980        4.44069271130572        1.36686308978652
o           -5.98643964299547        7.57401468490509        1.17273978159672
h           -5.23308392688981        7.59244446449550        1.78233800093995
h           -6.56244180195574        6.87672423559796        1.53863702954999
o           -3.23332251152174        3.49461497097968       -0.76471549875210
h           -2.61464827792039        2.90842260146502       -1.21873663942895
h           -3.95438241542378        3.65300810368462       -1.40443718050046
o            7.07161573521618        0.47491296923900       -5.71813509658833
h            7.99498206274921        0.66067952080398       -5.49395877478663
h            6.65498498936980        1.31449423044513       -5.97912384637453
o           -7.10862801348219        5.27645642416608        2.11983819262784
h           -7.00121353094771        4.73716533209966        1.30818708243002
h           -6.32710329129017        5.00867327851018        2.65509333616836
o           -0.77879270964601        7.81117950460192       -5.42818115908956
h           -1.27849618058504        7.17456667036456       -5.95358256194386
h            0.10861316012299        7.43441689885660       -5.32932120346105
o            8.65528623448818       -2.16723476613025       -5.61239052159912
h            8.12749637725460       -1.54756275912172       -5.09886123854287
h            8.37530490796381       -3.06151808656137       -5.31876640654041
o           -8.00282996412115        0.65366272385534       -6.46303391897866
h           -7.29391536339186        0.00459862407350       -6.24473926893150
h           -7.56715224124193        1.30366953184913       -7.02829174873563
o           -0.40055194473804        0.68755263481102        7.99409889123073
h           -1.33652378020137        0.81060307599477        8.28581778126603
h           -0.30604434250607        1.20789285113549        7.17161249423911
o           -4.75554610789434       -4.50072094103652       -2.99684452956138
h           -4.95733639537296       -3.66462193790698       -2.51666728171111
h           -5.19196226710506       -4.37829440109467       -3.87374120590586
o           -2.13011857147369       -3.73727494236686       -2.60961877298728
h           -1.62401023372919       -3.30550970182446       -3.32366504834002
h           -2.96656010947141       -4.04576483204602       -2.98867861831903
o           -9.06021236271996        2.30718076554650        0.51151313414326
h           -8.17471002917462        1.95457344606054        0.33018694006642
h           -9.03805236237631        3.27091265643454        0.43242516508107
o           -6.11756291413073       -6.73412971582747       -2.24607071281640
h           -5.64833203196409       -5.88334010176108       -2.37242714329331
h           -6.83448723951631       -6.58075553565668       -1.61061000397257
o           10.67108548486798        0.51596673023020        4.06001179022384
h           10.69975992250792        1.39109185463846        4.47608785262147
h           10.10257429121298       -0.04321514089054        4.63376829469233
o           -3.29588633841742        3.19647768914041       -7.19526275594461
h           -3.31142274637595        3.10786198736159       -6.22024669430389
h           -2.71225870086464        2.51291600075900       -7.53346255156757
o            6.73011148350001        2.28379360661632       -3.51718270558596
h            6.17264485842036        2.96721156461084       -3.07083268289714
h            6.08566880928943        1.70872636546926       -3.96552447209045
o          -13.58268271783851        0.35444782711544        1.05330813837735
h          -13.25279260474489        0.33913271973616        1.96339408214205
h          -13.12193158998559        1.09389781011161        0.62920511472414
o            2.76271173868362        4.38624891675657        4.19473435902472
h            3.12350800560984        4.69057850732172        3.31482994495997
h            3.33171374669363        4.76171602882209        4.89002969281755
o            2.31002005668297        0.86618388153827        7.83547777594758
h            2.37395633915156        1.82418821345733        7.73464989080191
h            1.38172324290772        0.70290496808673        8.06625542783647
o           -3.26258535720690       -1.42140159082656        6.84677690137599
h           -2.64230831755417       -0.89984800131477        6.28287029929362
h           -2.83517352426089       -2.26732882814412        7.02703092425268
o            2.06742383429065       -3.16622876794635        7.42541619929152
h            1.62993276187980       -4.02533313524141        7.33115640033691
h            1.35416601606436       -2.51041910259078        7.25924535210853
o            1.26278026894310        3.39071804161938       -2.76940734676257
h            1.28219379394179        3.54655648136109       -1.81079531929967
h            0.45720830548159        3.80954847296137       -3.11866361235955
o            4.51826724620847        2.46374197102140        6.11997434110665
h            4.60530003933400        2.60001560357793        5.15556041928237
h            3.66856089434147        2.83730195526345        6.40470691659034
o           -1.12415223580437       -8.26217359225956        0.40636746629845
h           -1.29492057846081       -8.14955628330811       -0.54354290857164