612
 energy: -1033.467120018612 gnorm: 0.000305973541 xtb: 6.5.1 (579679a)
H           -1.33065862780000        0.05396087810000       -1.55424240670000
C           -0.49946185530000        0.14041605610000       -0.85788755220000
H            0.16439320730000       -0.71643471170000       -0.96641733230000
C           -0.99603437690000        0.19836685350000        0.57356733170000
H           -0.21806364760000        0.66078600780000        1.17462542480000
H           -1.19754000340000       -0.80481093470000        0.93241594130000
O            0.22532243200000        1.32918741220000       -1.14532797310000
H            0.48561258360000        1.30400928320000       -2.09315377160000
N           -2.23093864740000        0.98156502690000        0.69693621960000
H           -2.95917879640000        0.57538142470000        0.05611183220000
H           -2.04597264370000        1.96710883320000        0.43440304320000
H           -2.56083493200000        0.92817127200000        1.68645363770000
O            2.79543678020000        5.23775738990000        1.10345098130000
H            2.49982314590000        6.13098960820000        0.83688757650000
H            3.44070678600000        4.96137410710000        0.43206239120000
O            3.49994834830000        2.30562759170000       -3.76411750350000
H            2.57729552710000        1.99324431930000       -3.70542697120000
H            3.40348808080000        3.23477948390000       -4.03972681550000
O            5.91019845180000        4.69469911040000        0.73883118200000
H            6.28795125400000        4.71169119360000        1.63983935910000
H            5.39504814730000        3.87097378900000        0.67467992390000
O            1.22975072710000        3.07214593550000        1.26167454280000
H            1.64248139520000        2.67376916980000        2.04878849600000
H            1.59940442670000        3.97587220690000        1.24212759410000
O           -6.99671661340000        3.78360112360000        0.03023853450000
H           -6.56339029550000        3.47344520830000        0.85354237760000
H           -6.44279442620000        4.47631675410000       -0.36240559410000
O           -4.03383238850000       -4.27388933730000       -5.60920229030000
H           -4.56118414540000       -3.83839362810000       -6.28255781760000
H           -3.09593538570000       -4.00589639450000       -5.73561273550000
O            3.23346580200000        0.23032877680000        2.87096057100000
H            2.94340376760000        0.23850339330000        1.94478462120000
H            2.83079090550000        1.03485845850000        3.25401809660000
O            4.93963676020000        7.15188195560000        0.20998442690000
H            5.22382785210000        6.21896382090000        0.33682302100000
H            5.65505549570000        7.58771385170000       -0.25060211920000
O            1.02066399490000       -1.36581479570000        1.82361957090000
H            1.90407727490000       -1.75887873190000        1.93958049440000
H            0.55893275020000       -1.93190871320000        1.19233412730000
O           -4.27187472390000       -2.93202012550000       -3.29230643950000
H           -4.63472819870000       -3.55169429990000       -2.62609154710000
H           -4.26667956160000       -3.44395493620000       -4.12287912530000
O            1.67456955300000        3.63059365130000       -1.39731718940000
H            1.48874806980000        2.97751600580000       -2.07904711100000
H            1.51487217850000        3.23473206150000       -0.52391582170000
O            5.75185934290000        2.83486739500000       -2.29182643480000
H            6.63782082080000        3.01058865830000       -2.65616123310000
H            5.15279455400000        2.61303871850000       -3.01695930910000
O           -6.06985716540000        0.17724906450000        0.75410414970000
H           -5.39723421360000        0.77882693760000        0.39624038880000
H           -5.98898970400000       -0.66828025380000        0.27028627960000
O            1.85809301220000        2.25500528190000        3.74219626280000
H            2.10640934560000        2.71871406910000        4.56701688120000
H            1.08661245380000        1.69574819170000        3.94390870040000
O            3.10347635520000        4.69760736710000        3.68044162560000
H            3.65992194740000        5.33126463240000        4.14988331430000
H            3.02716359240000        4.99616399470000        2.75005399280000
O            4.97633057170000       -1.05349032750000        0.30241068900000
H            4.77962542570000       -0.35503156240000       -0.34890423190000
H            5.58273622400000       -0.65455316320000        0.96910429420000
O           -4.05895568570000       -3.80343405870000        5.44998099300000
H           -3.11463400270000       -3.99766925560000        5.53089034710000
H           -4.26146426720000       -3.15608276190000        6.13662327300000
O           -0.37358126390000       -2.95231812560000        0.03598025770000
H            0.16328440540000       -3.36527777770000       -0.67231460940000
H           -0.70609234880000       -3.68788203050000        0.56207908400000
O           -0.00863325050000        0.32951527900000        3.68935984680000
H           -0.85856784160000        0.68452826480000        3.41161887370000
H            0.31547076710000       -0.28474928710000        2.99975792590000
O            1.22025800110000        1.21251178490000        7.40277963580000
H            1.96180920720000        0.58280884360000        7.42744671220000
H            0.46810261240000        0.64560995960000        7.14818452260000
O            7.10415888550000        1.82458301270000        4.76637299840000
H            6.59035767760000        1.91871832480000        3.95148175180000
H            8.03710807470000        1.73584844970000        4.49437863080000
O           -3.31500800470000        3.76322146590000        1.79509350210000
H           -2.44509370340000        3.43864035570000        2.14197601210000
H           -3.12181754250000        4.43629001000000        1.11292360920000
O           -5.60735771010000        0.78771877970000        3.27681018910000
H           -5.84695767290000        0.41054327910000        2.40367224160000
H           -5.94955191120000        0.17039405120000        3.95336379430000
O           -2.04074444290000       -2.20901592540000       -1.88947862130000
H           -2.45914148050000       -3.06563185170000       -2.07359096380000
H           -1.49137302970000       -2.37834064580000       -1.09537213850000
O            2.56705564750000       -1.96889511710000       -0.83657434070000
H            3.51562674770000       -1.99261315940000       -0.98667596810000
H            2.33538010030000       -2.84849407130000       -0.49602790670000
O            9.35879380080000        2.30728574560000       -0.07017438170000
H            9.62757767430000        3.23129261810000        0.04608232920000
H            9.61274285770000        2.03278555000000       -0.95985061020000
O           -3.00244363650000        0.68338987070000        3.28073759740000
H           -3.98803740320000        0.72236966840000        3.23412543230000
H           -2.83190125940000       -0.13559335220000        3.81250162320000
O            4.26971222520000        0.32807312340000       -1.87072092790000
H            4.68017754760000       -0.25241260850000       -2.52679935980000
H            3.93317192320000        1.09102798400000       -2.34915980340000
O           -0.35641381760000       -0.60033752040000        6.19174279930000
H           -0.09545236100000       -0.28023904460000        5.30097162240000
H            0.11540414650000       -1.43530330570000        6.34593561230000
O           -2.65365173230000       -1.24996277920000        4.99186500890000
H           -1.87688904120000       -0.99769607430000        5.52737035690000
H           -3.40357511040000       -1.27576208560000        5.60482624400000
O           -0.78867560970000       -1.69487623510000       -7.69769252640000
H            0.04918682550000       -1.70727472390000       -7.16005066880000
H           -0.54535650620000       -1.93291985500000       -8.59082722950000
O            3.91353537800000        6.66837352860000       -2.87961536770000
H            4.02139332390000        5.98535912680000       -2.16645468060000
H            3.06079838040000        7.07961018040000       -2.71220196940000
O            0.35243193500000        1.49363753220000       -7.72730633970000
H           -0.51533627830000        1.60010383500000       -8.12255139100000
H            0.62850497130000        2.35833481940000       -7.38189784350000
O            5.34110358190000       -1.60632287630000       -3.41531296510000
H            5.86188373910000       -1.89169308240000       -4.18378195560000
H            5.75199106550000       -2.05626684770000       -2.64044808320000
O           -1.98032288440000       -4.63308567260000        2.76073118680000
H           -2.08771338480000       -3.67728824780000        2.54883569770000
H           -1.79024044470000       -4.69643918910000        3.69946113630000
O          -10.77262523790000       -2.56955571140000       -1.32642560990000
H          -10.11695148510000       -2.23876293560000       -0.67780172770000
H          -10.96567761900000       -3.46653098920000       -1.04337171160000
O           -6.95323374940000       -3.14019105180000        1.77705628220000
H           -7.15250465600000       -4.09357051020000        1.71271581090000
H           -7.55206900610000       -2.69275868050000        1.14561492830000
O           -2.50550418710000       -2.07230294690000        2.14469931100000
H           -3.29390808000000       -1.93154299600000        2.71546581900000
H           -2.90518159050000       -2.35513004040000        1.29801294470000
O            0.86997029020000        2.04939463330000       -3.62782322090000
H            0.49416862870000        2.92302264030000       -3.86434354840000
H            0.51549076910000        1.38091126460000       -4.24736005240000
O           -1.42286608810000        6.70472483810000       -1.97636092290000
H           -2.01655276680000        6.19714730700000       -1.39051170090000
H           -1.81920492550000        6.67378033170000       -2.86038295430000
O           -8.20000748260000       -0.48787107680000        2.63638631570000
H           -7.40918446440000       -1.01088625070000        2.78298316710000
H           -8.87150053100000       -0.79116534640000        3.27548391890000
O            9.03448034610000       -1.09083031320000        4.95737707480000
H            9.51406690880000       -0.25742790550000        4.87274518540000
H            8.25185331160000       -0.87684053860000        5.50413065720000
O           -2.52715249920000       -4.81512180340000       -1.40228764670000
H           -3.03390104100000       -5.63492821360000       -1.27617437330000
H           -1.67530594210000       -5.02388654820000       -0.96865396800000
O            2.47295763050000        0.59337890840000        0.28413752510000
H            1.68096530390000        0.98994021130000       -0.10407563000000
H            2.54979523970000       -0.28863419920000       -0.11261994970000
O            4.53246682150000        2.29986610430000        0.70583833150000
H            5.29741178580000        1.81202841080000        0.35968587970000
H            3.75378178230000        1.75737720260000        0.48276883350000
O            0.64077543770000       -6.04381943880000        5.06303935200000
H            0.63839311960000       -6.54154148630000        4.22791381470000
H            1.45221461250000       -5.52056021290000        5.06389827690000
O           -6.12694582280000       -5.23967081090000        4.34178066090000
H           -5.63145483560000       -5.11823668250000        3.50796120060000
H           -5.47273783190000       -5.03051984270000        5.02026706040000
O            1.82451193360000       -6.50974450590000       -4.53691229650000
H            0.89679394030000       -6.23387987420000       -4.42836339630000
H            2.25612248370000       -5.81039356370000       -5.06501938870000
O            1.70907553280000        3.75206755300000       -6.73088984550000
H            2.04804207800000        4.18434322940000       -5.92786076650000
H            2.39611954090000        3.11037503160000       -6.96560206630000
O            4.10812006900000        4.63802163700000       -1.23878021740000
H            3.25355208470000        4.19013720550000       -1.39039532050000
H            4.79424724930000        4.00786212890000       -1.53903259900000
O            2.94600321940000       -2.78276566880000       -3.62613727420000
H            3.11373969430000       -3.35218230760000       -2.85939922460000
H            3.75511234780000       -2.23699470370000       -3.67953806540000
O           -1.97520965690000        1.38669213260000       -3.61435149620000
H           -1.97663482120000        0.42223731890000       -3.78725019200000
H           -1.78419535760000        1.79525596760000       -4.48397301350000
O           -1.50564286830000       -3.50406303510000       -5.72218150690000
H           -1.36624614830000       -2.97001629530000       -6.51939538620000
H           -1.16948142530000       -2.95522419010000       -4.98658453970000
O            4.00787792250000        7.74323982860000        2.77761777470000
H            4.33414368070000        7.57129775630000        1.87976223150000
H            3.03748554410000        7.62467124870000        2.75200413180000
O           -2.60908468200000        6.03613151500000       -4.38346691500000
H           -2.10688002030000        5.96258014760000       -5.20346411760000
H           -2.66849746200000        5.13932545030000       -4.01452313660000
O            6.52833327260000       -0.15546644640000        2.22929072740000
H            7.40604475880000       -0.59333537660000        2.16141532630000
H            6.71112419930000        0.80094282060000        2.12734321410000
O           -0.36909339040000        2.73581373560000        5.46298457730000
H           -1.30079763730000        2.51744808940000        5.66655720660000
H            0.16703113680000        2.34620392670000        6.16172926980000
O            5.43847409710000        3.57420016730000        6.16056780690000
H            5.37523296790000        4.45806716690000        5.78813532470000
H            6.17191292320000        3.13451467070000        5.69620588650000
O            1.70024907120000       -0.33328468130000       -2.95666329450000
H            2.17531992520000       -0.87237023790000       -2.30629719430000
H            1.00715612760000       -0.91038111300000       -3.32125722530000
O           -0.02540271180000        0.24660721490000       -5.35384690790000
H            0.05321839780000        0.59691199640000       -6.25821283540000
H           -0.80274659440000       -0.31731068540000       -5.30069742350000
O           -2.36386382620000        3.88919956050000       -2.63552025020000
H           -2.26935096950000        2.97051696620000       -2.93464915190000
H           -2.09233937000000        3.86235171940000       -1.68761506800000
O           -0.37257868770000       -5.68795010360000       -0.05905438790000
H           -0.32486582520000       -6.58165669460000       -0.42865233010000
H            0.54676974230000       -5.37457952450000        0.00832626090000
O            4.91215829730000       -4.19904172050000        0.78797854920000
H            5.78898421350000       -3.78119992130000        0.90488261930000
H            4.27474668860000       -3.59964275550000        1.23695582060000
O            3.37155549310000       -6.78672711780000        1.11325631640000
H            3.95343677880000       -6.97477226110000        0.35537833180000
H            3.97122804150000       -6.62946320960000        1.85781299860000
O           -6.61665883470000        5.69021088430000        3.21258069310000
H           -6.34809184210000        4.77427325520000        2.98229212540000
H           -6.68895431620000        5.69918938430000        4.16906820550000
O            9.72151612410000        1.57589291050000        4.03877029600000
H            9.76975900870000        2.53263301140000        3.89347127710000
H           10.08963087960000        1.20310187940000        3.21949231610000
O            9.77556039850000        5.01322968510000        0.37149007760000
H            8.98741090080000        5.17577456060000       -0.20885500430000
H           10.48502601540000        5.55955271880000        0.03671924620000
O            9.21097324040000        4.05061552720000        2.95061237950000
H            9.49039876750000        4.48016060410000        2.12985022010000
H            8.36204646200000        4.45380231720000        3.20047721540000
O           -3.82071488910000       -0.31761828600000       -1.04550184270000
H           -3.29430064050000       -1.07325302300000       -1.36017662670000
H           -4.06990157650000        0.21150343080000       -1.82173145440000
O            5.77612142920000        3.53491856650000       -5.21099024950000
H            5.99727911570000        4.27930409180000       -4.59856726050000
H            5.26336013170000        3.91778133350000       -5.92154737300000
O           -5.37642994650000        1.59256853870000        6.55046302560000
H           -5.71216818850000        0.85015023330000        6.03968717590000
H           -4.45032271740000        1.73998673360000        6.27334901750000
O           -8.35111286770000       -0.44209244550000       -1.91469663930000
H           -7.73998038100000       -0.88384159920000       -2.51710606830000
H           -7.90338971140000        0.38941547010000       -1.65275770630000
O           -8.20244321370000       -0.69603006900000       -5.02067638050000
H           -7.36933482510000       -0.77531221150000       -4.51393573220000
H           -8.54258898490000        0.18264673370000       -4.81835849740000
O            7.63851132250000       -6.21189896600000        1.27083078500000
H            8.36361026840000       -5.66655849770000        1.61133770400000
H            6.91762712610000       -6.17109235400000        1.92123435220000
O            8.56254169800000       -2.19151613040000       -3.53430860880000
H            8.18489976310000       -1.32233455080000       -3.26089161200000
H            8.02377760240000       -2.49570870430000       -4.27742386980000
O           -2.96544309630000        2.20362399750000        5.48101224560000
H           -2.92491644460000        1.67327515160000        4.65491935400000
H           -3.27408333150000        3.09153195900000        5.20345894590000
O           -0.32527571110000        5.41912884110000        1.16255008330000
H           -0.84721921880000        5.40136762130000        1.98233613850000
H           -0.45480552330000        6.30641480580000        0.77691120220000
O           -8.77125199250000        4.90591143940000        1.75288618560000
H           -8.26499021900000        4.54588604170000        0.99621191680000
H           -8.14916282010000        5.46191072970000        2.24844015870000
O           -1.04929563220000        2.81435916370000        2.68675000790000
H           -0.77619724240000        2.93918301830000        3.60490691810000
H           -0.26572820680000        3.00954407620000        2.13278881850000
O            1.34516069450000        7.13466758510000        2.87764447730000
H            0.97718573260000        6.50379091410000        2.24465862280000
H            1.09874324720000        6.80784614130000        3.74817131950000
O           -0.38152888140000       -2.43352054370000        3.87804909860000
H           -1.11824913830000       -2.06971741760000        3.36623879230000
H           -0.76785697280000       -2.97983389580000        4.58614897760000
O            7.20679554080000       -3.21540149800000        1.55600610970000
H            7.86368098850000       -2.53684365810000        1.36251965680000
H            7.35325614400000       -3.43555430460000        2.48629755670000
O           -2.42745459620000        0.51018030230000       -7.57510963510000
H           -1.81721114230000       -0.24515916880000       -7.64259366830000
H           -3.24167347470000        0.13590616560000       -7.19351624110000
O           -8.88980100330000        2.63731474290000        3.21801679850000
H           -9.84554883820000        2.45462326750000        3.18339624440000
H           -8.80147313520000        3.51691588740000        2.79166775150000
O            3.08303941520000       -0.24905230990000       -5.17559081930000
H            2.90060255470000        0.54509396860000       -5.70366766520000
H            2.57862892440000       -0.19597817280000       -4.31988379820000
O           -0.79739722810000        4.96737304170000       -6.36157658020000
H           -1.21407945420000        4.08026028870000       -6.36908257870000
H            0.06521677200000        4.84871681640000       -6.77664069140000
O            6.93076712630000       -0.24858928330000        6.42543880300000
H            7.20153149050000        0.16186983690000        7.24650826450000
H            6.77612821060000        0.48917246360000        5.78624678870000
O            5.23149983220000       -2.37913770770000        7.16504399600000
H            5.89204135470000       -1.70804295960000        6.93886205170000
H            4.38536544100000       -1.89303627770000        7.17789135970000
O            2.75148665630000       -4.27109530310000       -5.75924527300000
H            1.99649507300000       -3.82843060470000       -6.16907834560000
H            2.85899671320000       -3.78831307510000       -4.89467563890000
O            6.34886962660000        5.56941499580000       -3.62859501660000
H            5.59689468950000        6.14703979050000       -3.45485980640000
H            6.84976395180000        5.49696087950000       -2.79879172530000
O            4.08412182590000       -4.31583085460000       -1.76003874440000
H            4.43490728490000       -4.26270978090000       -0.84644414150000
H            3.57545508880000       -5.14186606440000       -1.79648074530000
O            5.11330801630000       -1.43954074310000        4.02049660540000
H            5.66119876090000       -0.96654024480000        3.35482282080000
H            4.81048697220000       -0.74350382130000        4.61662359470000
O            0.33322606190000       -7.96427678860000       -1.40563376980000
H            1.15541961210000       -7.48515620060000       -1.64585934750000
H            0.58924386170000       -8.71905228470000       -0.87717099640000
O            2.11735650800000       -1.50328715830000        4.50934490180000
H            1.21296181810000       -1.67352882210000        4.19770519510000
H            2.53574904930000       -0.87283558190000        3.86656235720000
O            8.52619535230000       -0.92678642210000       -0.77843609670000
H            9.07999404830000       -1.52371793480000       -0.24634130870000
H            9.14634059660000       -0.38005159450000       -1.29771622700000
O           -6.48011928780000        3.61562429950000        5.14368280350000
H           -6.17812300270000        2.94601148850000        5.79335769070000
H           -7.23964544760000        3.22604106640000        4.69985275550000
O           -4.65414572740000       -1.44075402220000        6.85939692840000
H           -4.62586135360000       -0.79803330070000        7.57000536090000
H           -5.44466934850000       -1.21947984500000        6.32149458160000
O          -10.40134805260000        1.21618790010000       -2.72844875480000
H           -9.71363594540000        0.54886547760000       -2.57027026650000
H          -11.20314426920000        0.83760714680000       -2.31257040090000
O           -0.07688944800000       -2.23896949540000       -3.70852998470000
H           -0.83539416610000       -2.09661531650000       -3.10306013250000
H            0.48403885570000       -2.89643337470000       -3.25300759130000
O            4.98682522990000        6.40829197420000        4.75935661720000
H            5.03723823860000        6.98711667590000        5.51907565750000
H            4.67031913680000        6.98292844140000        3.99956067760000
O           -8.55995208000000        5.40759342030000       -1.71536665080000
H           -9.32990579360000        5.97310745980000       -1.76514077030000
H           -8.89495953220000        4.52026028800000       -1.42226805390000
O           -3.90370909460000       -3.18888012870000        0.22720565110000
H           -3.50866058230000       -3.80454969080000       -0.42360423580000
H           -4.67374415160000       -2.75144899070000       -0.18789257040000
O           -7.75544302920000        1.99808932350000       -4.12819969640000
H           -7.45774096550000        1.85040716310000       -3.20525867070000
H           -7.88046810770000        2.95268688280000       -4.18635609160000
O            0.63461634150000        5.15905569010000        4.76843639330000
H            1.51780505120000        4.90551909450000        4.43439311190000
H            0.32224389110000        4.36008389080000        5.22567244600000
O            5.35701728870000       -5.81266416120000        2.84194769970000
H            5.18764896910000       -5.17846822960000        2.10610834240000
H            5.40643734220000       -5.29069395110000        3.65001095880000
O            6.47506914200000       -2.57826467170000       -1.23585939290000
H            5.91011845530000       -2.11558455090000       -0.57585240850000
H            7.31326085840000       -2.07965934500000       -1.20782887610000
O           -7.66277692820000       -3.04436320880000        4.33484531930000
H           -7.22555898050000       -3.87826452310000        4.59439138250000
H           -7.50027747350000       -3.01833602480000        3.36301308500000
O           -0.53811764370000        7.97644710050000        0.30297078990000
H            0.41152823460000        8.15606360940000        0.36630974430000
H           -0.75143910890000        7.84409312230000       -0.63200126370000
O           -7.87161351390000       -3.88071806940000       -1.32237126190000
H           -8.35458568960000       -3.50759272650000       -2.07627050740000
H           -8.54548314820000       -4.10390867330000       -0.64648673330000
O          -10.82621161900000        0.16732177750000        1.11610482620000
H           -9.94337635430000        0.54461980870000        0.90567937430000
H          -11.21423810880000        0.79949110520000        1.74329940480000
O          -11.06843940850000       -2.36685695350000        1.95675255490000
H          -11.99740919820000       -2.55459202710000        1.82448205670000
H          -10.91426656950000       -1.46501291610000        1.58471780510000
O           -9.97453250950000       -1.59886015560000        4.33690891470000
H          -10.50265528440000       -1.97243516810000        3.60941798180000
H           -9.32135808900000       -2.27979295520000        4.56799394840000
O           -4.57082377770000       -4.87507703640000        2.14629628320000
H           -3.66513324930000       -5.01087978780000        2.47693789140000
H           -4.47246007200000       -4.17471613010000        1.45866922030000
O           -6.30419083570000       -2.42401778320000       -6.29976444210000
H           -7.11969860160000       -1.91037610150000       -6.31094717080000
H           -6.40003443640000       -3.01571987850000       -5.52143243930000
O            8.59266940900000        3.23405695500000       -5.32567963930000
H            7.64565834010000        3.28745462000000       -5.51898149620000
H            8.88501691540000        2.34439177300000       -5.57789240500000
O           -0.66503688360000       -5.52009333360000       -3.93294206190000
H           -1.29360197930000       -6.19250332670000       -3.59294031020000
H           -1.09467853090000       -5.02004737000000       -4.63603934250000
O           -4.87691457820000       -2.08918692890000        3.33455309960000
H           -4.66588377590000       -2.72326012170000        4.03775584100000
H           -5.45684276120000       -2.54318956060000        2.70586082250000
O           10.50943769710000        0.49315868700000       -1.95015618250000
H           11.15926372820000        0.10890888750000       -1.34245530170000
H           10.68954020950000        0.08828087330000       -2.81279485540000
O           -2.07585360660000       -7.54859822990000       -2.92542115960000
H           -1.24268040640000       -7.97299988870000       -2.68590060520000
H           -2.55858056330000       -7.50394755990000       -2.07524674400000
O           -4.47814646960000       -0.50358796250000       -6.11733443260000
H           -5.00584060410000        0.29982908730000       -5.95010382190000
H           -5.11991104630000       -1.24006516270000       -6.22614161100000
O            1.25933549320000        6.24849956190000       -2.05259781600000
H            0.30179395750000        6.40653785870000       -2.11906536740000
H            1.34953986760000        5.31208008450000       -1.79869458550000
O            2.09581335780000       -4.52408830960000        0.26331402940000
H            2.66078095970000       -5.29516276200000        0.45365452310000
H            1.79298690890000       -4.22695757410000        1.14653809880000
O           -1.31500282670000        3.40020856820000       -0.28635831170000
H           -0.88894388230000        4.13078504710000        0.21201267960000
H           -0.60285662500000        2.81225071980000       -0.59678287360000
O            3.19818010410000        1.49384725930000       -7.26409057340000
H            2.51918261610000        1.13987019490000       -7.84452334330000