 Entering Gaussian System
 *********************************************
 Gaussian 98:
 frequency output generated by the xtb code
 *********************************************
                         Standard orientation:
 --------------------------------------------------------------------
  Center     Atomic     Atomic              Coordinates (Angstroms)
  Number     Number      Type              X           Y           Z
 --------------------------------------------------------------------
    1          1             0        0.587844   -0.059678   -1.886983
    2          6             0        1.044027    0.157314   -0.926753
    3          1             0        2.118317    0.214023   -1.049228
    4          1             0        0.692923    1.127731   -0.593366
    5          6             0        0.685821   -0.930232    0.080965
    6          1             0        1.159484   -0.694207    1.035412
    7          6             0       -0.824728   -0.953803    0.314030
    8          1             0       -1.123037   -1.927300    0.706353
    9          1             0       -1.339746   -0.798900   -0.639135
   10          6             0        1.179612   -2.297983   -0.378927
   11          1             0        0.962682   -3.049543    0.374122
   12          1             0        2.252726   -2.279027   -0.542374
   13          1             0        0.691342   -2.587932   -1.304186
   14          7             0       -1.196952    0.051426    1.307491
   15          1             0       -0.732986    0.928561    1.108732
   16          1             0       -2.194781    0.214410    1.290011
   17          8             0       -2.208190    2.297204   -0.879774
   18          1             0       -1.427812    2.454967   -0.317608
   19          1             0       -2.925079    2.073815   -0.258944
   20          8             0       -2.168358    0.602800   -2.940256
   21          1             0       -3.020269    0.772563   -3.343890
   22          1             0       -2.121772    1.182195   -2.144007
   23          8             0       -1.194749   -1.990936   -3.062130
   24          1             0       -1.525536   -1.077619   -3.085071
   25          1             0       -1.674450   -2.412143   -2.333788
   26          8             0       -0.404738    1.711879    4.210334
   27          1             0       -0.545494    0.750529    4.220235
   28          1             0        0.417592    1.859815    3.725246
   29          8             0       -3.059858   -2.811160   -1.026639
   30          1             0       -3.469222   -2.125162   -0.450775
   31          1             0       -3.788453   -3.273262   -1.443796
   32          8             0        1.402957   -1.722311   -3.759124
   33          1             0        1.461162   -2.189229   -4.593289
   34          1             0        0.479293   -1.844911   -3.446270
   35          8             0        3.829769   -1.018996   -2.443882
   36          1             0        3.002944   -1.459143   -2.695578
   37          1             0        3.847815   -0.211376   -2.965817
   38          8             0        0.162409   -4.706586    1.918736
   39          1             0       -0.788136   -4.548352    1.700242
   40          1             0        0.436899   -5.458227    1.393613
   41          8             0        2.098348    0.969861   -4.057386
   42          1             0        1.256695    1.427487   -4.293520
   43          1             0        1.841017    0.040771   -3.930506
   44          8             0        3.067162    2.592497   -2.266009
   45          1             0        3.677505    3.093675   -2.808483
   46          1             0        2.643875    1.932498   -2.883853
   47          8             0        1.812990    1.888215    2.315891
   48          1             0        2.547827    2.183432    1.743940
   49          1             0        2.082833    0.977795    2.551083
   50          8             0       -2.189240    2.917869    2.608332
   51          1             0       -1.513250    3.177076    1.962659
   52          1             0       -1.673666    2.477964    3.320885
   53          8             0       -3.921062    1.629629    1.164329
   54          1             0       -3.288017    2.083326    1.799140
   55          1             0       -4.757281    2.084314    1.268672
   56          8             0       -0.294505    2.054404   -4.422831
   57          1             0       -0.458433    2.893288   -3.948614
   58          1             0       -0.905495    1.421179   -4.013922
   59          8             0       -0.105295    2.922993    0.774794
   60          1             0        0.388711    3.509649    0.175114
   61          1             0        0.570613    2.547904    1.385593
   62          8             0        3.776542    2.147485    0.437156
   63          1             0        3.511441    2.295516   -0.481457
   64          1             0        4.026498    1.210663    0.480705
   65          8             0       -0.856410   -0.990746    3.676055
   66          1             0       -0.895174   -0.560695    2.762890
   67          1             0       -0.087930   -1.584721    3.645443
   68          8             0        1.357457    4.293934   -1.077366
   69          1             0        1.936133    3.628932   -1.514653
   70          1             0        1.937219    4.961874   -0.709323
   71          8             0       -3.104348   -2.224260    3.076889
   72          1             0       -3.600417   -2.386311    3.879028
   73          1             0       -2.259329   -1.773682    3.355910
   74          8             0        1.264696   -2.756922    3.398312
   75          1             0        0.897190   -3.440497    2.801710
   76          1             0        1.522408   -3.210410    4.201695
   77          8             0        2.880868   -0.578838    2.672969
   78          1             0        3.358351   -0.732117    1.846820
   79          1             0        2.374498   -1.380168    2.871084
   80          8             0        4.382973   -0.600213    0.192916
   81          1             0        4.157830   -0.791312   -0.742753
   82          1             0        5.306431   -0.830508    0.299991
   83          8             0       -2.369463   -4.217866    1.291231
   84          1             0       -2.510638   -3.798560    0.424957
   85          1             0       -2.685230   -3.576868    1.951424
   86          8             0       -0.939205    4.076004   -2.714384
   87          1             0       -1.539318    3.598838   -2.125352
   88          1             0       -0.163254    4.294690   -2.180285
   89          8             0       -4.219044   -1.164150    0.753601
   90          1             0       -4.194698   -0.200194    0.841741
   91          1             0       -3.894267   -1.521363    1.598710
 --------------------------------------------------------------------
     1 basis functions        1 primitive gaussians
     1 alpha electrons        1 beta electrons
 
 Harmonic frequencies (cm**-1), IR intensities (km*mol⁻¹),
 Raman scattering activities (A**4/amu), Raman depolarization ratios,
 reduced masses (AMU), force constants (mDyne/A) and normal coordinates:
                      1                      2                      3
                        a                      a                      a 
 Frequencies --    22.6780                32.1638                34.0283
 Red. masses --    12.4016                14.1467                13.7079
 Frc consts  --     0.0000                 0.0000                 0.0000
 IR Inten    --    31.4022                 2.5762                21.5927
 Raman Activ --     0.0000                 0.0000                 0.0000
 Depolar     --     0.0000                 0.0000                 0.0000
 Atom AN      X      Y      Z        X      Y      Z        X      Y      Z
   1   1    -0.04   0.01  -0.01    -0.02  -0.00   0.01    -0.02   0.00   0.00
   2   6    -0.10   0.06  -0.06    -0.03  -0.06   0.00    -0.04  -0.02   0.01
   3   1    -0.03   0.00  -0.03    -0.01  -0.03  -0.01    -0.01  -0.01  -0.00
   4   1    -0.01   0.02  -0.02     0.01  -0.01   0.01    -0.00  -0.01   0.01
   5   6    -0.10   0.11  -0.01    -0.02  -0.07  -0.01    -0.04  -0.04  -0.01
   6   1    -0.02   0.04  -0.01     0.00  -0.03  -0.01    -0.00  -0.02  -0.01
   7   6    -0.09   0.16   0.05    -0.01  -0.04   0.04    -0.03  -0.02   0.02
   8   1    -0.04   0.05   0.01    -0.01  -0.01   0.01    -0.01  -0.00   0.01
   9   1    -0.04   0.06   0.02    -0.01  -0.00   0.02    -0.01  -0.00   0.01
  10   6    -0.16   0.07   0.04    -0.07  -0.07  -0.04    -0.08  -0.04  -0.07
  11   1    -0.03   0.04   0.04    -0.01  -0.02  -0.01    -0.03  -0.02  -0.03
  12   1    -0.05   0.01  -0.02    -0.02  -0.03  -0.03    -0.02  -0.02  -0.02
  13   1    -0.07   0.00   0.03    -0.03  -0.02  -0.01    -0.03   0.00  -0.02
  14   7    -0.00   0.15   0.11     0.04  -0.05   0.08     0.00  -0.00   0.03
  15   1     0.00   0.04   0.03     0.01  -0.01   0.02     0.01  -0.01   0.01
  16   1     0.00   0.05   0.05     0.01  -0.01   0.04     0.00   0.01   0.01
  17   8     0.01   0.09  -0.00     0.11  -0.20  -0.16     0.03   0.04  -0.03
  18   1    -0.00   0.03   0.00     0.03  -0.04  -0.04     0.01   0.00  -0.00
  19   1     0.00   0.02  -0.00     0.03  -0.05  -0.04     0.01  -0.01  -0.01
  20   8    -0.01   0.09  -0.00     0.17   0.01  -0.33     0.02   0.16  -0.12
  21   1    -0.00   0.03  -0.00     0.05   0.01  -0.09     0.01   0.06  -0.03
  22   1     0.00   0.02  -0.00     0.04  -0.02  -0.07     0.01   0.03  -0.02
  23   8    -0.02   0.08   0.04    -0.04  -0.07   0.06    -0.19   0.08  -0.07
  24   1    -0.00   0.02   0.01    -0.01  -0.02  -0.01    -0.04   0.02  -0.01
  25   1    -0.01   0.02   0.01    -0.02   0.00   0.02    -0.03   0.02  -0.01
  26   8    -0.05   0.04  -0.02    -0.02   0.04  -0.06    -0.11   0.10  -0.04
  27   1    -0.00   0.01   0.01     0.01   0.01   0.00    -0.03   0.02  -0.00
  28   1    -0.01   0.01  -0.00    -0.00   0.01  -0.01    -0.02   0.02  -0.00
  29   8     0.12  -0.07  -0.01    -0.08   0.04   0.13     0.06  -0.15   0.04
  30   1     0.03  -0.02  -0.01    -0.02   0.00   0.04     0.01  -0.04   0.01
  31   1     0.03  -0.03   0.01    -0.02   0.01   0.04     0.02  -0.05   0.01
  32   8    -0.02  -0.02   0.03    -0.06   0.11  -0.02    -0.20   0.04  -0.07
  33   1    -0.01  -0.00   0.01    -0.02   0.05  -0.02    -0.05   0.01  -0.01
  34   1    -0.01   0.00   0.01    -0.01   0.01   0.01    -0.05   0.01  -0.02
  35   8    -0.06  -0.06   0.03    -0.02  -0.04  -0.05    -0.15  -0.12  -0.04
  36   1    -0.02  -0.01  -0.01    -0.01  -0.00  -0.01    -0.04  -0.02  -0.01
  37   1     0.00  -0.02   0.01     0.00  -0.01  -0.01    -0.03  -0.03  -0.01
  38   8     0.11  -0.48   0.32    -0.09  -0.09   0.02     0.25   0.26  -0.06
  39   1     0.04  -0.10   0.07    -0.03  -0.01   0.02     0.06   0.04  -0.02
  40   1     0.14   0.16  -0.26    -0.03  -0.00  -0.03     0.01  -0.09   0.19
  41   8     0.00  -0.02  -0.02     0.09   0.12   0.14    -0.02  -0.02  -0.03
  42   1     0.00  -0.00  -0.01     0.04   0.04   0.01     0.00   0.01  -0.01
  43   1    -0.00  -0.00  -0.00     0.00   0.03   0.03    -0.02   0.00  -0.01
  44   8     0.04  -0.04  -0.03    -0.09   0.21   0.17     0.07  -0.10  -0.01
  45   1     0.01  -0.01  -0.01    -0.01   0.04   0.05     0.02  -0.03  -0.00
  46   1     0.01  -0.01  -0.01    -0.01   0.04   0.04     0.01  -0.02  -0.00
  47   8    -0.04   0.03  -0.01    -0.03  -0.02  -0.02    -0.03   0.03   0.02
  48   1    -0.01  -0.00  -0.00     0.00  -0.01   0.00    -0.01   0.00   0.00
  49   1    -0.02   0.00  -0.00    -0.02  -0.01  -0.01    -0.01   0.01   0.01
  50   8    -0.05   0.07  -0.01    -0.00  -0.01  -0.12    -0.10   0.02  -0.11
  51   1    -0.01   0.03   0.00     0.00  -0.01  -0.03    -0.02   0.01  -0.02
  52   1    -0.01   0.01  -0.01    -0.00   0.00  -0.02    -0.03   0.01  -0.02
  53   8    -0.00   0.01  -0.02     0.05  -0.02  -0.15    -0.00  -0.13  -0.10
  54   1    -0.01   0.01  -0.01     0.01  -0.00  -0.04    -0.01  -0.02  -0.02
  55   1    -0.01  -0.01  -0.01     0.01   0.00  -0.06    -0.01  -0.05  -0.04
  56   8     0.02   0.02  -0.02     0.17   0.19  -0.15     0.07   0.20  -0.02
  57   1     0.01   0.01  -0.01     0.02   0.04  -0.03     0.03   0.04   0.01
  58   1     0.00   0.01  -0.00     0.04   0.03  -0.06     0.01   0.05  -0.01
  59   8    -0.00   0.14   0.00     0.00  -0.05  -0.07    -0.00   0.02  -0.00
  60   1     0.00   0.02  -0.00    -0.01   0.01  -0.00     0.01  -0.00   0.00
  61   1    -0.00   0.03  -0.00     0.01  -0.01  -0.02    -0.01   0.00   0.01
  62   8    -0.03  -0.06  -0.01     0.02  -0.03   0.07    -0.02  -0.09   0.00
  63   1    -0.00  -0.01  -0.00    -0.01   0.01   0.02     0.01  -0.02  -0.00
  64   1    -0.02  -0.02  -0.00    -0.00  -0.01  -0.00    -0.01  -0.02   0.01
  65   8     0.08  -0.04   0.03     0.17  -0.04   0.08    -0.06   0.06   0.07
  66   1     0.02   0.01   0.02     0.04  -0.01   0.02    -0.01   0.01   0.01
  67   1     0.01  -0.02  -0.01     0.04  -0.02   0.01    -0.01   0.03   0.03
  68   8     0.06   0.01  -0.05    -0.15   0.24   0.02     0.20  -0.05   0.12
  69   1     0.01  -0.00  -0.01    -0.02   0.06   0.02     0.03  -0.02   0.02
  70   1     0.02   0.01  -0.02    -0.05   0.08  -0.01     0.07  -0.05   0.06
  71   8     0.11  -0.05  -0.07     0.08   0.07   0.20     0.07  -0.14   0.01
  72   1     0.03  -0.04  -0.02     0.03   0.02   0.06     0.01  -0.03  -0.00
  73   1     0.02  -0.01  -0.01     0.03   0.01   0.04     0.01  -0.02   0.01
  74   8    -0.02  -0.14  -0.11     0.08  -0.15  -0.03     0.04   0.16   0.26
  75   1    -0.01  -0.07   0.01     0.00  -0.03  -0.00     0.04   0.05   0.04
  76   1    -0.00   0.01  -0.01     0.02  -0.04  -0.01     0.01   0.02   0.06
  77   8    -0.16  -0.03  -0.03    -0.06  -0.05  -0.04     0.01   0.07   0.03
  78   1    -0.02  -0.01   0.00    -0.01  -0.01  -0.01    -0.01   0.00   0.00
  79   1    -0.03  -0.02  -0.01     0.00  -0.02  -0.01     0.00   0.02   0.03
  80   8    -0.10  -0.08   0.03    -0.04  -0.04  -0.04    -0.10  -0.11  -0.04
  81   1    -0.02  -0.02   0.01    -0.01  -0.01  -0.01    -0.03  -0.03  -0.01
  82   1    -0.02  -0.02   0.01    -0.01  -0.01  -0.01    -0.03  -0.04  -0.02
  83   8     0.26  -0.03  -0.02    -0.10   0.03   0.15     0.16  -0.13   0.02
  84   1     0.06  -0.01  -0.01    -0.03   0.01   0.04     0.03  -0.04   0.00
  85   1     0.05  -0.01  -0.01    -0.01   0.01   0.04     0.03  -0.03   0.00
  86   8     0.05   0.04  -0.04    -0.07   0.02  -0.05     0.18   0.13   0.11
  87   1     0.01   0.02  -0.01    -0.00  -0.02  -0.02     0.04   0.03   0.02
  88   1     0.02   0.01  -0.01    -0.03   0.03  -0.01     0.05   0.02   0.03
  89   8     0.09  -0.05  -0.06    -0.04  -0.03   0.20     0.02  -0.18   0.03
  90   1     0.02  -0.01  -0.02     0.00  -0.01   0.03     0.01  -0.04  -0.00
  91   1     0.02  -0.01  -0.01     0.00   0.01   0.05     0.01  -0.04   0.01
                      4                      5                      6
                        a                      a                      a 
 Frequencies --    36.1605                37.5666                42.7547
 Red. masses --    13.5625                14.2315                13.8473
 Frc consts  --     0.0000                 0.0000                 0.0000
 IR Inten    --     6.5585                 0.6081                 0.0824
 Raman Activ --     0.0000                 0.0000                 0.0000
 Depolar     --     0.0000                 0.0000                 0.0000
 Atom AN      X      Y      Z        X      Y      Z        X      Y      Z
   1   1     0.06  -0.02   0.01    -0.00   0.02  -0.01     0.04  -0.01   0.02
   2   6     0.09  -0.01   0.07    -0.03   0.09  -0.02     0.09  -0.06   0.10
   3   1     0.03   0.01   0.06    -0.01   0.03   0.00     0.03  -0.03   0.04
   4   1     0.00  -0.01   0.00    -0.02   0.02  -0.01     0.03  -0.02   0.03
   5   6     0.03  -0.00   0.06    -0.02   0.08  -0.02    -0.01  -0.07   0.05
   6   1    -0.02   0.01   0.03    -0.01   0.02  -0.00    -0.01  -0.04   0.02
   7   6     0.00  -0.05  -0.09    -0.02   0.06  -0.02    -0.02   0.00  -0.03
   8   1    -0.00  -0.02  -0.04    -0.01   0.01  -0.02    -0.03   0.01  -0.01
   9   1     0.03  -0.02  -0.04    -0.01   0.03  -0.01     0.01   0.01  -0.01
  10   6     0.12   0.01   0.13    -0.00   0.09  -0.02    -0.06  -0.08   0.03
  11   1     0.02   0.00   0.04    -0.00   0.02  -0.01    -0.04  -0.03  -0.00
  12   1     0.04   0.01   0.07     0.00   0.03   0.00    -0.01  -0.04   0.03
  13   1     0.06  -0.01   0.03     0.01   0.03  -0.01    -0.01  -0.01   0.00
  14   7    -0.13  -0.06  -0.14    -0.03   0.02   0.02    -0.02   0.03  -0.05
  15   1    -0.04  -0.01  -0.03    -0.02   0.01   0.01     0.01   0.00  -0.01
  16   1    -0.04  -0.03  -0.06    -0.01  -0.00   0.02    -0.00   0.02  -0.02
  17   8    -0.04   0.06  -0.04    -0.07   0.02   0.01    -0.11   0.06   0.03
  18   1    -0.01   0.00  -0.00    -0.02   0.01   0.01    -0.02   0.01  -0.01
  19   1    -0.02   0.01  -0.02    -0.02  -0.00  -0.00    -0.02   0.01   0.02
  20   8     0.02   0.08  -0.05     0.03   0.07  -0.05    -0.09   0.10  -0.01
  21   1     0.01   0.03  -0.03     0.02   0.03  -0.03    -0.01   0.05  -0.02
  22   1    -0.00   0.02  -0.01    -0.00   0.01  -0.01    -0.03   0.02   0.00
  23   8    -0.14   0.01   0.01    -0.07   0.03   0.04    -0.11   0.11  -0.07
  24   1    -0.02   0.01   0.00    -0.01   0.01   0.00    -0.02   0.03  -0.01
  25   1    -0.04   0.01   0.01    -0.02   0.02   0.01    -0.03   0.02  -0.02
  26   8    -0.01  -0.09  -0.07    -0.07  -0.02   0.01     0.11   0.02  -0.05
  27   1    -0.01  -0.02  -0.03     0.00  -0.01  -0.00     0.02   0.01  -0.02
  28   1    -0.00  -0.02  -0.01    -0.02   0.01   0.01     0.02  -0.00  -0.02
  29   8    -0.08  -0.00   0.05    -0.17   0.18   0.06    -0.08   0.09  -0.10
  30   1    -0.03  -0.00   0.01    -0.04   0.03   0.04    -0.01   0.01  -0.01
  31   1    -0.02  -0.01   0.02    -0.05   0.05   0.01    -0.03   0.03  -0.02
  32   8    -0.13  -0.08   0.09    -0.03  -0.12   0.07    -0.07  -0.07   0.08
  33   1    -0.03  -0.02   0.02    -0.01  -0.04   0.03    -0.02  -0.01   0.01
  34   1    -0.04  -0.01   0.01    -0.01  -0.01   0.01    -0.03  -0.00   0.00
  35   8    -0.01  -0.03  -0.07    -0.02  -0.08   0.15     0.00  -0.30   0.08
  36   1    -0.01  -0.02   0.01    -0.01  -0.02   0.04    -0.01  -0.07   0.03
  37   1    -0.03  -0.01  -0.03    -0.00  -0.03   0.02     0.00  -0.08   0.01
  38   8    -0.07  -0.16   0.35     0.05   0.03  -0.38     0.07   0.02   0.05
  39   1    -0.01  -0.03   0.07     0.01   0.01  -0.07     0.03  -0.00  -0.03
  40   1     0.04   0.09  -0.06    -0.01  -0.02  -0.07     0.02  -0.05   0.09
  41   8     0.02  -0.12   0.04     0.14  -0.19  -0.03     0.12  -0.10   0.24
  42   1     0.01  -0.01   0.01     0.04  -0.04  -0.01     0.04  -0.02   0.05
  43   1    -0.01  -0.02   0.01     0.02  -0.04  -0.00     0.02  -0.02   0.05
  44   8    -0.03   0.04  -0.04     0.09  -0.11  -0.07    -0.07   0.12   0.16
  45   1    -0.03   0.02  -0.02     0.01  -0.02  -0.02    -0.01   0.01   0.04
  46   1    -0.00  -0.01   0.01     0.03  -0.04  -0.01     0.00   0.00   0.05
  47   8     0.04  -0.04  -0.03    -0.10   0.09   0.02     0.04   0.04  -0.12
  48   1     0.00   0.01  -0.01    -0.03   0.03   0.01     0.02   0.01  -0.02
  49   1     0.03  -0.00  -0.01    -0.02   0.02  -0.00     0.01   0.01  -0.02
  50   8    -0.07  -0.13  -0.03    -0.10  -0.01   0.05     0.09   0.08   0.01
  51   1    -0.02  -0.03  -0.01    -0.03   0.01   0.01     0.02   0.01  -0.01
  52   1    -0.02  -0.03  -0.01    -0.02  -0.01   0.01     0.03   0.02  -0.00
  53   8    -0.10  -0.03  -0.11    -0.07  -0.02   0.02     0.03   0.01   0.15
  54   1    -0.02  -0.02  -0.02    -0.02  -0.00   0.01     0.02   0.01   0.02
  55   1    -0.02   0.00  -0.03    -0.02  -0.00   0.00     0.01  -0.00   0.05
  56   8     0.11   0.09   0.07     0.17  -0.11  -0.03     0.14  -0.06   0.13
  57   1     0.04   0.02   0.02     0.05  -0.02  -0.01     0.01  -0.01   0.01
  58   1     0.02   0.03   0.01     0.03  -0.02  -0.01     0.02  -0.01   0.02
  59   8    -0.03  -0.11   0.01    -0.10   0.08   0.02     0.00   0.02  -0.08
  60   1    -0.01  -0.02   0.01    -0.02   0.00  -0.00    -0.01   0.02  -0.02
  61   1    -0.01  -0.03   0.00    -0.03   0.02   0.01     0.01   0.01  -0.03
  62   8     0.03   0.16  -0.04    -0.08   0.15   0.03     0.17   0.00   0.04
  63   1     0.01   0.03  -0.01    -0.00   0.02   0.00     0.02   0.01   0.02
  64   1     0.03   0.05  -0.01    -0.01   0.04   0.02     0.03  -0.00  -0.00
  65   8    -0.07  -0.02  -0.14     0.17  -0.06  -0.04    -0.06   0.03  -0.06
  66   1    -0.03  -0.01  -0.03     0.03  -0.01  -0.01    -0.02   0.01  -0.01
  67   1    -0.01   0.00  -0.04     0.04  -0.01  -0.03    -0.01   0.02  -0.01
  68   8     0.09   0.00   0.22     0.09  -0.14   0.00    -0.22   0.17  -0.15
  69   1     0.01   0.00   0.03     0.01  -0.04  -0.01    -0.04   0.04  -0.01
  70   1     0.04  -0.04   0.10     0.03  -0.05   0.02    -0.08   0.09  -0.08
  71   8    -0.13  -0.00   0.03     0.16  -0.11   0.12     0.09  -0.20  -0.13
  72   1    -0.02  -0.01   0.02     0.06  -0.04   0.04     0.02  -0.07  -0.03
  73   1    -0.03  -0.00  -0.00     0.04  -0.02   0.01     0.01  -0.03  -0.03
  74   8     0.05   0.14  -0.17     0.12  -0.13  -0.19     0.00   0.09   0.02
  75   1    -0.00   0.00   0.00     0.02  -0.01  -0.06     0.01   0.02   0.01
  76   1     0.02   0.08  -0.02     0.03  -0.05  -0.06    -0.00   0.03   0.01
  77   8     0.23   0.03  -0.13    -0.09   0.10  -0.01     0.05   0.06  -0.00
  78   1     0.05   0.02  -0.04    -0.00   0.04   0.00     0.01   0.01   0.00
  79   1     0.04   0.01  -0.05    -0.00   0.01  -0.01     0.01   0.02   0.00
  80   8     0.17   0.18  -0.16     0.02   0.17   0.10     0.05  -0.06   0.02
  81   1     0.03   0.03  -0.04    -0.00   0.02   0.03     0.01  -0.04   0.01
  82   1     0.05   0.05  -0.05     0.00   0.04   0.02     0.01  -0.02   0.01
  83   8     0.03   0.04   0.06    -0.02   0.01  -0.09     0.12  -0.07  -0.26
  84   1     0.00   0.01   0.02    -0.02   0.02  -0.01     0.02  -0.01  -0.06
  85   1    -0.01   0.00   0.01     0.01  -0.01  -0.00     0.02  -0.03  -0.06
  86   8     0.15   0.09   0.09     0.13  -0.10  -0.05    -0.22   0.02  -0.10
  87   1     0.03   0.03   0.01     0.02  -0.01  -0.01    -0.05   0.01  -0.02
  88   1     0.03   0.03   0.04     0.03  -0.03  -0.01    -0.06   0.02  -0.03
  89   8    -0.15  -0.03   0.03    -0.09  -0.02   0.28    -0.02   0.00   0.03
  90   1    -0.04  -0.01   0.00    -0.02  -0.01   0.07    -0.00  -0.00   0.02
  91   1    -0.04  -0.00   0.01     0.00  -0.01   0.06     0.01  -0.01  -0.00
                      7                      8                      9
                        a                      a                      a 
 Frequencies --    45.8764                47.0882                49.9762
 Red. masses --    14.2577                13.9665                13.6050
 Frc consts  --     0.0000                 0.0000                 0.0000
 IR Inten    --     0.2602                 2.7110                 1.8424
 Raman Activ --     0.0000                 0.0000                 0.0000
 Depolar     --     0.0000                 0.0000                 0.0000
 Atom AN      X      Y      Z        X      Y      Z        X      Y      Z
   1   1     0.00  -0.01   0.01    -0.04   0.01   0.01     0.06   0.03   0.05
   2   6     0.00   0.00   0.04    -0.06  -0.02   0.02     0.11   0.05   0.22
   3   1    -0.00   0.01   0.01    -0.02  -0.02  -0.01     0.04   0.01   0.10
   4   1    -0.01  -0.00   0.00     0.00  -0.00   0.02     0.03   0.01   0.06
   5   6     0.04   0.01   0.06    -0.04  -0.01   0.03    -0.00   0.01   0.13
   6   1     0.01   0.01   0.02     0.00  -0.01   0.00    -0.02  -0.02   0.05
   7   6     0.04  -0.03   0.06    -0.03   0.03   0.10    -0.02   0.07   0.01
   8   1     0.02  -0.01   0.02    -0.01   0.01   0.03    -0.03   0.02  -0.02
   9   1     0.01  -0.01   0.02    -0.02   0.02   0.04     0.02   0.05  -0.00
  10   6     0.08   0.02   0.08    -0.10  -0.02  -0.00    -0.02   0.02   0.09
  11   1     0.03   0.01   0.03    -0.03  -0.01  -0.00    -0.03  -0.01   0.00
  12   1     0.02   0.02   0.02    -0.03  -0.02  -0.01    -0.00  -0.00   0.05
  13   1     0.02  -0.00   0.03    -0.04  -0.00   0.00     0.02   0.03   0.01
  14   7    -0.01  -0.05   0.06     0.06   0.03   0.15    -0.03   0.03   0.06
  15   1     0.00  -0.01   0.03     0.02   0.00   0.04    -0.00   0.01   0.03
  16   1    -0.00  -0.01   0.00     0.02   0.02   0.05    -0.01   0.01   0.01
  17   8     0.08  -0.17  -0.03     0.20  -0.02  -0.00     0.10   0.12  -0.05
  18   1     0.02  -0.04  -0.01     0.04  -0.00   0.01     0.02   0.03  -0.01
  19   1     0.02  -0.03  -0.01     0.04   0.01  -0.01     0.02   0.02  -0.02
  20   8    -0.03   0.06  -0.24     0.07   0.02  -0.04    -0.15   0.06   0.01
  21   1    -0.02   0.01  -0.03     0.01   0.01   0.01    -0.05   0.02   0.02
  22   1     0.00  -0.01  -0.04     0.04  -0.00  -0.01    -0.01   0.02  -0.01
  23   8     0.02   0.09   0.01    -0.05  -0.01  -0.03    -0.11   0.08   0.08
  24   1    -0.00   0.02  -0.03    -0.00   0.00  -0.01    -0.04   0.02   0.02
  25   1    -0.01   0.04   0.00    -0.02   0.00  -0.01    -0.01   0.02   0.03
  26   8    -0.02  -0.06   0.02    -0.01  -0.12   0.14    -0.01  -0.11  -0.15
  27   1    -0.02  -0.01   0.01     0.00  -0.03   0.03     0.00  -0.03  -0.02
  28   1    -0.00  -0.03   0.01    -0.00  -0.03   0.04    -0.00  -0.03  -0.04
  29   8    -0.14   0.31  -0.05     0.03  -0.04  -0.10     0.08  -0.15   0.09
  30   1    -0.04   0.05   0.02     0.01   0.00  -0.04     0.02  -0.03   0.01
  31   1    -0.04   0.08  -0.01     0.00  -0.01  -0.02     0.03  -0.03   0.01
  32   8     0.02   0.07   0.06    -0.04  -0.19   0.04    -0.13   0.13   0.16
  33   1     0.01   0.00   0.02    -0.01  -0.05   0.01    -0.02   0.03   0.04
  34   1     0.00   0.02   0.01    -0.02  -0.03   0.00    -0.04   0.03   0.03
  35   8     0.00   0.20   0.01    -0.07  -0.10  -0.01    -0.08   0.10   0.13
  36   1     0.00   0.05  -0.00    -0.01  -0.04   0.00    -0.03   0.03   0.05
  37   1    -0.00   0.05   0.01    -0.03  -0.03  -0.02    -0.03   0.03   0.04
  38   8     0.06  -0.02   0.20     0.01   0.08  -0.01    -0.01  -0.00  -0.16
  39   1     0.03   0.00   0.00     0.00   0.02  -0.01    -0.01  -0.01  -0.02
  40   1     0.05   0.04   0.00    -0.02  -0.04   0.08    -0.04  -0.07   0.03
  41   8    -0.12   0.07  -0.12    -0.05  -0.19   0.04    -0.17   0.10   0.07
  42   1    -0.03   0.01  -0.04    -0.01  -0.05  -0.02    -0.05   0.01  -0.00
  43   1    -0.03   0.02  -0.02    -0.02  -0.05   0.01    -0.04   0.02   0.02
  44   8     0.00  -0.10  -0.07    -0.31   0.09  -0.05     0.04  -0.10   0.10
  45   1     0.00  -0.02  -0.01    -0.09   0.02  -0.03     0.03  -0.04   0.03
  46   1    -0.01  -0.01  -0.03    -0.06  -0.01   0.01    -0.02  -0.00   0.02
  47   8     0.04  -0.06   0.05     0.05   0.05   0.15     0.05  -0.05  -0.08
  48   1     0.01  -0.01   0.01    -0.00   0.02   0.02     0.02  -0.01  -0.01
  49   1     0.02  -0.01   0.02     0.02   0.01   0.03     0.02  -0.01  -0.01
  50   8     0.07   0.04   0.00     0.04  -0.04   0.12    -0.03  -0.02  -0.07
  51   1     0.02  -0.00  -0.00     0.02  -0.01   0.04    -0.01   0.02  -0.01
  52   1     0.01   0.01   0.00     0.00  -0.02   0.03    -0.01  -0.02  -0.03
  53   8     0.06   0.03   0.03     0.10   0.10  -0.06     0.02   0.01  -0.16
  54   1     0.02   0.01   0.00     0.02   0.01  -0.00    -0.00   0.00  -0.03
  55   1     0.02   0.02  -0.00     0.03   0.03  -0.03     0.00   0.00  -0.05
  56   8    -0.10   0.06  -0.31     0.03  -0.09  -0.19    -0.20  -0.06  -0.21
  57   1    -0.02   0.00  -0.06     0.03  -0.02  -0.04    -0.04  -0.01  -0.05
  58   1    -0.03   0.01  -0.09     0.00  -0.02  -0.04    -0.05  -0.01  -0.04
  59   8     0.05  -0.08   0.01     0.05   0.04   0.15     0.05   0.15   0.00
  60   1     0.01  -0.02  -0.00     0.00   0.02   0.04     0.01   0.03  -0.00
  61   1     0.01  -0.02   0.00     0.01   0.01   0.04     0.01   0.03  -0.01
  62   8    -0.02  -0.03  -0.02    -0.18   0.13  -0.09     0.21   0.04   0.09
  63   1    -0.00  -0.02  -0.01    -0.06   0.03  -0.02     0.03  -0.00   0.03
  64   1    -0.00  -0.01   0.00    -0.03   0.04  -0.02     0.06   0.01   0.03
  65   8    -0.15  -0.06   0.09     0.02  -0.13   0.09     0.00  -0.17  -0.03
  66   1    -0.03  -0.02   0.02     0.02  -0.02   0.03    -0.00  -0.03   0.00
  67   1    -0.03  -0.01   0.03     0.01  -0.03   0.02     0.00  -0.04  -0.02
  68   8    -0.00  -0.12  -0.06    -0.06   0.18   0.18     0.02   0.02  -0.14
  69   1     0.00  -0.03  -0.01    -0.04   0.04   0.02     0.01  -0.01  -0.01
  70   1    -0.00  -0.02  -0.03     0.01   0.02   0.06    -0.01   0.04  -0.07
  71   8    -0.03  -0.23   0.00    -0.03   0.06  -0.18    -0.07  -0.03  -0.02
  72   1     0.00  -0.10  -0.00    -0.03   0.02  -0.06    -0.02   0.01  -0.01
  73   1    -0.02  -0.04   0.01    -0.00  -0.01  -0.02    -0.01  -0.02  -0.01
  74   8    -0.05   0.06   0.15     0.14  -0.00   0.03     0.09  -0.08  -0.10
  75   1    -0.01   0.01   0.04     0.03   0.01   0.00     0.02  -0.01  -0.03
  76   1    -0.01   0.03   0.04     0.05  -0.01  -0.00     0.02  -0.03  -0.03
  77   8     0.07  -0.04   0.10     0.08   0.05   0.00     0.11  -0.02   0.04
  78   1     0.01  -0.01   0.02     0.01   0.02  -0.01     0.03   0.00   0.01
  79   1     0.00  -0.00   0.03     0.02   0.01   0.00     0.03  -0.01  -0.00
  80   8     0.02  -0.01   0.04    -0.07   0.16  -0.06     0.18   0.02   0.09
  81   1     0.01   0.02   0.01    -0.02   0.01  -0.01     0.02   0.01   0.03
  82   1     0.01   0.00   0.00    -0.01   0.05  -0.01     0.04  -0.01   0.01
  83   8     0.18   0.09  -0.27     0.01  -0.00  -0.09    -0.10  -0.16   0.12
  84   1     0.03   0.04  -0.06     0.01  -0.01  -0.03    -0.01  -0.04   0.03
  85   1     0.02  -0.01  -0.05    -0.00   0.00  -0.03    -0.02  -0.03   0.02
  86   8    -0.00  -0.13  -0.06     0.15  -0.12  -0.09     0.06  -0.01  -0.19
  87   1     0.01  -0.04  -0.01     0.04  -0.03  -0.02     0.02   0.01  -0.04
  88   1     0.00  -0.04  -0.02     0.02   0.01  -0.01     0.02  -0.01  -0.05
  89   8    -0.13   0.06   0.19     0.08   0.12  -0.22     0.02  -0.03  -0.07
  90   1    -0.01   0.01   0.06     0.03   0.03  -0.05     0.01  -0.01  -0.03
  91   1    -0.02  -0.00   0.04     0.01   0.03  -0.05    -0.00  -0.00  -0.01
                     10                     11                     12
                        a                      a                      a 
 Frequencies --    51.0632                53.3617                55.2080
 Red. masses --    14.1585                13.8905                14.0395
 Frc consts  --     0.0000                 0.0000                 0.0000
 IR Inten    --     0.3762                 4.0336                 0.8350
 Raman Activ --     0.0000                 0.0000                 0.0000
 Depolar     --     0.0000                 0.0000                 0.0000
 Atom AN      X      Y      Z        X      Y      Z        X      Y      Z
   1   1     0.02  -0.02   0.00    -0.02  -0.03   0.01    -0.02   0.00   0.00
   2   6     0.04  -0.08   0.03    -0.04  -0.12   0.03    -0.07   0.01   0.01
   3   1     0.01  -0.02   0.01    -0.01  -0.04   0.00    -0.02   0.00   0.00
   4   1     0.01  -0.03   0.01    -0.01  -0.03   0.01    -0.02   0.00   0.00
   5   6     0.03  -0.10   0.00    -0.03  -0.12   0.03    -0.07   0.02   0.02
   6   1     0.01  -0.04   0.00    -0.00  -0.04   0.01    -0.01   0.00   0.00
   7   6     0.03  -0.06   0.01    -0.03  -0.09   0.07    -0.07   0.06   0.06
   8   1     0.00  -0.02   0.00    -0.01  -0.02   0.04    -0.03   0.01   0.01
   9   1     0.01  -0.02   0.00    -0.01  -0.04   0.02    -0.03   0.04   0.03
  10   6    -0.02  -0.11  -0.04    -0.08  -0.13  -0.00    -0.12   0.01   0.02
  11   1    -0.01  -0.03  -0.01    -0.02  -0.04   0.00    -0.03   0.00   0.01
  12   1    -0.01  -0.04  -0.01    -0.02  -0.04  -0.01    -0.03  -0.00  -0.00
  13   1    -0.01  -0.02  -0.01    -0.03  -0.03   0.00    -0.04   0.00   0.01
  14   7     0.07  -0.06   0.01     0.02  -0.03   0.02    -0.01   0.01   0.14
  15   1     0.00  -0.01  -0.02     0.01  -0.02  -0.01     0.01   0.00   0.05
  16   1     0.01  -0.03   0.02     0.01   0.00   0.01     0.00   0.02   0.05
  17   8    -0.11  -0.04  -0.02     0.03  -0.04  -0.05    -0.02  -0.06   0.07
  18   1    -0.02  -0.02  -0.01     0.02  -0.02  -0.02    -0.01   0.00   0.01
  19   1    -0.02  -0.01  -0.00     0.01  -0.00  -0.01    -0.00  -0.02   0.02
  20   8    -0.21   0.15  -0.17    -0.12  -0.13   0.05     0.18   0.10  -0.06
  21   1    -0.05   0.06  -0.04    -0.04  -0.05   0.03     0.06   0.03  -0.03
  22   1    -0.05   0.02  -0.03    -0.02  -0.02   0.01     0.03   0.01  -0.00
  23   8    -0.06   0.22  -0.17     0.05  -0.07   0.00     0.08   0.06   0.03
  24   1    -0.03   0.05  -0.04     0.01  -0.02  -0.00     0.02   0.02   0.01
  25   1    -0.01   0.05  -0.04    -0.00  -0.02  -0.01     0.02   0.02   0.01
  26   8     0.03   0.00   0.12    -0.02   0.15  -0.15     0.14  -0.14  -0.06
  27   1     0.03  -0.00   0.02     0.00   0.04  -0.02     0.02  -0.03  -0.00
  28   1     0.00   0.02   0.03     0.00   0.03  -0.03     0.03  -0.04  -0.03
  29   8     0.08   0.03  -0.16    -0.11   0.02  -0.10     0.10  -0.07  -0.01
  30   1     0.02   0.01  -0.04    -0.02  -0.00  -0.01     0.02  -0.02  -0.00
  31   1     0.02   0.00  -0.04    -0.04   0.02  -0.02     0.03  -0.01  -0.02
  32   8    -0.02   0.04  -0.01     0.08  -0.07   0.07     0.08   0.01   0.04
  33   1     0.00  -0.00   0.01     0.03  -0.02   0.02     0.03  -0.02   0.02
  34   1    -0.01   0.03  -0.02     0.02  -0.02   0.01     0.02   0.01   0.01
  35   8    -0.04  -0.03   0.12    -0.01   0.14   0.12     0.00   0.05   0.06
  36   1    -0.01   0.00   0.02     0.01   0.02   0.02     0.00   0.02   0.01
  37   1     0.01  -0.01   0.03    -0.01   0.04   0.03     0.01   0.01   0.01
  38   8    -0.16  -0.01   0.23    -0.14  -0.10   0.02    -0.24   0.08   0.14
  39   1    -0.03   0.01   0.04    -0.03  -0.03  -0.02    -0.06   0.00   0.03
  40   1    -0.05  -0.02   0.08    -0.03  -0.05   0.03    -0.06  -0.02   0.10
  41   8    -0.03   0.01  -0.06    -0.18   0.00   0.05     0.13  -0.02  -0.15
  42   1    -0.01   0.00  -0.01    -0.05  -0.01   0.02     0.04   0.01  -0.03
  43   1    -0.01   0.00  -0.02    -0.03  -0.00   0.01     0.02  -0.00  -0.02
  44   8     0.07  -0.16   0.01    -0.05   0.02  -0.06     0.11   0.06  -0.23
  45   1     0.02  -0.04   0.01    -0.03   0.00  -0.03     0.01   0.03  -0.06
  46   1     0.01  -0.03  -0.01    -0.03   0.01  -0.00     0.04   0.01  -0.05
  47   8    -0.02   0.14   0.08     0.05   0.10  -0.03     0.03   0.03  -0.21
  48   1    -0.00   0.03   0.02     0.01   0.02  -0.01     0.00   0.01  -0.06
  49   1    -0.01   0.03   0.01     0.01   0.02  -0.01     0.02   0.01  -0.04
  50   8    -0.01  -0.17   0.03     0.09   0.20  -0.23     0.06  -0.04   0.10
  51   1    -0.01  -0.04   0.00     0.03   0.02  -0.06     0.00   0.01   0.02
  52   1     0.00  -0.03   0.01     0.01   0.05  -0.05     0.03  -0.02   0.01
  53   8    -0.06  -0.06  -0.01     0.07   0.00  -0.01     0.05  -0.11   0.15
  54   1    -0.01  -0.03   0.00     0.02   0.02  -0.02     0.01  -0.02   0.03
  55   1    -0.01  -0.01   0.01     0.01  -0.01  -0.01     0.01  -0.04   0.04
  56   8    -0.02   0.07  -0.01    -0.18   0.03   0.15     0.18   0.15   0.02
  57   1    -0.01   0.02   0.00    -0.02   0.01   0.04     0.03   0.03   0.01
  58   1    -0.02   0.02  -0.02    -0.05   0.01   0.04     0.05   0.03  -0.00
  59   8    -0.05  -0.13  -0.02     0.10  -0.08  -0.17    -0.03   0.13  -0.05
  60   1    -0.01  -0.04  -0.02     0.03  -0.00  -0.02    -0.01   0.02  -0.03
  61   1    -0.01  -0.01   0.01     0.02  -0.01  -0.03    -0.00   0.02  -0.02
  62   8    -0.01   0.05   0.07     0.01   0.13  -0.07     0.04   0.12  -0.21
  63   1     0.00  -0.00   0.01    -0.00   0.02  -0.02     0.02   0.02  -0.06
  64   1     0.00   0.02   0.03     0.01   0.03  -0.00     0.01   0.03  -0.04
  65   8     0.28   0.01   0.01     0.08   0.04   0.04    -0.13  -0.16   0.10
  66   1     0.06  -0.00   0.00     0.01   0.01   0.01    -0.03  -0.03   0.03
  67   1     0.07  -0.00   0.00     0.02   0.01   0.00    -0.02  -0.03   0.02
  68   8    -0.03  -0.22  -0.07     0.22   0.16   0.15     0.04  -0.05  -0.14
  69   1    -0.00  -0.05  -0.01     0.03   0.03   0.01     0.01  -0.01  -0.04
  70   1    -0.01  -0.05  -0.02     0.08  -0.02   0.10     0.01  -0.02  -0.03
  71   8     0.13   0.25  -0.03     0.18  -0.13  -0.05    -0.12  -0.16   0.04
  72   1     0.03   0.08  -0.01     0.05  -0.05  -0.01    -0.04  -0.03   0.01
  73   1     0.04   0.04  -0.01     0.04  -0.02  -0.01    -0.03  -0.04   0.02
  74   8     0.23  -0.08   0.03    -0.00  -0.06  -0.10     0.00   0.03   0.03
  75   1     0.02  -0.01   0.02    -0.02  -0.01  -0.02    -0.02   0.01   0.02
  76   1     0.05  -0.02   0.01     0.00  -0.02  -0.03     0.02   0.00  -0.00
  77   8    -0.04   0.13   0.04    -0.07   0.07   0.04    -0.02   0.06  -0.02
  78   1     0.01   0.03   0.02    -0.00   0.03   0.02    -0.00   0.01  -0.00
  79   1     0.02   0.02   0.02    -0.01   0.01  -0.00    -0.01   0.01  -0.01
  80   8     0.04   0.04   0.12    -0.00   0.13   0.12    -0.02   0.10   0.03
  81   1    -0.00   0.00   0.03    -0.00   0.03   0.03    -0.01   0.02   0.01
  82   1     0.01   0.00   0.02    -0.00   0.03   0.03    -0.01   0.03   0.01
  83   8    -0.08   0.14  -0.00    -0.10  -0.12  -0.18    -0.25  -0.19   0.03
  84   1    -0.01   0.02  -0.01    -0.02  -0.02  -0.04    -0.03  -0.04   0.01
  85   1    -0.01   0.05  -0.01    -0.01  -0.03  -0.04    -0.06  -0.04   0.01
  86   8    -0.11   0.02   0.03     0.13   0.12   0.17    -0.10   0.04   0.06
  87   1    -0.03   0.00   0.00     0.03   0.03   0.04    -0.01   0.00   0.02
  88   1    -0.02  -0.02   0.00     0.03   0.04   0.04    -0.02   0.01   0.01
  89   8     0.08   0.00  -0.14     0.04  -0.03   0.06     0.04  -0.12  -0.01
  90   1     0.01   0.00  -0.04     0.01  -0.01   0.01     0.01  -0.03   0.00
  91   1     0.02   0.01  -0.03     0.03  -0.01   0.01    -0.00  -0.03  -0.00
                     13                     14                     15
                        a                      a                      a 
 Frequencies --    58.0198                59.6792                60.4514
 Red. masses --    14.1618                14.4464                13.9990
 Frc consts  --     0.0000                 0.0000                 0.0000
 IR Inten    --     3.8025                 1.9744                 1.3457
 Raman Activ --     0.0000                 0.0000                 0.0000
 Depolar     --     0.0000                 0.0000                 0.0000
 Atom AN      X      Y      Z        X      Y      Z        X      Y      Z
   1   1    -0.01   0.01   0.02     0.00   0.00   0.01    -0.02   0.03  -0.01
   2   6     0.01   0.02   0.06    -0.01   0.03   0.02    -0.07   0.07  -0.02
   3   1     0.00  -0.01   0.01    -0.00   0.01   0.01    -0.02   0.02   0.00
   4   1     0.02   0.01   0.02    -0.01   0.01   0.00    -0.02   0.02  -0.00
   5   6    -0.01   0.03   0.06    -0.02   0.05   0.04    -0.09   0.07  -0.04
   6   1    -0.00   0.01   0.02    -0.00   0.02   0.01    -0.03   0.01  -0.01
   7   6    -0.01   0.04   0.05    -0.02   0.06   0.04    -0.10   0.08  -0.04
   8   1    -0.00   0.01   0.01    -0.01   0.01  -0.01    -0.03   0.02  -0.03
   9   1    -0.00   0.02   0.02    -0.01   0.04   0.02    -0.03   0.05  -0.01
  10   6    -0.01   0.03   0.08    -0.02   0.05   0.06    -0.11   0.06  -0.05
  11   1    -0.00   0.01   0.02    -0.00   0.02   0.02    -0.03   0.02  -0.01
  12   1    -0.00   0.01   0.02    -0.01   0.01   0.01    -0.03   0.02  -0.02
  13   1     0.00   0.01   0.02    -0.01   0.01   0.02    -0.04   0.02  -0.01
  14   7    -0.00   0.03   0.08     0.01  -0.00   0.13    -0.08   0.02   0.04
  15   1    -0.01   0.01   0.02     0.00   0.00   0.05    -0.02   0.01   0.03
  16   1    -0.00  -0.00   0.03     0.00   0.00   0.04    -0.02   0.00   0.02
  17   8    -0.09   0.05   0.01     0.08  -0.21  -0.02    -0.03  -0.30   0.03
  18   1    -0.03   0.02   0.01     0.02  -0.05  -0.00    -0.01  -0.07   0.01
  19   1    -0.03   0.00  -0.01     0.01  -0.03  -0.01    -0.01  -0.05   0.01
  20   8    -0.03   0.03   0.05     0.02  -0.15  -0.07    -0.18  -0.12  -0.16
  21   1    -0.01  -0.01   0.02     0.00  -0.04  -0.02    -0.04  -0.01  -0.03
  22   1    -0.01   0.01   0.01     0.00  -0.05  -0.01    -0.04  -0.05  -0.03
  23   8     0.15   0.10   0.03     0.01  -0.15   0.07    -0.01  -0.06  -0.03
  24   1     0.03   0.02   0.00     0.00  -0.04   0.00    -0.02  -0.02  -0.03
  25   1     0.03   0.02  -0.00    -0.00  -0.02   0.02     0.00  -0.01  -0.00
  26   8     0.03   0.06  -0.17    -0.16  -0.11  -0.16     0.14  -0.02  -0.04
  27   1     0.02   0.01  -0.01    -0.03  -0.03  -0.02     0.03  -0.00  -0.01
  28   1    -0.00   0.01  -0.06    -0.03  -0.03  -0.03     0.03  -0.00  -0.01
  29   8     0.00   0.15  -0.10    -0.05   0.05   0.01    -0.01  -0.04  -0.02
  30   1    -0.00   0.02  -0.01    -0.01   0.03  -0.01    -0.01  -0.00  -0.01
  31   1     0.00   0.04  -0.03    -0.02   0.01   0.01     0.00  -0.01  -0.01
  32   8     0.16  -0.08   0.08    -0.03  -0.07   0.06    -0.01   0.11  -0.03
  33   1     0.04  -0.03   0.03    -0.00  -0.03   0.02    -0.01   0.05  -0.02
  34   1     0.04  -0.00   0.02    -0.00  -0.03   0.02    -0.00   0.02  -0.01
  35   8     0.13   0.05  -0.06    -0.04  -0.07   0.01    -0.03  -0.03   0.03
  36   1     0.04   0.00  -0.01    -0.01  -0.01   0.01    -0.01   0.00  -0.00
  37   1     0.01   0.02  -0.00    -0.01  -0.02  -0.00     0.00  -0.00   0.02
  38   8    -0.06   0.10   0.04     0.15   0.05  -0.10     0.07   0.05  -0.02
  39   1    -0.01   0.03  -0.01     0.04   0.02  -0.02     0.02   0.01   0.00
  40   1    -0.04  -0.03   0.08     0.02  -0.01  -0.00     0.03   0.04  -0.04
  41   8    -0.04  -0.05   0.01    -0.02  -0.06  -0.00     0.05   0.10   0.11
  42   1    -0.01  -0.02  -0.00    -0.00   0.00   0.03     0.01   0.01   0.02
  43   1     0.00  -0.01   0.01    -0.02  -0.01  -0.00     0.02   0.02   0.02
  44   8    -0.15   0.05  -0.02     0.09  -0.10  -0.04     0.12   0.10   0.08
  45   1    -0.05   0.02  -0.01     0.02  -0.02  -0.01     0.02   0.03   0.01
  46   1    -0.03   0.00  -0.00     0.02  -0.02  -0.01     0.02   0.03   0.02
  47   8    -0.09  -0.18  -0.30    -0.01  -0.04  -0.02     0.14   0.19  -0.14
  48   1    -0.02  -0.06  -0.08    -0.00  -0.00  -0.00     0.04   0.04  -0.03
  49   1    -0.01  -0.03  -0.05     0.01  -0.01  -0.00     0.02   0.04  -0.04
  50   8    -0.24  -0.07   0.03    -0.05   0.15  -0.09     0.02  -0.04   0.06
  51   1    -0.07   0.02   0.01    -0.01   0.03  -0.02    -0.00  -0.01   0.01
  52   1    -0.04  -0.02  -0.01    -0.02   0.02  -0.03     0.01  -0.01   0.01
  53   8    -0.18  -0.05  -0.08    -0.06   0.17  -0.08    -0.08   0.01   0.11
  54   1    -0.05  -0.02  -0.01    -0.01   0.05  -0.02    -0.01  -0.00   0.02
  55   1    -0.05  -0.02  -0.03    -0.01   0.06  -0.04    -0.02   0.01   0.03
  56   8    -0.04  -0.04  -0.00     0.04   0.19   0.29    -0.04  -0.16  -0.06
  57   1     0.01  -0.01   0.00    -0.02   0.04   0.07     0.00  -0.05   0.01
  58   1    -0.01  -0.00   0.00     0.00   0.03   0.04    -0.02  -0.04  -0.03
  59   8    -0.20   0.18   0.04     0.00   0.00  -0.01    -0.05  -0.06   0.01
  60   1    -0.05   0.04   0.01     0.00  -0.01  -0.01    -0.03  -0.00   0.00
  61   1    -0.05   0.02  -0.01     0.00   0.00  -0.00     0.00  -0.00  -0.00
  62   8     0.04  -0.23  -0.15     0.01   0.01   0.00     0.32   0.01  -0.00
  63   1     0.00  -0.05  -0.03     0.01  -0.00  -0.00     0.08   0.01   0.00
  64   1     0.01  -0.06  -0.04     0.01   0.00   0.00     0.05  -0.00   0.00
  65   8     0.16  -0.02   0.05     0.02  -0.22   0.05    -0.05  -0.02   0.02
  66   1     0.04  -0.00   0.01     0.01  -0.04   0.02    -0.02  -0.00   0.00
  67   1     0.04  -0.00   0.01     0.01  -0.05   0.01    -0.01  -0.00   0.00
  68   8     0.01   0.09   0.17    -0.01  -0.13  -0.11     0.11   0.01   0.21
  69   1    -0.01   0.02   0.03    -0.00  -0.03  -0.03     0.03   0.01   0.05
  70   1     0.02  -0.01   0.07    -0.00  -0.03  -0.04     0.03  -0.02   0.09
  71   8     0.11   0.07   0.01    -0.12   0.09  -0.11    -0.09   0.07  -0.04
  72   1     0.03   0.01   0.00    -0.04   0.02  -0.04    -0.03   0.02  -0.02
  73   1     0.03   0.01   0.00    -0.02  -0.01  -0.01    -0.02   0.01  -0.00
  74   8     0.13  -0.08   0.15     0.20  -0.07   0.04     0.02   0.08  -0.04
  75   1     0.02  -0.01   0.03     0.05  -0.01   0.00     0.01   0.02  -0.01
  76   1     0.02  -0.03   0.04     0.06  -0.03  -0.00     0.02   0.02  -0.01
  77   8     0.07  -0.09  -0.03     0.09  -0.00  -0.02    -0.10   0.13  -0.10
  78   1     0.02  -0.03  -0.00     0.02   0.00  -0.01    -0.02   0.02  -0.02
  79   1     0.03  -0.03   0.01     0.03  -0.00  -0.00    -0.02   0.03  -0.01
  80   8     0.10  -0.23  -0.04     0.05   0.02  -0.04    -0.02  -0.08   0.02
  81   1     0.03  -0.04  -0.02     0.00  -0.00  -0.01    -0.01  -0.01   0.00
  82   1     0.03  -0.05  -0.01     0.01   0.00  -0.02    -0.01  -0.05   0.01
  83   8    -0.02   0.12  -0.11     0.14   0.12  -0.03     0.06   0.07   0.02
  84   1    -0.00   0.03  -0.03     0.02   0.02  -0.01     0.01   0.01   0.00
  85   1    -0.00   0.03  -0.02     0.02   0.03  -0.01     0.01   0.02   0.00
  86   8     0.09  -0.01   0.03    -0.28   0.16   0.22     0.14  -0.32   0.16
  87   1     0.01   0.00   0.01    -0.04   0.00   0.05     0.04  -0.08   0.04
  88   1     0.01   0.01   0.02    -0.05   0.02   0.04     0.03  -0.06   0.04
  89   8    -0.03  -0.02   0.02    -0.03   0.20  -0.13    -0.07   0.02  -0.09
  90   1    -0.01  -0.00  -0.00    -0.01   0.05  -0.03    -0.02   0.00  -0.02
  91   1     0.01   0.00   0.00    -0.02   0.04  -0.03    -0.02   0.00  -0.02
                     16                     17                     18
                        a                      a                      a 
 Frequencies --    61.0523                62.5961                65.2016
 Red. masses --    13.6966                14.4517                14.2163
 Frc consts  --     0.0000                 0.0000                 0.0000
 IR Inten    --     0.5970                 3.8154                 3.5615
 Raman Activ --     0.0000                 0.0000                 0.0000
 Depolar     --     0.0000                 0.0000                 0.0000
 Atom AN      X      Y      Z        X      Y      Z        X      Y      Z
   1   1     0.00  -0.01  -0.01     0.00   0.01   0.00     0.00   0.01   0.02
   2   6     0.01   0.03  -0.04     0.04   0.03  -0.01    -0.00   0.03   0.09
   3   1     0.00   0.03  -0.02     0.01  -0.00  -0.01    -0.00   0.01   0.03
   4   1    -0.02   0.01  -0.03     0.02   0.01  -0.00     0.00   0.01   0.02
   5   6     0.08   0.05   0.01     0.04   0.04   0.01    -0.02   0.03   0.09
   6   1     0.02   0.04   0.00     0.02   0.02   0.00    -0.01   0.01   0.03
   7   6     0.08  -0.04   0.01     0.04   0.05   0.03    -0.02   0.02   0.07
   8   1     0.04  -0.02   0.01     0.01   0.01   0.00    -0.00   0.01   0.03
   9   1     0.02  -0.02   0.00     0.01   0.02   0.01    -0.00  -0.01   0.01
  10   6     0.18   0.07   0.08     0.04   0.04   0.02     0.00   0.04   0.09
  11   1     0.06   0.02   0.03     0.00   0.01   0.00    -0.00   0.01   0.02
  12   1     0.05   0.03   0.04     0.01   0.01   0.01     0.00   0.01   0.03
  13   1     0.07   0.00   0.02     0.01   0.01   0.00     0.01   0.01   0.02
  14   7     0.01  -0.05  -0.01     0.06   0.03   0.06    -0.05   0.07   0.01
  15   1    -0.01  -0.01  -0.00     0.03   0.01   0.03    -0.01   0.02  -0.00
  16   1     0.00  -0.03  -0.01     0.02   0.02   0.01    -0.01   0.01  -0.00
  17   8    -0.05  -0.04  -0.06    -0.02  -0.17   0.06     0.06  -0.15   0.05
  18   1    -0.00  -0.02  -0.02    -0.00  -0.04   0.01     0.00  -0.02   0.02
  19   1    -0.01  -0.01  -0.01    -0.00  -0.03   0.02     0.01  -0.03   0.01
  20   8    -0.21   0.12  -0.20    -0.29   0.08  -0.17     0.25  -0.00  -0.09
  21   1    -0.05   0.05  -0.05    -0.06   0.06  -0.04     0.06  -0.01  -0.02
  22   1    -0.05   0.01  -0.04    -0.05  -0.01  -0.03     0.05  -0.02  -0.01
  23   8    -0.08   0.15  -0.04    -0.00   0.19  -0.07    -0.01  -0.10  -0.02
  24   1    -0.03   0.03  -0.03    -0.03   0.04  -0.03     0.02  -0.02  -0.00
  25   1    -0.00   0.04   0.00     0.02   0.05  -0.01    -0.01  -0.02  -0.00
  26   8     0.16  -0.00  -0.02    -0.20   0.13  -0.09     0.13   0.27   0.05
  27   1     0.03   0.00  -0.00    -0.06   0.03  -0.00     0.03   0.07   0.02
  28   1     0.04  -0.01  -0.02    -0.04   0.01  -0.02     0.03   0.06   0.01
  29   8     0.15  -0.03   0.06     0.23   0.00   0.00     0.01  -0.08  -0.09
  30   1     0.02  -0.01   0.00     0.06   0.00  -0.00     0.00  -0.02  -0.02
  31   1     0.05  -0.02   0.01     0.06   0.01  -0.02     0.00  -0.02  -0.02
  32   8    -0.02  -0.11   0.15     0.01  -0.01  -0.01    -0.03  -0.09   0.08
  33   1     0.01  -0.05   0.05    -0.01   0.00  -0.01     0.01  -0.04   0.04
  34   1    -0.02  -0.00   0.02    -0.00   0.02  -0.01    -0.01  -0.03   0.01
  35   8    -0.01  -0.01   0.16     0.09  -0.08  -0.13    -0.06   0.06   0.03
  36   1    -0.00  -0.01   0.05     0.02  -0.02  -0.02    -0.01   0.01   0.01
  37   1    -0.00  -0.01   0.03     0.01  -0.02  -0.04    -0.03   0.01   0.00
  38   8     0.15  -0.07  -0.27    -0.12   0.01  -0.02    -0.05  -0.05  -0.17
  39   1     0.03  -0.01  -0.02    -0.04  -0.01   0.01    -0.02  -0.02  -0.03
  40   1     0.03   0.02  -0.13    -0.02   0.02  -0.03     0.01   0.03  -0.09
  41   8    -0.02  -0.13  -0.01     0.07  -0.04   0.04    -0.10  -0.08  -0.04
  42   1    -0.00  -0.03  -0.00     0.02  -0.01   0.01    -0.01  -0.00  -0.02
  43   1    -0.01  -0.03   0.01     0.02  -0.01   0.01    -0.04  -0.02  -0.01
  44   8    -0.15   0.12  -0.15     0.03   0.01   0.02    -0.14  -0.18   0.06
  45   1    -0.06   0.04  -0.06     0.01  -0.00   0.01    -0.03  -0.04   0.02
  46   1    -0.02   0.01  -0.02     0.01  -0.00   0.01    -0.03  -0.04   0.01
  47   8     0.06  -0.06  -0.11    -0.09  -0.19   0.10     0.13   0.03   0.02
  48   1     0.01  -0.02  -0.04    -0.03  -0.03   0.03     0.03   0.00  -0.00
  49   1     0.01  -0.01  -0.01    -0.00  -0.04   0.02     0.03   0.01   0.01
  50   8     0.11  -0.09  -0.03    -0.06   0.35  -0.08    -0.10  -0.01   0.07
  51   1     0.02  -0.03  -0.02    -0.01   0.06  -0.03    -0.03   0.00   0.02
  52   1     0.03  -0.01  -0.01    -0.03   0.08  -0.02    -0.01   0.02   0.02
  53   8     0.03  -0.03   0.01     0.02  -0.00   0.15    -0.04  -0.05   0.01
  54   1     0.02  -0.02  -0.00     0.00   0.04   0.02    -0.02  -0.01   0.01
  55   1     0.01  -0.00   0.01    -0.00  -0.02   0.03    -0.01  -0.02  -0.01
  56   8     0.04   0.07   0.06     0.04  -0.11   0.03     0.04   0.22  -0.11
  57   1     0.01   0.02   0.02     0.01  -0.03   0.02    -0.00   0.04  -0.01
  58   1    -0.01   0.02  -0.01    -0.01  -0.02  -0.02     0.02   0.04  -0.03
  59   8     0.02  -0.11  -0.10     0.01  -0.01   0.03    -0.03  -0.01   0.16
  60   1    -0.00  -0.01  -0.01     0.01  -0.01   0.01    -0.01  -0.01   0.03
  61   1     0.01  -0.02  -0.03    -0.01  -0.01   0.01     0.00   0.00   0.03
  62   8    -0.03  -0.01  -0.20    -0.15   0.01   0.08     0.13  -0.06  -0.00
  63   1    -0.01  -0.00  -0.05    -0.03   0.01   0.02     0.01  -0.03   0.00
  64   1    -0.01  -0.00  -0.04    -0.02   0.01   0.01     0.04  -0.01   0.00
  65   8    -0.07   0.03   0.04    -0.05   0.03   0.08    -0.00   0.27   0.07
  66   1    -0.01  -0.00   0.01    -0.01   0.01   0.02    -0.01   0.07   0.02
  67   1    -0.03  -0.01   0.01    -0.01   0.01   0.02    -0.01   0.06   0.00
  68   8    -0.01   0.12   0.06     0.01  -0.03   0.04    -0.11  -0.14   0.03
  69   1    -0.02   0.03  -0.01     0.01  -0.00   0.01    -0.03  -0.04   0.01
  70   1     0.01  -0.00   0.05    -0.00  -0.00   0.01    -0.02  -0.03  -0.01
  71   8    -0.11   0.10   0.04     0.01  -0.05   0.06     0.16   0.05  -0.09
  72   1    -0.04   0.04   0.01    -0.00  -0.01   0.01     0.03   0.01  -0.03
  73   1    -0.03   0.02   0.01    -0.00  -0.01   0.02     0.02   0.03  -0.01
  74   8    -0.19  -0.12   0.07    -0.06   0.04  -0.10    -0.19   0.12  -0.25
  75   1    -0.01  -0.03  -0.01    -0.03   0.01  -0.02    -0.04   0.03  -0.06
  76   1    -0.06  -0.04   0.02    -0.00   0.01  -0.03    -0.04   0.03  -0.07
  77   8    -0.11  -0.10   0.20     0.18  -0.12  -0.07     0.12   0.00   0.01
  78   1    -0.02  -0.03   0.06     0.03  -0.02  -0.03     0.03   0.01   0.00
  79   1    -0.04  -0.02   0.04     0.03  -0.02  -0.03     0.00   0.01  -0.02
  80   8    -0.05   0.00   0.18     0.09   0.08  -0.17     0.10  -0.07   0.00
  81   1    -0.01  -0.00   0.04     0.03   0.01  -0.04     0.01  -0.00   0.00
  82   1    -0.01   0.01   0.05     0.03   0.04  -0.04     0.02  -0.03  -0.01
  83   8     0.08   0.07   0.14    -0.15  -0.10   0.05    -0.07  -0.07  -0.07
  84   1     0.02   0.01   0.03    -0.01  -0.01   0.01    -0.01  -0.02  -0.02
  85   1     0.02   0.02   0.03    -0.03  -0.02   0.01     0.01  -0.00  -0.02
  86   8    -0.03   0.08   0.05    -0.01  -0.19   0.09    -0.16   0.00   0.10
  87   1    -0.00   0.01   0.01     0.00  -0.05   0.02    -0.03  -0.02   0.02
  88   1    -0.01   0.03   0.02    -0.01  -0.04   0.02    -0.03  -0.01   0.02
  89   8     0.02  -0.00  -0.06     0.19  -0.02  -0.00     0.05  -0.07  -0.08
  90   1     0.00  -0.00  -0.02     0.03  -0.00   0.01    -0.00  -0.02  -0.02
  91   1    -0.01   0.00  -0.01     0.03  -0.01   0.00     0.03  -0.01  -0.02
                     19                     20                     21
                        a                      a                      a 
 Frequencies --    68.1080                70.3379                72.5937
 Red. masses --    14.1607                13.5978                14.1940
 Frc consts  --     0.0000                 0.0000                 0.0000
 IR Inten    --     1.1315                 2.6723                 5.4204
 Raman Activ --     0.0000                 0.0000                 0.0000
 Depolar     --     0.0000                 0.0000                 0.0000
 Atom AN      X      Y      Z        X      Y      Z        X      Y      Z
   1   1    -0.03  -0.03  -0.00     0.07   0.01   0.01     0.03  -0.01  -0.02
   2   6    -0.12  -0.04  -0.01     0.20  -0.06   0.10     0.03  -0.00  -0.05
   3   1    -0.04   0.01   0.00     0.06  -0.03   0.05     0.01  -0.00   0.01
   4   1    -0.05  -0.02  -0.01     0.07  -0.02   0.04     0.00  -0.00  -0.03
   5   6    -0.06  -0.05   0.01     0.08  -0.12  -0.01    -0.03   0.01  -0.06
   6   1    -0.01  -0.01  -0.00     0.01  -0.07   0.01    -0.02   0.00  -0.01
   7   6    -0.06  -0.08   0.06     0.07  -0.04  -0.11    -0.04   0.05  -0.11
   8   1    -0.00  -0.02   0.03    -0.00  -0.01  -0.03    -0.02   0.01  -0.05
   9   1    -0.03  -0.04   0.02     0.04  -0.01  -0.04    -0.00   0.04  -0.03
  10   6    -0.05  -0.04  -0.01     0.01  -0.12  -0.09    -0.02   0.00  -0.03
  11   1     0.00  -0.01   0.00    -0.02  -0.05  -0.04    -0.02   0.00  -0.01
  12   1    -0.02  -0.00  -0.02     0.01  -0.06  -0.01    -0.01  -0.00   0.00
  13   1    -0.03  -0.02   0.00     0.01  -0.01  -0.04     0.00  -0.00  -0.01
  14   7    -0.04  -0.04   0.03     0.06  -0.01  -0.15    -0.02   0.01  -0.07
  15   1    -0.02  -0.01  -0.01     0.03  -0.01  -0.04    -0.00   0.00  -0.01
  16   1    -0.01  -0.02   0.02     0.02   0.01  -0.06    -0.01   0.01  -0.02
  17   8    -0.12  -0.01  -0.02    -0.05  -0.10   0.05    -0.07   0.02  -0.02
  18   1    -0.03   0.01  -0.01    -0.02   0.00   0.02    -0.01  -0.00  -0.01
  19   1    -0.02  -0.00   0.00    -0.02  -0.01   0.01    -0.01   0.01   0.00
  20   8     0.08   0.01  -0.04     0.18  -0.04  -0.00     0.03   0.07  -0.08
  21   1     0.03   0.00  -0.02     0.04  -0.02  -0.00     0.01   0.01  -0.03
  22   1     0.00  -0.00  -0.01     0.03  -0.02   0.01    -0.01   0.01  -0.02
  23   8    -0.09  -0.06  -0.02    -0.04  -0.10  -0.09     0.05   0.05  -0.07
  24   1    -0.01  -0.01   0.00     0.00  -0.02  -0.01     0.02   0.01  -0.02
  25   1    -0.03  -0.02  -0.01     0.00  -0.02  -0.01     0.02   0.02  -0.01
  26   8     0.20   0.08   0.03    -0.06  -0.05  -0.05    -0.06  -0.11  -0.01
  27   1     0.03   0.02   0.02    -0.02  -0.01  -0.03    -0.01  -0.03  -0.03
  28   1     0.03  -0.00  -0.04    -0.02  -0.01  -0.02    -0.01  -0.01   0.01
  29   8    -0.10  -0.11  -0.04     0.05   0.01   0.08     0.14   0.01   0.10
  30   1    -0.02  -0.02  -0.02     0.02   0.02   0.01     0.03   0.01   0.02
  31   1    -0.03  -0.04   0.01     0.00   0.01   0.03     0.04   0.01   0.02
  32   8    -0.06  -0.00   0.03    -0.07   0.13  -0.07     0.10  -0.22  -0.04
  33   1    -0.01   0.00   0.01    -0.00   0.03  -0.02     0.03  -0.09   0.01
  34   1    -0.02  -0.01   0.00    -0.02   0.01  -0.02     0.02  -0.03  -0.02
  35   8    -0.05   0.23   0.00    -0.10  -0.15   0.17     0.09   0.30  -0.08
  36   1    -0.00   0.03   0.01    -0.04  -0.01   0.03     0.04   0.03  -0.01
  37   1    -0.04   0.06  -0.00     0.02  -0.04   0.04    -0.04   0.08  -0.02
  38   8     0.11  -0.03  -0.02     0.05  -0.12   0.05     0.03   0.02   0.03
  39   1     0.03   0.00  -0.01     0.01  -0.02   0.02     0.01   0.00   0.01
  40   1     0.01  -0.05   0.05    -0.00  -0.05   0.03    -0.01  -0.04   0.06
  41   8     0.02  -0.02   0.08    -0.03   0.09  -0.15    -0.06  -0.18  -0.05
  42   1     0.01   0.00   0.01    -0.01   0.02  -0.04    -0.01  -0.03  -0.01
  43   1    -0.01  -0.00   0.01    -0.00   0.02  -0.03    -0.02  -0.05  -0.04
  44   8     0.10  -0.10   0.11    -0.09   0.02  -0.08    -0.30  -0.30   0.21
  45   1     0.04  -0.04   0.03    -0.03   0.02  -0.01    -0.05  -0.09   0.07
  46   1     0.01  -0.01   0.03    -0.02   0.01  -0.03    -0.07  -0.06   0.04
  47   8    -0.28  -0.34  -0.19    -0.17  -0.05  -0.15     0.02   0.18  -0.02
  48   1    -0.05  -0.05  -0.01    -0.04  -0.02  -0.04     0.02   0.03   0.01
  49   1    -0.05  -0.08  -0.05    -0.03  -0.00  -0.01    -0.03   0.03  -0.03
  50   8     0.12   0.02   0.09    -0.05   0.22   0.16     0.07   0.15   0.03
  51   1     0.01   0.01   0.01    -0.02   0.05   0.03     0.02   0.01   0.00
  52   1     0.05   0.01   0.02    -0.01   0.03   0.02     0.01   0.02   0.00
  53   8     0.05   0.02   0.16     0.02   0.12   0.19     0.05   0.08   0.12
  54   1     0.02   0.00   0.03     0.01   0.04   0.04     0.02   0.03   0.02
  55   1     0.01   0.00   0.06     0.00   0.03   0.05     0.01   0.02   0.04
  56   8     0.07  -0.00  -0.06    -0.04   0.09  -0.15     0.05   0.08  -0.02
  57   1     0.02  -0.00  -0.01    -0.00   0.01  -0.02     0.02   0.02  -0.00
  58   1     0.02  -0.00  -0.01     0.01   0.01  -0.03     0.00   0.02  -0.01
  59   8    -0.09   0.08  -0.17    -0.17   0.16   0.01    -0.03  -0.05  -0.04
  60   1    -0.00   0.01  -0.03    -0.03   0.03   0.00    -0.02   0.01  -0.00
  61   1    -0.04  -0.02  -0.05    -0.05   0.02  -0.00     0.00   0.00  -0.01
  62   8    -0.05   0.16   0.19    -0.12  -0.04  -0.10     0.16  -0.03   0.13
  63   1    -0.01   0.03   0.04    -0.02  -0.02  -0.03    -0.01  -0.03   0.04
  64   1     0.01   0.05   0.05    -0.01  -0.00  -0.01     0.04  -0.01   0.04
  65   8     0.03   0.08   0.08    -0.01  -0.01  -0.17    -0.03  -0.09  -0.12
  66   1     0.01   0.02   0.02    -0.00  -0.00  -0.04    -0.01  -0.02  -0.03
  67   1     0.00   0.02   0.02    -0.00  -0.00  -0.04    -0.00  -0.02  -0.02
  68   8     0.11   0.02  -0.05     0.04   0.03   0.12    -0.04   0.05   0.07
  69   1     0.03  -0.00  -0.00    -0.00   0.00   0.01    -0.04  -0.02   0.03
  70   1     0.03   0.00  -0.01     0.03  -0.03   0.06     0.02  -0.01   0.03
  71   8     0.03   0.13  -0.10    -0.04   0.01  -0.01    -0.08  -0.07   0.07
  72   1    -0.01   0.04  -0.03    -0.01   0.03   0.00    -0.01   0.00   0.03
  73   1     0.00   0.03  -0.01    -0.00   0.00  -0.02    -0.01  -0.02   0.00
  74   8    -0.04  -0.04   0.12     0.02   0.01  -0.10     0.04  -0.05   0.10
  75   1     0.00  -0.01   0.02     0.01  -0.01  -0.02     0.01  -0.01   0.02
  76   1    -0.02  -0.01   0.03    -0.01   0.01  -0.01    -0.00  -0.01   0.03
  77   8     0.03  -0.18  -0.09     0.01   0.09   0.16    -0.25   0.05  -0.20
  78   1     0.01  -0.04  -0.03     0.02   0.03   0.05    -0.04  -0.00  -0.03
  79   1     0.01  -0.05  -0.02     0.00   0.02   0.03    -0.03  -0.00  -0.02
  80   8     0.08   0.25  -0.04     0.05  -0.06   0.18     0.08  -0.05  -0.02
  81   1     0.01   0.07  -0.01     0.00  -0.04   0.05     0.03   0.03  -0.01
  82   1     0.02   0.07  -0.03     0.01  -0.02   0.04     0.02  -0.03  -0.01
  83   8     0.11   0.06   0.01     0.06  -0.01   0.07     0.00  -0.06   0.11
  84   1     0.01  -0.00  -0.00     0.01  -0.00   0.02     0.01  -0.01   0.03
  85   1     0.03   0.02  -0.01     0.01  -0.00   0.02    -0.01  -0.02   0.03
  86   8     0.07  -0.05  -0.02     0.03  -0.08   0.09    -0.01   0.06   0.01
  87   1     0.01  -0.00  -0.01     0.01  -0.03   0.02    -0.00   0.01  -0.00
  88   1     0.02  -0.01  -0.00     0.00  -0.01   0.03    -0.01   0.02   0.01
  89   8    -0.02   0.05  -0.12     0.12   0.16   0.01     0.06   0.05   0.06
  90   1    -0.01   0.01  -0.03     0.01   0.04   0.02     0.01   0.01   0.03
  91   1    -0.00   0.01  -0.03     0.01   0.03   0.00     0.00   0.00   0.02
                     22                     23                     24
                        a                      a                      a 
 Frequencies --    75.8822                76.2921                78.7782
 Red. masses --    12.9867                13.6006                14.2137
 Frc consts  --     0.0000                 0.0000                 0.0000
 IR Inten    --     1.9805                 4.1999                 0.2091
 Raman Activ --     0.0000                 0.0000                 0.0000
 Depolar     --     0.0000                 0.0000                 0.0000
 Atom AN      X      Y      Z        X      Y      Z        X      Y      Z
   1   1    -0.05  -0.00   0.02     0.01  -0.01   0.01    -0.00   0.01   0.01
   2   6    -0.08  -0.13   0.05     0.00  -0.07   0.07     0.05  -0.03   0.02
   3   1    -0.03  -0.06  -0.01     0.00  -0.03   0.04     0.01  -0.04  -0.00
   4   1     0.01  -0.04   0.04     0.01  -0.02   0.02     0.05   0.00   0.02
   5   6    -0.09  -0.18  -0.01    -0.10  -0.05   0.05    -0.05  -0.01   0.00
   6   1     0.00  -0.09  -0.01    -0.04  -0.02   0.02    -0.02  -0.02   0.00
   7   6    -0.08  -0.08   0.10    -0.11   0.01  -0.02    -0.06   0.08  -0.03
   8   1    -0.03  -0.02   0.05    -0.05   0.00  -0.02    -0.04   0.03  -0.01
   9   1    -0.04  -0.03   0.04    -0.02   0.01  -0.01    -0.01   0.04  -0.01
  10   6    -0.25  -0.18  -0.17    -0.12  -0.07   0.08    -0.13  -0.04   0.00
  11   1    -0.05  -0.06  -0.06    -0.04  -0.02   0.02    -0.05  -0.01   0.00
  12   1    -0.08  -0.07  -0.09    -0.03  -0.03   0.03    -0.04  -0.03  -0.00
  13   1    -0.12  -0.02  -0.03    -0.03  -0.02   0.02    -0.04  -0.01   0.00
  14   7     0.01  -0.03   0.09    -0.12   0.00  -0.03    -0.02   0.11  -0.04
  15   1     0.02  -0.02   0.02    -0.04   0.00  -0.01     0.01   0.02  -0.01
  16   1     0.01   0.01   0.02    -0.03  -0.01   0.00    -0.00   0.04  -0.02
  17   8    -0.03   0.09   0.02    -0.18   0.11   0.01     0.04  -0.08  -0.20
  18   1    -0.00   0.01   0.00    -0.03  -0.01  -0.00     0.01  -0.02  -0.05
  19   1    -0.00   0.01   0.00    -0.04   0.03   0.01     0.01   0.00  -0.05
  20   8    -0.02   0.09   0.04     0.05   0.11  -0.01    -0.23  -0.09  -0.23
  21   1    -0.01   0.01   0.01     0.03   0.03  -0.03    -0.06  -0.02  -0.05
  22   1    -0.01   0.03   0.01    -0.01   0.03  -0.00    -0.05  -0.02  -0.06
  23   8     0.16   0.17   0.02     0.02   0.07   0.20     0.12  -0.01   0.17
  24   1     0.03   0.04   0.01     0.00   0.01   0.04     0.00  -0.02  -0.00
  25   1     0.03   0.03  -0.01    -0.01   0.01   0.04     0.02   0.01   0.04
  26   8    -0.01   0.00  -0.05    -0.06   0.05  -0.03     0.12  -0.05   0.30
  27   1    -0.01   0.00   0.01    -0.01   0.01  -0.01     0.02  -0.01   0.04
  28   1    -0.00  -0.01  -0.02    -0.00   0.02   0.01     0.02  -0.01   0.05
  29   8     0.04   0.06  -0.00    -0.09  -0.15   0.08     0.03   0.00   0.14
  30   1    -0.01   0.00   0.00    -0.02  -0.02   0.00     0.01   0.01   0.03
  31   1     0.02  -0.01   0.00    -0.03  -0.04   0.02     0.00   0.01   0.03
  32   8     0.20  -0.04  -0.08     0.05   0.13   0.19     0.13  -0.01   0.12
  33   1     0.03  -0.01  -0.02     0.02   0.01   0.06     0.03  -0.02   0.04
  34   1     0.05   0.01  -0.01     0.01   0.03   0.05     0.04   0.00   0.04
  35   8     0.08   0.02   0.05     0.14   0.15  -0.04     0.16  -0.07  -0.04
  36   1     0.03   0.00  -0.02     0.03   0.04   0.01     0.03  -0.01  -0.01
  37   1     0.03   0.01   0.02     0.03   0.04  -0.00     0.05  -0.01  -0.00
  38   8     0.17  -0.07  -0.13     0.10  -0.05  -0.08     0.03   0.03  -0.03
  39   1     0.04   0.01  -0.00     0.02  -0.02  -0.02     0.00  -0.01  -0.01
  40   1     0.01  -0.02  -0.05    -0.02  -0.13   0.12     0.00  -0.04   0.05
  41   8     0.02  -0.02  -0.03     0.14   0.07  -0.10    -0.05   0.03   0.02
  42   1    -0.00  -0.01  -0.00     0.03   0.01  -0.03    -0.02   0.00   0.02
  43   1     0.02  -0.01  -0.01     0.03   0.02   0.00    -0.00   0.01   0.01
  44   8    -0.07  -0.07   0.04     0.03   0.17  -0.14     0.06  -0.02  -0.02
  45   1    -0.01  -0.02   0.02    -0.02   0.07  -0.04     0.02  -0.01  -0.01
  46   1    -0.01  -0.02   0.00     0.02   0.03  -0.04     0.01   0.00  -0.00
  47   8     0.01  -0.05  -0.01     0.14   0.03   0.12    -0.18  -0.04  -0.01
  48   1    -0.00  -0.00  -0.00     0.02  -0.00   0.01    -0.05  -0.01  -0.00
  49   1     0.02  -0.01   0.00     0.03   0.00   0.02    -0.04  -0.01  -0.01
  50   8    -0.01   0.00  -0.05     0.02   0.17  -0.05     0.08  -0.24   0.18
  51   1    -0.00  -0.00  -0.01     0.02  -0.00  -0.02     0.01  -0.04   0.04
  52   1    -0.00   0.00  -0.01    -0.01   0.04  -0.01     0.03  -0.05   0.05
  53   8     0.00  -0.07  -0.00    -0.10   0.15   0.09     0.02   0.18  -0.14
  54   1    -0.00  -0.01  -0.00    -0.01   0.04   0.01     0.01   0.00  -0.01
  55   1    -0.00  -0.03   0.00    -0.02   0.04   0.04     0.02   0.07  -0.04
  56   8     0.01  -0.02   0.00     0.10  -0.02  -0.09    -0.06   0.07   0.09
  57   1     0.01   0.00  -0.01     0.02  -0.00  -0.02    -0.02   0.02   0.03
  58   1    -0.00   0.00   0.01     0.03  -0.01  -0.01    -0.04   0.02  -0.00
  59   8     0.01  -0.04  -0.01     0.03  -0.32   0.03    -0.09   0.06  -0.06
  60   1     0.00  -0.01  -0.00    -0.00  -0.08   0.00    -0.01   0.01  -0.01
  61   1     0.00  -0.01  -0.00     0.01  -0.05   0.02    -0.03   0.01  -0.01
  62   8    -0.00  -0.00  -0.01    -0.07  -0.07  -0.14    -0.18  -0.08   0.01
  63   1    -0.01  -0.01  -0.00    -0.00  -0.01  -0.04    -0.02  -0.02  -0.00
  64   1     0.01   0.00   0.00    -0.02  -0.02  -0.04    -0.03  -0.02   0.00
  65   8    -0.14  -0.04   0.12     0.09   0.02  -0.07    -0.05   0.10  -0.06
  66   1    -0.03  -0.00   0.03     0.01   0.01  -0.02    -0.02   0.03  -0.01
  67   1    -0.04  -0.01   0.02     0.02   0.01  -0.02    -0.01   0.03  -0.03
  68   8    -0.03  -0.01  -0.02    -0.12  -0.16   0.09     0.07  -0.01  -0.01
  69   1    -0.01  -0.01  -0.00    -0.02  -0.01   0.00     0.01  -0.00  -0.00
  70   1    -0.00  -0.01  -0.00    -0.04  -0.05   0.05     0.02  -0.01   0.01
  71   8    -0.22   0.08   0.16     0.09   0.05  -0.14     0.09  -0.11  -0.06
  72   1    -0.05   0.01   0.04     0.01   0.03  -0.04     0.02  -0.02  -0.01
  73   1    -0.05   0.01   0.04     0.02   0.01  -0.03     0.01  -0.01  -0.02
  74   8     0.00   0.18  -0.31     0.06  -0.08   0.06    -0.05   0.15  -0.11
  75   1     0.02   0.03  -0.07     0.02  -0.02   0.01    -0.01   0.03  -0.02
  76   1     0.05   0.05  -0.09     0.00  -0.02   0.02    -0.01   0.04  -0.02
  77   8     0.23   0.09   0.06     0.01  -0.07  -0.05     0.03   0.06  -0.08
  78   1     0.04   0.03   0.00    -0.01  -0.01  -0.02     0.01   0.01  -0.02
  79   1     0.02   0.04  -0.02     0.01  -0.02  -0.01     0.00   0.02  -0.02
  80   8     0.02  -0.01   0.06     0.02  -0.05  -0.02     0.05  -0.06  -0.03
  81   1     0.00  -0.01   0.02     0.02  -0.00  -0.01     0.02  -0.02  -0.01
  82   1     0.00  -0.01   0.02     0.00  -0.01   0.01     0.01  -0.01   0.00
  83   8     0.15   0.23   0.12     0.04  -0.14   0.06    -0.01  -0.19   0.01
  84   1     0.02   0.05   0.03     0.00  -0.05   0.01     0.00  -0.04   0.01
  85   1     0.02   0.04   0.03     0.02  -0.02   0.01     0.00  -0.05   0.00
  86   8     0.00   0.04  -0.05     0.01  -0.07  -0.07     0.01   0.16   0.03
  87   1    -0.00   0.02  -0.01    -0.02   0.00  -0.02     0.01   0.02  -0.00
  88   1     0.00   0.01  -0.01    -0.01  -0.02  -0.00     0.01   0.03   0.00
  89   8    -0.10  -0.06   0.03    -0.06   0.10  -0.07     0.05   0.12   0.07
  90   1    -0.01  -0.01  -0.00    -0.03   0.02  -0.01     0.01   0.03   0.02
  91   1    -0.04  -0.01   0.01    -0.00   0.02  -0.02     0.02   0.02   0.01
                     25                     26                     27
                        a                      a                      a 
 Frequencies --    83.1283                83.1874                84.8212
 Red. masses --    13.6706                13.0848                14.4049
 Frc consts  --     0.0000                 0.0000                 0.0000
 IR Inten    --     2.5876                 4.1095                 6.0483
 Raman Activ --     0.0000                 0.0000                 0.0000
 Depolar     --     0.0000                 0.0000                 0.0000
 Atom AN      X      Y      Z        X      Y      Z        X      Y      Z
   1   1    -0.02  -0.00   0.02     0.06   0.04   0.03     0.02  -0.02   0.01
   2   6     0.02  -0.03   0.05     0.18  -0.04   0.14     0.05  -0.03   0.03
   3   1     0.00  -0.01  -0.01     0.06  -0.05   0.06     0.02  -0.02   0.01
   4   1     0.02  -0.01   0.03     0.09  -0.01   0.07     0.02  -0.00  -0.00
   5   6     0.10  -0.06   0.05    -0.01  -0.11   0.00     0.02   0.01   0.06
   6   1     0.03  -0.01   0.01    -0.01  -0.07   0.02    -0.01   0.02   0.02
   7   6     0.10  -0.13   0.08    -0.02   0.04  -0.09     0.01   0.01   0.01
   8   1     0.05  -0.03   0.05    -0.04   0.02  -0.05    -0.00   0.00  -0.00
   9   1     0.02  -0.07   0.02     0.01   0.04  -0.03     0.01   0.01   0.00
  10   6     0.15  -0.03   0.03    -0.13  -0.12  -0.10     0.05  -0.00   0.14
  11   1     0.06  -0.01   0.01    -0.06  -0.05  -0.05     0.01   0.01   0.05
  12   1     0.04   0.01   0.00    -0.04  -0.06  -0.02     0.02   0.00   0.05
  13   1     0.04  -0.02   0.01    -0.04  -0.00  -0.04     0.03  -0.01   0.04
  14   7     0.07  -0.07   0.01     0.04   0.04  -0.07    -0.02  -0.01   0.02
  15   1     0.02  -0.02  -0.01     0.03   0.00  -0.00    -0.01   0.00   0.00
  16   1     0.02  -0.03  -0.00     0.01   0.03  -0.02    -0.01  -0.01   0.01
  17   8    -0.05  -0.02   0.04     0.27  -0.13   0.11    -0.12   0.02   0.03
  18   1    -0.01   0.01   0.00     0.06  -0.00   0.04    -0.02   0.00  -0.00
  19   1    -0.00  -0.02   0.02     0.06  -0.03   0.02    -0.02  -0.01   0.01
  20   8     0.03   0.07  -0.02    -0.08  -0.00   0.01     0.13   0.04   0.02
  21   1     0.01   0.02  -0.01    -0.03   0.03   0.03     0.02  -0.03   0.02
  22   1     0.00   0.01   0.00     0.02  -0.01   0.01     0.01   0.01   0.00
  23   8    -0.12   0.01   0.10    -0.09   0.01  -0.12     0.20   0.06   0.16
  24   1    -0.02   0.01   0.02    -0.02   0.00  -0.03     0.05   0.02   0.03
  25   1    -0.05  -0.00   0.01    -0.02   0.01  -0.02     0.04   0.02   0.03
  26   8    -0.13  -0.05   0.10    -0.04   0.06   0.03    -0.02   0.01   0.02
  27   1    -0.02  -0.01   0.01    -0.01   0.01  -0.00    -0.01   0.00   0.00
  28   1    -0.03   0.00   0.03    -0.00   0.02   0.02    -0.00   0.01   0.01
  29   8    -0.14  -0.10  -0.06    -0.05   0.02  -0.02     0.06   0.05  -0.03
  30   1    -0.03  -0.02  -0.02    -0.03  -0.01   0.00    -0.00   0.00  -0.01
  31   1    -0.04  -0.03  -0.00    -0.00  -0.01  -0.01     0.03   0.00  -0.02
  32   8    -0.07  -0.06   0.24    -0.01   0.01   0.14     0.13  -0.02   0.06
  33   1    -0.02  -0.01   0.06     0.02  -0.01   0.05     0.02  -0.00   0.01
  34   1    -0.02  -0.01   0.05    -0.01   0.01   0.01     0.04  -0.01   0.03
  35   8     0.15   0.21  -0.20     0.16   0.11  -0.07     0.08  -0.50  -0.04
  36   1     0.04   0.03  -0.02     0.04   0.02   0.01    -0.01  -0.08  -0.01
  37   1    -0.01   0.06  -0.04     0.01   0.03  -0.02     0.07  -0.13  -0.01
  38   8    -0.02   0.02  -0.05     0.06  -0.13  -0.02     0.03  -0.01  -0.11
  39   1    -0.01   0.00  -0.00     0.02  -0.01  -0.01     0.01   0.01  -0.02
  40   1     0.03   0.09  -0.12    -0.04  -0.12   0.09    -0.02  -0.03   0.00
  41   8    -0.05  -0.07   0.19     0.02  -0.05  -0.02    -0.23   0.11   0.07
  42   1    -0.00  -0.01   0.03     0.00  -0.01   0.00    -0.06   0.02  -0.00
  43   1    -0.03  -0.01   0.06     0.00  -0.01   0.01    -0.04   0.03   0.03
  44   8     0.14   0.06  -0.03     0.06   0.06  -0.14     0.04  -0.03   0.02
  45   1     0.04  -0.00  -0.02     0.00   0.02  -0.05     0.01  -0.02  -0.00
  46   1     0.02   0.01   0.01     0.01   0.00  -0.02    -0.01   0.00   0.01
  47   8    -0.12   0.20  -0.00     0.06   0.08   0.05    -0.03   0.10   0.02
  48   1    -0.03   0.03  -0.01     0.01   0.01   0.00    -0.00   0.03   0.01
  49   1    -0.04   0.05   0.01    -0.01   0.01  -0.01    -0.02   0.01  -0.02
  50   8     0.04   0.07   0.03    -0.11  -0.03   0.05     0.05   0.04  -0.04
  51   1     0.01   0.02   0.01    -0.03   0.02   0.02     0.01  -0.00  -0.02
  52   1     0.00   0.01   0.01    -0.02  -0.00   0.01     0.01   0.01  -0.01
  53   8     0.10  -0.13   0.15     0.07  -0.12  -0.07     0.01  -0.13   0.15
  54   1     0.03  -0.01   0.02    -0.00  -0.02  -0.00     0.01  -0.02   0.02
  55   1     0.02  -0.05   0.05     0.01  -0.04  -0.05    -0.00  -0.05   0.05
  56   8     0.04   0.03  -0.04     0.01  -0.04   0.09    -0.20   0.18  -0.25
  57   1     0.01   0.01  -0.01    -0.01  -0.01   0.03    -0.03   0.04  -0.05
  58   1     0.01   0.01  -0.01    -0.01  -0.01   0.01    -0.04   0.04  -0.04
  59   8    -0.05   0.14  -0.10     0.05   0.23   0.17    -0.00  -0.06  -0.09
  60   1    -0.00   0.03  -0.02     0.02   0.04   0.03     0.00  -0.01  -0.02
  61   1    -0.02   0.04  -0.02     0.01   0.05   0.04    -0.00  -0.00  -0.01
  62   8    -0.10  -0.22  -0.02    -0.04   0.08  -0.08    -0.01   0.12   0.05
  63   1     0.00  -0.03  -0.01    -0.00   0.02  -0.02    -0.00   0.03   0.01
  64   1    -0.04  -0.06  -0.01    -0.00   0.02  -0.02     0.00   0.03   0.01
  65   8    -0.00  -0.07   0.03    -0.03   0.10  -0.05    -0.02  -0.01   0.03
  66   1     0.00  -0.01   0.01    -0.00   0.01  -0.02    -0.00  -0.00   0.01
  67   1    -0.00  -0.02   0.00    -0.02   0.01  -0.00    -0.01  -0.01   0.01
  68   8     0.10   0.08  -0.10     0.02   0.00  -0.09     0.07  -0.02   0.01
  69   1     0.03   0.02  -0.01     0.00   0.00  -0.02     0.02  -0.00  -0.00
  70   1     0.01   0.04  -0.04     0.00   0.02  -0.05     0.02  -0.02   0.02
  71   8    -0.08   0.07  -0.07    -0.03   0.09   0.05    -0.07   0.06  -0.01
  72   1    -0.03   0.02  -0.02    -0.01   0.03   0.02    -0.02   0.02  -0.00
  73   1    -0.02   0.00  -0.01    -0.01   0.03   0.00    -0.01   0.01   0.00
  74   8     0.09   0.06  -0.17    -0.17  -0.10   0.14    -0.04  -0.08   0.07
  75   1     0.01   0.02  -0.04    -0.02  -0.03   0.02    -0.00  -0.02   0.01
  76   1     0.05   0.01  -0.05    -0.07  -0.02   0.04    -0.01  -0.03   0.02
  77   8    -0.07   0.23   0.01    -0.22  -0.11  -0.17    -0.18  -0.03  -0.24
  78   1    -0.01   0.04   0.01    -0.03  -0.03  -0.03    -0.03  -0.01  -0.05
  79   1    -0.01   0.05   0.01    -0.03  -0.04  -0.02    -0.02  -0.02  -0.04
  80   8    -0.07  -0.23  -0.09     0.13   0.10  -0.06     0.05   0.12  -0.13
  81   1     0.01  -0.01  -0.04     0.05   0.02  -0.02     0.01  -0.03  -0.02
  82   1    -0.02  -0.05  -0.01     0.04   0.05  -0.01     0.01   0.04  -0.02
  83   8    -0.03   0.03  -0.02     0.10   0.13   0.02     0.02   0.08  -0.00
  84   1    -0.02  -0.00  -0.01     0.01   0.03   0.00     0.01   0.02  -0.00
  85   1    -0.01   0.01  -0.01     0.02   0.03   0.01     0.00   0.02  -0.00
  86   8     0.04  -0.03   0.01    -0.08  -0.07   0.09     0.03   0.04   0.03
  87   1     0.01  -0.00   0.01     0.01  -0.04   0.03     0.00   0.02   0.01
  88   1     0.01  -0.01   0.00    -0.01  -0.01   0.01     0.01  -0.00   0.01
  89   8    -0.04  -0.02  -0.11    -0.15  -0.13   0.04    -0.10  -0.08  -0.04
  90   1     0.01  -0.01  -0.02    -0.01  -0.03  -0.01    -0.01  -0.02  -0.01
  91   1    -0.01  -0.01  -0.03    -0.03  -0.02   0.01    -0.02  -0.02  -0.01
                     28                     29                     30
                        a                      a                      a 
 Frequencies --    86.7999                89.8697                92.8453
 Red. masses --    13.7146                13.9201                13.7947
 Frc consts  --     0.0000                 0.0000                 0.0000
 IR Inten    --     3.1856                 0.6756                 2.3825
 Raman Activ --     0.0000                 0.0000                 0.0000
 Depolar     --     0.0000                 0.0000                 0.0000
 Atom AN      X      Y      Z        X      Y      Z        X      Y      Z
   1   1     0.01   0.03  -0.03     0.01   0.00   0.00     0.07  -0.00   0.02
   2   6    -0.00   0.10  -0.08    -0.02   0.02   0.02     0.14  -0.00   0.11
   3   1     0.00   0.02  -0.01    -0.00   0.00   0.03     0.04   0.00   0.07
   4   1     0.00   0.03  -0.03    -0.01   0.01  -0.01     0.02  -0.00   0.02
   5   6    -0.08   0.13  -0.07    -0.10   0.05   0.02     0.03  -0.01   0.06
   6   1    -0.04   0.05  -0.01    -0.04   0.01   0.01    -0.01  -0.01   0.03
   7   6    -0.09   0.16  -0.15    -0.11   0.09  -0.07     0.01   0.04  -0.05
   8   1    -0.04   0.04  -0.08    -0.05   0.02  -0.04    -0.02   0.01  -0.03
   9   1    -0.01   0.08  -0.05    -0.01   0.04  -0.03     0.03   0.02  -0.03
  10   6    -0.07   0.11   0.01    -0.10   0.03   0.06     0.03  -0.02   0.07
  11   1    -0.03   0.04   0.01    -0.06   0.01   0.01    -0.02  -0.01   0.00
  12   1    -0.02   0.03   0.02    -0.02   0.00   0.05     0.01  -0.01   0.05
  13   1    -0.01   0.02   0.00    -0.01   0.01   0.00     0.03   0.01   0.00
  14   7    -0.10   0.08  -0.07    -0.14   0.07  -0.06    -0.02   0.04  -0.07
  15   1    -0.04   0.03  -0.00    -0.04   0.02  -0.01    -0.00   0.01  -0.01
  16   1    -0.03   0.01   0.00    -0.04   0.01  -0.02    -0.01   0.01  -0.02
  17   8     0.06  -0.08   0.03    -0.05  -0.01   0.03     0.03  -0.09   0.07
  18   1     0.02  -0.01  -0.01    -0.01  -0.00   0.00     0.01  -0.01   0.02
  19   1     0.03  -0.03   0.02    -0.01   0.00   0.01     0.01  -0.02   0.02
  20   8    -0.04  -0.03  -0.04     0.15  -0.03   0.03    -0.05   0.05  -0.06
  21   1    -0.01   0.00  -0.01     0.03  -0.03   0.02    -0.01   0.02  -0.01
  22   1    -0.00  -0.01  -0.01     0.03  -0.01   0.01    -0.01   0.00  -0.01
  23   8     0.03  -0.03   0.04    -0.05  -0.10  -0.43     0.15   0.11   0.24
  24   1    -0.00  -0.01  -0.00     0.02  -0.01  -0.08     0.02   0.02   0.04
  25   1    -0.00  -0.01   0.00     0.03  -0.01  -0.07     0.03   0.03   0.05
  26   8    -0.00  -0.03   0.02     0.01  -0.05   0.00     0.10   0.03  -0.10
  27   1    -0.01  -0.01  -0.01     0.00  -0.01  -0.01     0.03   0.01  -0.02
  28   1     0.00  -0.01   0.01     0.00  -0.01   0.00     0.02   0.01  -0.03
[...]
  35   8    -0.00   0.00  -0.00    -0.00  -0.00   0.00    -0.00  -0.00   0.00
  36   1     0.00   0.00   0.00     0.00  -0.00   0.00     0.00   0.00   0.00
  37   1    -0.00  -0.00   0.00     0.00   0.02  -0.01     0.00   0.00  -0.00
  38   8    -0.00   0.00   0.00    -0.00   0.00   0.00    -0.00   0.00   0.00
  39   1    -0.00   0.00  -0.00    -0.00   0.00   0.00    -0.00   0.00  -0.00
  40   1     0.00  -0.00  -0.00     0.00  -0.00  -0.00     0.00  -0.01  -0.00
  41   8    -0.00  -0.00   0.00    -0.00  -0.00  -0.00     0.00  -0.00   0.00
  42   1     0.00  -0.00  -0.00     0.00   0.00   0.00    -0.00   0.00  -0.00
  43   1     0.00   0.00  -0.00     0.00  -0.00   0.00     0.00   0.00  -0.00
  44   8    -0.04  -0.03   0.03     0.14   0.12  -0.12     0.03   0.02  -0.02
  45   1     0.16   0.13  -0.14    -0.59  -0.48   0.50    -0.12  -0.10   0.10
  46   1    -0.01  -0.01   0.00     0.02   0.02  -0.00     0.00   0.00  -0.00
  47   8    -0.00  -0.00   0.00    -0.00  -0.00   0.00     0.00  -0.00   0.00
  48   1     0.00   0.00  -0.00     0.00   0.00  -0.00     0.00   0.00  -0.00
  49   1    -0.00   0.00  -0.00    -0.00   0.00  -0.00    -0.00   0.00  -0.00
  50   8    -0.00  -0.00   0.00    -0.00  -0.00   0.00    -0.00  -0.00   0.00
  51   1     0.00   0.00  -0.00     0.00   0.00  -0.00     0.00   0.00  -0.00
  52   1    -0.00   0.00  -0.00    -0.00   0.00  -0.00    -0.00   0.00  -0.00
  53   8     0.00  -0.00  -0.00     0.00  -0.00  -0.00     0.00  -0.00  -0.00
  54   1     0.00   0.00   0.00     0.00   0.00   0.00     0.00  -0.00   0.00
  55   1    -0.00   0.00   0.00    -0.01   0.00   0.00    -0.01   0.01   0.00
  56   8    -0.00   0.00   0.00    -0.00  -0.00   0.00     0.00   0.00  -0.00
  57   1     0.00  -0.00  -0.00     0.00  -0.00  -0.00    -0.00   0.00  -0.00
  58   1     0.00   0.00  -0.00     0.01   0.00  -0.00    -0.02  -0.02   0.01
  59   8    -0.00  -0.00   0.00    -0.00  -0.00   0.00    -0.00  -0.00   0.00
  60   1     0.02   0.02  -0.02     0.01   0.01  -0.01     0.00   0.00  -0.00
  61   1     0.00   0.00  -0.00     0.00   0.00   0.00    -0.00   0.00  -0.00
  62   8    -0.00   0.00  -0.00     0.00  -0.00   0.01     0.00  -0.00   0.00
  63   1     0.00  -0.00   0.01    -0.00   0.01  -0.02    -0.00   0.00  -0.00
  64   1    -0.00   0.00  -0.00     0.00   0.00   0.00    -0.00   0.00  -0.00
  65   8     0.00  -0.00   0.00     0.00  -0.00  -0.00     0.00  -0.00   0.00
  66   1     0.00   0.00  -0.00     0.00  -0.00   0.00     0.00   0.00  -0.00
  67   1    -0.00   0.00  -0.00    -0.00   0.00  -0.00    -0.00   0.00  -0.00
  68   8     0.14   0.16   0.09     0.03   0.04   0.02     0.01   0.01   0.01
  69   1    -0.00   0.03   0.02     0.01  -0.00  -0.00     0.00   0.00  -0.00
  70   1    -0.55  -0.67  -0.37    -0.14  -0.17  -0.09    -0.04  -0.05  -0.03
  71   8     0.00   0.00  -0.00     0.00   0.00  -0.00     0.00   0.00  -0.00
  72   1    -0.00  -0.00   0.00    -0.00  -0.00   0.00    -0.00  -0.00   0.00
  73   1     0.00   0.00   0.00     0.00   0.00  -0.00     0.00   0.00  -0.00
  74   8    -0.00   0.00  -0.00    -0.00   0.00  -0.01    -0.01   0.02  -0.03
  75   1     0.00   0.00   0.00    -0.00  -0.00  -0.00    -0.00  -0.00  -0.01
  76   1     0.00  -0.00   0.00     0.01  -0.02   0.04     0.04  -0.06   0.12
  77   8    -0.00  -0.00   0.00     0.00  -0.00  -0.00    -0.00  -0.00  -0.00
  78   1    -0.00   0.00  -0.00    -0.00   0.00   0.00    -0.00   0.00   0.00
  79   1     0.00   0.00  -0.00     0.00   0.00  -0.00     0.00   0.00  -0.00
  80   8     0.00  -0.00   0.00    -0.02   0.01  -0.00    -0.02   0.00  -0.00
  81   1     0.00   0.00   0.00    -0.00   0.00  -0.00    -0.00   0.00  -0.00
  82   1    -0.00   0.00  -0.00     0.10  -0.02   0.01     0.07  -0.02   0.01
  83   8     0.00  -0.00   0.00    -0.00   0.00   0.00     0.00  -0.00   0.00
  84   1    -0.00   0.00  -0.00     0.00  -0.00   0.00    -0.00   0.00  -0.00
  85   1     0.00  -0.00  -0.00     0.00  -0.00  -0.00     0.00  -0.00  -0.00
  86   8    -0.01  -0.00  -0.00    -0.00  -0.00  -0.00    -0.00   0.00  -0.00
  87   1    -0.00  -0.00   0.00    -0.00   0.00  -0.00    -0.00  -0.00   0.00
  88   1     0.03   0.01   0.02     0.01   0.00   0.01     0.00   0.00   0.00
  89   8    -0.00   0.00   0.00     0.00   0.00   0.00    -0.00   0.00   0.00
  90   1     0.00  -0.00   0.00    -0.00  -0.00   0.00     0.00  -0.00  -0.00
  91   1    -0.00   0.00  -0.00    -0.00   0.00  -0.00    -0.00   0.00  -0.00
                    262                    263                    264
                        a                      a                      a 
 Frequencies --  3672.7768              3673.5624              3675.3057
 Red. masses --     1.8316                 1.8351                 1.8332
 Frc consts  --     0.0000                 0.0000                 0.0000
 IR Inten    --     9.5772                13.4203                12.1655
 Raman Activ --     0.0000                 0.0000                 0.0000
 Depolar     --     0.0000                 0.0000                 0.0000
 Atom AN      X      Y      Z        X      Y      Z        X      Y      Z
   1   1     0.00   0.00  -0.00    -0.00   0.00   0.00     0.00   0.00   0.00
   2   6    -0.00  -0.00  -0.00     0.00   0.00  -0.00    -0.00   0.00  -0.00
   3   1     0.00   0.00  -0.00    -0.00  -0.00   0.00    -0.00  -0.00   0.00
   4   1     0.00  -0.00  -0.00    -0.00  -0.00  -0.00     0.00  -0.00   0.00
   5   6     0.00   0.00   0.00     0.00   0.00   0.00     0.00   0.00  -0.00
   6   1    -0.00  -0.00  -0.00    -0.00  -0.00  -0.00    -0.00  -0.00  -0.00
   7   6    -0.00  -0.00   0.00     0.00  -0.00  -0.00    -0.00  -0.00  -0.00
   8   1     0.00   0.00  -0.00    -0.00  -0.00   0.00    -0.00   0.00   0.00
   9   1     0.00   0.00  -0.00    -0.00   0.00   0.00     0.00  -0.00   0.00
  10   6    -0.00  -0.00   0.00     0.00  -0.00  -0.00     0.00  -0.00  -0.00
  11   1    -0.00   0.00  -0.00    -0.00   0.00  -0.00     0.00   0.00   0.00
  12   1    -0.00   0.00  -0.00    -0.00   0.00  -0.00    -0.00   0.00   0.00
  13   1     0.00   0.00  -0.00     0.00   0.00   0.00     0.00   0.00   0.00
  14   7     0.00  -0.00   0.00     0.00  -0.00   0.00     0.00  -0.00   0.00
  15   1     0.00   0.00  -0.00     0.00   0.00  -0.00     0.00   0.00  -0.00
  16   1    -0.00   0.00  -0.00    -0.00   0.00  -0.00    -0.00   0.00  -0.00
  17   8     0.00  -0.00  -0.00     0.00   0.00  -0.00     0.00   0.00  -0.00
  18   1    -0.00  -0.00  -0.00    -0.00  -0.00  -0.00     0.00   0.00   0.00
  19   1    -0.00  -0.00   0.00    -0.00  -0.00   0.00    -0.00  -0.00   0.00
  20   8     0.02  -0.00   0.01     0.01  -0.00   0.01     0.01  -0.00   0.01
  21   1    -0.10   0.02  -0.05    -0.06   0.01  -0.03    -0.04   0.01  -0.02
  22   1     0.00   0.00   0.00     0.00   0.00   0.00     0.00   0.00   0.00
  23   8    -0.00   0.00   0.00    -0.00   0.00  -0.00     0.00   0.00  -0.00
  24   1     0.00  -0.00   0.00     0.00  -0.00   0.00     0.00  -0.00   0.00
  25   1     0.00   0.00  -0.00    -0.00  -0.00   0.00     0.00   0.00  -0.00
  26   8    -0.00  -0.00   0.00     0.00  -0.00  -0.00     0.00  -0.00  -0.00
  27   1    -0.00   0.00  -0.00    -0.00   0.00  -0.00    -0.00   0.00   0.00
  28   1     0.00   0.00  -0.00    -0.00  -0.00   0.00    -0.00  -0.00   0.00
  29   8     0.00   0.00   0.00     0.00   0.00   0.00     0.00   0.00   0.00
  30   1     0.00   0.00   0.00     0.00   0.00   0.00     0.00   0.00   0.00
  31   1    -0.01  -0.01  -0.01    -0.01  -0.00  -0.00    -0.01  -0.01  -0.00
  32   8     0.00  -0.00  -0.01     0.00  -0.01  -0.02    -0.01   0.11   0.20
  33   1    -0.00   0.02   0.03    -0.01   0.04   0.08     0.08  -0.47  -0.84
  34   1     0.00  -0.00  -0.00     0.00  -0.00  -0.00    -0.03   0.01   0.03
  35   8     0.00  -0.00   0.00     0.00   0.00   0.00    -0.00  -0.00  -0.00
  36   1    -0.00  -0.00  -0.00     0.00   0.00  -0.00     0.01   0.01   0.01
  37   1     0.00   0.00  -0.00    -0.00  -0.00   0.00    -0.00  -0.00   0.00
  38   8    -0.00   0.01   0.00    -0.00   0.00   0.00     0.00  -0.00  -0.00
  39   1    -0.00   0.00  -0.00    -0.00   0.00  -0.00    -0.00  -0.00   0.00
  40   1     0.01  -0.02  -0.02     0.00  -0.00  -0.00    -0.00   0.00   0.00
  41   8     0.00   0.00   0.00     0.00   0.00   0.00    -0.00  -0.01   0.00
  42   1     0.00  -0.00   0.00    -0.00   0.00  -0.00     0.00  -0.00   0.00
  43   1    -0.00  -0.00  -0.00    -0.00  -0.00   0.00     0.01   0.02  -0.00
  44   8    -0.01  -0.01   0.01    -0.02  -0.01   0.02    -0.01  -0.01   0.01
  45   1     0.03   0.03  -0.03     0.07   0.06  -0.06     0.04   0.03  -0.03
  46   1    -0.00  -0.00   0.00    -0.00  -0.00  -0.00    -0.00  -0.00   0.00
  47   8    -0.00  -0.00   0.00     0.00  -0.00  -0.00     0.00  -0.00  -0.00
  48   1     0.00   0.00  -0.00    -0.00  -0.00   0.00    -0.00  -0.00   0.00
  49   1    -0.00   0.00  -0.00    -0.00   0.00  -0.00    -0.00   0.00  -0.00
  50   8     0.00  -0.00   0.00     0.00  -0.00   0.00     0.00   0.00  -0.00
  51   1     0.00   0.00  -0.00    -0.00   0.00  -0.00    -0.00  -0.00   0.00
  52   1    -0.00   0.00  -0.00    -0.00   0.00  -0.00    -0.00  -0.00   0.00
  53   8    -0.00   0.00   0.00    -0.00   0.00   0.00    -0.00   0.00   0.00
  54   1    -0.00   0.00  -0.00    -0.00  -0.00  -0.00    -0.00   0.00  -0.00
  55   1     0.01  -0.01  -0.00     0.02  -0.01  -0.00     0.02  -0.01  -0.00
  56   8    -0.00  -0.00   0.00    -0.00  -0.00   0.00    -0.00  -0.00   0.00
  57   1    -0.00   0.00   0.00    -0.00   0.00   0.00    -0.00   0.00   0.00
  58   1     0.00   0.00  -0.00     0.00   0.00  -0.00     0.00   0.00  -0.00
  59   8     0.00   0.00  -0.00     0.00   0.00  -0.00     0.00   0.00  -0.00
  60   1    -0.00  -0.00   0.00    -0.00  -0.00   0.00    -0.00  -0.00   0.00
  61   1    -0.00   0.00  -0.00    -0.00   0.00  -0.00     0.00  -0.00   0.00
  62   8    -0.00   0.00  -0.00     0.00  -0.01  -0.00     0.00  -0.00  -0.00
  63   1     0.00  -0.00   0.00     0.00  -0.00   0.01     0.00  -0.00   0.00
  64   1     0.00  -0.00   0.00    -0.01   0.03  -0.00    -0.00   0.00  -0.00
  65   8     0.01  -0.00   0.00     0.00  -0.00   0.00     0.00  -0.00   0.00
  66   1     0.00  -0.00   0.00     0.00  -0.00  -0.00     0.00  -0.00   0.00
  67   1    -0.02   0.02  -0.00    -0.00   0.00  -0.00    -0.00   0.00  -0.00
  68   8    -0.00  -0.00  -0.00    -0.00  -0.01  -0.00    -0.00  -0.00  -0.00
  69   1    -0.00  -0.00   0.00    -0.00   0.00   0.00    -0.00   0.00   0.00
  70   1     0.01   0.01   0.01     0.02   0.02   0.01     0.01   0.02   0.01
  71   8    -0.00  -0.00   0.00    -0.00  -0.00   0.00    -0.00  -0.00   0.00
  72   1     0.01   0.00  -0.01     0.00   0.00  -0.01     0.00   0.00  -0.01
  73   1    -0.00  -0.00   0.00    -0.00  -0.00   0.00    -0.00  -0.00   0.00
  74   8    -0.06   0.11  -0.19    -0.01   0.02  -0.03    -0.00   0.00  -0.01
  75   1    -0.02  -0.01  -0.04    -0.00  -0.00  -0.01    -0.00  -0.00  -0.00
  76   1     0.26  -0.43   0.80     0.04  -0.06   0.12     0.01  -0.02   0.03
  77   8    -0.00  -0.00   0.00     0.00  -0.00  -0.00     0.00  -0.00  -0.00
  78   1     0.00  -0.00  -0.00    -0.01   0.00   0.02    -0.00   0.00   0.00
  79   1     0.01   0.02  -0.01     0.00   0.00  -0.00     0.00   0.00  -0.00
  80   8     0.04  -0.01   0.00    -0.22   0.05  -0.03    -0.02   0.00  -0.00
  81   1     0.00  -0.00   0.00    -0.03   0.00  -0.02    -0.00   0.00  -0.00
  82   1    -0.15   0.04  -0.02     0.91  -0.22   0.13     0.07  -0.02   0.01
  83   8     0.00  -0.00  -0.00     0.00  -0.00  -0.00     0.00  -0.00  -0.00
  84   1     0.00  -0.00   0.00     0.00  -0.00   0.00     0.00  -0.00   0.00
  85   1    -0.00   0.00   0.00    -0.00   0.00   0.00    -0.00   0.00   0.00
  86   8     0.00  -0.00   0.00     0.00   0.00   0.00     0.00  -0.00   0.00
  87   1     0.00   0.00  -0.00     0.00   0.00   0.00     0.00   0.00  -0.00
  88   1    -0.00  -0.00  -0.00    -0.00  -0.00  -0.00    -0.00  -0.00  -0.00
  89   8     0.00  -0.00   0.00     0.00  -0.00  -0.00    -0.00  -0.00  -0.00
  90   1    -0.00   0.00   0.00    -0.00   0.00   0.00    -0.00   0.00   0.00
  91   1    -0.00   0.00  -0.00     0.00  -0.00   0.00     0.00  -0.00   0.00
                    265                    266                    267
                        a                      a                      a 
 Frequencies --  3678.2095              3679.7703              3684.0009
 Red. masses --     1.8396                 1.8386                 1.8416
 Frc consts  --     0.0000                 0.0000                 0.0000
 IR Inten    --     8.6242                 8.8983                10.0765
 Raman Activ --     0.0000                 0.0000                 0.0000
 Depolar     --     0.0000                 0.0000                 0.0000
 Atom AN      X      Y      Z        X      Y      Z        X      Y      Z
   1   1     0.00  -0.00   0.00     0.00  -0.00   0.00     0.00   0.00   0.00
   2   6    -0.00   0.00  -0.00    -0.00   0.00   0.00     0.00   0.00  -0.00
   3   1     0.00  -0.00  -0.00    -0.00  -0.00   0.00     0.00   0.00  -0.00
   4   1     0.00  -0.00   0.00    -0.00   0.00  -0.00     0.00  -0.00  -0.00
   5   6     0.00  -0.00  -0.00    -0.00   0.00  -0.00     0.00   0.00   0.00
   6   1    -0.00   0.00  -0.00     0.00   0.00   0.00    -0.00  -0.00  -0.00
   7   6    -0.00   0.00  -0.00     0.00   0.00   0.00    -0.00  -0.00   0.00
   8   1     0.00  -0.00  -0.00     0.00   0.00  -0.00     0.00   0.00  -0.00
   9   1     0.00  -0.00   0.00     0.00  -0.00   0.00     0.00   0.00   0.00
  10   6     0.00   0.00  -0.00     0.00   0.00  -0.00    -0.00  -0.00   0.00
  11   1    -0.00  -0.00   0.00    -0.00  -0.00   0.00     0.00   0.00  -0.00
  12   1     0.00  -0.00  -0.00     0.00   0.00  -0.00     0.00   0.00  -0.00
  13   1    -0.00   0.00  -0.00     0.00   0.00   0.00     0.00   0.00   0.00
  14   7    -0.00   0.00   0.00     0.00   0.00   0.00    -0.00  -0.00   0.00
  15   1    -0.00  -0.00   0.00    -0.00  -0.00   0.00     0.00   0.00  -0.00
  16   1     0.01  -0.00   0.00    -0.00   0.00  -0.00     0.00  -0.00  -0.00
  17   8    -0.00  -0.00   0.00     0.00   0.00  -0.00    -0.00  -0.00   0.00
  18   1    -0.00  -0.00  -0.00     0.00   0.00   0.00    -0.00  -0.00   0.00
  19   1     0.02   0.00  -0.02    -0.00  -0.00   0.00     0.00   0.00  -0.00
  20   8     0.00  -0.00   0.00    -0.00   0.00  -0.00     0.00  -0.00   0.00
  21   1    -0.01   0.00  -0.01     0.00  -0.00   0.00    -0.00   0.00  -0.00
  22   1     0.00   0.00   0.00    -0.00  -0.00  -0.00     0.00  -0.00   0.00
  23   8    -0.00   0.00   0.00     0.00   0.00  -0.00    -0.00  -0.00   0.00
  24   1     0.00  -0.00   0.00     0.00  -0.00   0.00     0.00  -0.00   0.00
  25   1     0.00   0.00  -0.00    -0.00  -0.00   0.00     0.00   0.00  -0.00
  26   8    -0.00   0.00   0.00    -0.00  -0.00   0.00    -0.00  -0.00   0.00
  27   1     0.00  -0.00  -0.00     0.00   0.00  -0.00     0.00   0.00  -0.00
  28   1     0.00   0.00  -0.00     0.00  -0.00  -0.00     0.00   0.00  -0.00
  29   8     0.00   0.00   0.00    -0.00  -0.00  -0.00     0.00   0.00   0.00
  30   1     0.00  -0.00  -0.00     0.00  -0.00  -0.00     0.00   0.00   0.00
  31   1    -0.01  -0.00  -0.00     0.00   0.00   0.00    -0.01  -0.01  -0.01
  32   8    -0.00   0.00   0.00     0.00  -0.00  -0.00    -0.00   0.00   0.00
  33   1     0.00  -0.01  -0.02    -0.00   0.00   0.00     0.00  -0.00  -0.01
  34   1    -0.00   0.00   0.00    -0.00  -0.00   0.00    -0.00   0.00   0.00
  35   8    -0.00  -0.00  -0.00     0.00   0.00  -0.00    -0.00  -0.00   0.00
  36   1     0.00   0.00   0.00    -0.00  -0.00   0.00     0.00   0.00   0.00
  37   1    -0.00  -0.00   0.00    -0.00  -0.00   0.00     0.00   0.00  -0.00
  38   8     0.00  -0.01  -0.00     0.07  -0.18  -0.13    -0.00   0.00   0.00
  39   1     0.00  -0.00  -0.00     0.03  -0.02  -0.01    -0.00   0.00  -0.00
  40   1    -0.01   0.03   0.02    -0.30   0.76   0.52     0.01  -0.02  -0.01
  41   8    -0.00  -0.00   0.00     0.00   0.00  -0.00    -0.00  -0.00   0.00
  42   1     0.00  -0.00   0.00     0.00  -0.00   0.00    -0.00   0.00  -0.00
  43   1     0.00   0.00   0.00    -0.00  -0.00   0.00     0.00   0.00  -0.00
  44   8    -0.00  -0.00   0.00     0.00   0.00  -0.00    -0.00  -0.00   0.00
  45   1     0.01   0.01  -0.01    -0.00  -0.00   0.00     0.01   0.00  -0.00
  46   1    -0.00  -0.00   0.00     0.00   0.00  -0.00    -0.00  -0.00   0.00
  47   8    -0.00   0.00   0.00     0.00   0.00  -0.00    -0.00  -0.00   0.00
  48   1     0.00   0.00  -0.00    -0.00  -0.00   0.00     0.00   0.00  -0.00
  49   1     0.00  -0.00  -0.00     0.00  -0.00  -0.00     0.00   0.00  -0.00
  50   8    -0.00  -0.00  -0.00     0.00   0.00   0.00    -0.00  -0.00   0.00
  51   1    -0.00  -0.00   0.00     0.00   0.00  -0.00     0.00   0.00  -0.00
  52   1     0.00   0.00  -0.00    -0.00  -0.00  -0.00     0.00   0.00   0.00
  53   8     0.21  -0.11  -0.03    -0.01   0.00   0.00     0.01  -0.00  -0.00
  54   1     0.03  -0.00   0.01    -0.00   0.00  -0.00     0.00   0.00   0.00
  55   1    -0.85   0.45   0.09     0.03  -0.02  -0.00    -0.02   0.01   0.00
  56   8    -0.00  -0.00   0.00     0.00   0.00  -0.00    -0.00  -0.00   0.00
  57   1     0.00  -0.00  -0.00     0.00  -0.00   0.00    -0.00   0.00   0.00
  58   1     0.00   0.00  -0.00    -0.00  -0.00   0.00     0.00   0.00  -0.00
  59   8    -0.00  -0.00   0.00     0.00   0.00  -0.00    -0.00  -0.00   0.00
  60   1     0.00   0.00  -0.00    -0.00  -0.00   0.00     0.00   0.00  -0.00
  61   1     0.00  -0.00   0.00     0.00  -0.00  -0.00     0.00  -0.00  -0.00
  62   8     0.00  -0.00  -0.00    -0.00   0.00   0.00     0.00  -0.00   0.00
  63   1     0.00  -0.00   0.00    -0.00  -0.00  -0.00    -0.00  -0.00  -0.00
  64   1    -0.00   0.00  -0.00     0.00  -0.00  -0.00    -0.00   0.00  -0.00
  65   8    -0.00  -0.00   0.00     0.00  -0.00   0.00    -0.00  -0.00   0.00
  66   1    -0.00   0.00  -0.00    -0.00   0.00  -0.00    -0.00  -0.00  -0.00
  67   1     0.00  -0.00  -0.00    -0.00   0.00   0.00     0.00   0.00  -0.00
  68   8    -0.00  -0.00  -0.00     0.00   0.00   0.00    -0.00  -0.00  -0.00
  69   1    -0.00  -0.00  -0.00     0.00  -0.00  -0.00    -0.00  -0.00  -0.00
  70   1     0.00   0.01   0.00    -0.00  -0.00  -0.00     0.00   0.00   0.00
  71   8    -0.00  -0.00   0.01     0.00   0.00  -0.00     0.12   0.04  -0.20
  72   1     0.01   0.00  -0.02    -0.01  -0.00   0.02    -0.52  -0.17   0.80
  73   1    -0.00  -0.00   0.00     0.00   0.00  -0.00     0.03   0.01  -0.02
  74   8    -0.00   0.00  -0.00    -0.00   0.00  -0.01    -0.00   0.00  -0.00
  75   1    -0.00  -0.00  -0.00    -0.00  -0.01  -0.01    -0.00   0.00  -0.00
  76   1     0.00  -0.01   0.01     0.01  -0.02   0.03     0.00  -0.01   0.01
  77   8    -0.00  -0.00   0.00    -0.00  -0.00   0.00    -0.00  -0.00   0.00
  78   1    -0.00  -0.00  -0.00    -0.00  -0.00   0.00     0.00  -0.00  -0.00
  79   1     0.00   0.00  -0.00     0.00   0.00  -0.00     0.00   0.00  -0.00
  80   8    -0.00   0.00  -0.00     0.00   0.00  -0.00    -0.00   0.00  -0.00
  81   1    -0.00   0.00  -0.00    -0.00  -0.00   0.00    -0.00   0.00  -0.00
  82   1     0.02  -0.00   0.00    -0.00   0.00  -0.00     0.01  -0.00   0.00
  83   8    -0.00   0.00  -0.00    -0.00   0.00  -0.00    -0.00   0.00   0.00
  84   1     0.00  -0.00   0.00     0.00  -0.00   0.00     0.00  -0.00   0.00
  85   1     0.00   0.00   0.00    -0.00   0.00   0.00     0.01  -0.01  -0.02
  86   8    -0.00  -0.00   0.00     0.00   0.00  -0.00    -0.00  -0.00   0.00
  87   1     0.00   0.00  -0.00    -0.00  -0.00   0.00     0.00   0.00  -0.00
  88   1     0.00   0.00   0.00     0.00   0.00   0.00     0.00  -0.00  -0.00
  89   8    -0.00   0.01   0.00     0.00  -0.00   0.00     0.00  -0.00   0.00
  90   1     0.00  -0.03  -0.00    -0.00   0.00   0.00     0.00  -0.00  -0.00
  91   1     0.00   0.00  -0.00    -0.00   0.00  -0.00    -0.00   0.01  -0.02
