      -----------------------------------------------------------      
     |                   =====================                   |     
     |                           x T B                           |     
     |                   =====================                   |     
     |                         S. Grimme                         |     
     |          Mulliken Center for Theoretical Chemistry        |     
     |                    University of Bonn                     |     
      -----------------------------------------------------------      

   * xtb version 6.5.1 (579679a) compiled by 'ehlert@majestix' on 2022-07-11

   xtb is free software: you can redistribute it and/or modify it under
   the terms of the GNU Lesser General Public License as published by
   the Free Software Foundation, either version 3 of the License, or
   (at your option) any later version.
   
   xtb is distributed in the hope that it will be useful,
   but WITHOUT ANY WARRANTY; without even the implied warranty of
   MERCHANTABILITY or FITNESS FOR A PARTICULAR PURPOSE.  See the
   GNU Lesser General Public License for more details.
   
   Cite this work as:
   * C. Bannwarth, E. Caldeweyher, S. Ehlert, A. Hansen, P. Pracht,
     J. Seibert, S. Spicher, S. Grimme, WIREs Comput. Mol. Sci., 2020, 11,
     e01493. DOI: 10.1002/wcms.1493
   
   for GFN2-xTB:
   * C. Bannwarth, S. Ehlert and S. Grimme., J. Chem. Theory Comput., 2019,
     15, 1652-1671. DOI: 10.1021/acs.jctc.8b01176
   for GFN1-xTB:
   * S. Grimme, C. Bannwarth, P. Shushkov, J. Chem. Theory Comput., 2017,
     13, 1989-2009. DOI: 10.1021/acs.jctc.7b00118
   for GFN0-xTB:
   * P. Pracht, E. Caldeweyher, S. Ehlert, S. Grimme, ChemRxiv, 2019, preprint.
     DOI: 10.26434/chemrxiv.8326202.v1
   for GFN-FF:
   * S. Spicher and S. Grimme, Angew. Chem. Int. Ed., 2020, 59, 15665-15673.
     DOI: 10.1002/anie.202004239
   
   for ALPB and GBSA implicit solvation:
   * S. Ehlert, M. Stahn, S. Spicher, S. Grimme, J. Chem. Theory Comput.,
     2021, 17, 4250-4261. DOI: 10.1021/acs.jctc.1c00471
   
   for DFT-D4:
   * E. Caldeweyher, C. Bannwarth and S. Grimme, J. Chem. Phys., 2017,
     147, 034112. DOI: 10.1063/1.4993215
   * E. Caldeweyher, S. Ehlert, A. Hansen, H. Neugebauer, S. Spicher,
     C. Bannwarth and S. Grimme, J. Chem. Phys., 2019, 150, 154122.
     DOI: 10.1063/1.5090222
   * E. Caldeweyher, J.-M. Mewes, S. Ehlert and S. Grimme, Phys. Chem. Chem. Phys.
     2020, 22, 8499-8512. DOI: 10.1039/D0CP00502A
   
   for sTDA-xTB:
   * S. Grimme and C. Bannwarth, J. Chem. Phys., 2016, 145, 054103.
     DOI: 10.1063/1.4959605
   
   in the mass-spec context:
   * V. Asgeirsson, C. Bauer and S. Grimme, Chem. Sci., 2017, 8, 4879.
     DOI: 10.1039/c7sc00601b
   * J. Koopman and S. Grimme, ACS Omega 2019, 4, 12, 15120-15133.
     DOI: 10.1021/acsomega.9b02011
   
   for metadynamics refer to:
   * S. Grimme, J. Chem. Theory Comput., 2019, 155, 2847-2862
     DOI: 10.1021/acs.jctc.9b00143
   
   for SPH calculations refer to:
   * S. Spicher and S. Grimme, J. Chem. Theory Comput., 2021, 17, 1701-1714
     DOI: 10.1021/acs.jctc.0c01306
   
   with help from (in alphabetical order)
   P. Atkinson, C. Bannwarth, F. Bohle, G. Brandenburg, E. Caldeweyher
   M. Checinski, S. Dohm, S. Ehlert, S. Ehrlich, I. Gerasimov, C. Hölzer
   A. Katbashev, J. Koopman, C. Lavigne, S. Lehtola, F. März, M. Müller,
   F. Musil, H. Neugebauer, J. Pisarek, C. Plett, P. Pracht, F. Pultar,
   J. Seibert, P. Shushkov, S. Spicher, M. Stahn, M. Steiner, T. Strunk,
   J. Stückrath, T. Rose, and J. Unsleber
   
 * started run on 2022/10/12 at 01:32:46.466     

           -------------------------------------------------
          |                Calculation Setup                |
           -------------------------------------------------

          program call               : xtb cluster.xyz --gfn2 --ohess
          hostname                   : cn0943
          coordinate file            : cluster.xyz
          omp threads                :                     6

   ID    Z sym.   atoms
    1    1 H      1, 3, 4, 6, 8, 9, 11-13, 15, 16, 18, 19, 21, 22, 24, 25,
                  27, 28, 30, 31, 33, 34, 36, 37, 39, 40, 42, 43, 45, 46, 48,
                  49, 51, 52, 54, 55, 57, 58, 60, 61, 63, 64, 66, 67, 69, 70,
                  72, 73, 75, 76, 78, 79, 81, 82, 84, 85, 87, 88, 90, 91
    2    6 C      2, 5, 7, 10
    3    7 N      14
    4    8 O      17, 20, 23, 26, 29, 32, 35, 38, 41, 44, 47, 50, 53, 56, 59,
                  62, 65, 68, 71, 74, 77, 80, 83, 86, 89

molecular fragmentation (1/2 indicates fragments):
111111111111111122222222222222222222222222222222222222222222222222222222
2222222222222222222
# atoms in fragment 1/2:    16    75
 fragment masses (1/2) :       73.14      450.38
CMA distance (Bohr)    :   1.899
constraining FC (au)   :  0.0500

           -------------------------------------------------
          |                 G F N 2 - x T B                 |
           -------------------------------------------------

        Reference                      10.1021/acs.jctc.8b01176
      * Hamiltonian:
        H0-scaling (s, p, d)           1.850000    2.230000    2.230000
        zeta-weighting                 0.500000
      * Dispersion:
        s8                             2.700000
        a1                             0.520000
        a2                             5.000000
        s9                             5.000000
      * Repulsion:
        kExp                           1.500000    1.000000
        rExp                           1.000000
      * Coulomb:
        alpha                          2.000000
        third order                    shell-resolved
        anisotropic                    true
        a3                             3.000000
        a5                             4.000000
        cn-shift                       1.200000
        cn-exp                         4.000000
        max-rad                        5.000000


          ...................................................
          :                      SETUP                      :
          :.................................................:
          :  # basis functions                 181          :
          :  # atomic orbitals                 181          :
          :  # shells                          121          :
          :  # electrons                       232          :
          :  max. iterations                   250          :
          :  Hamiltonian                  GFN2-xTB          :
          :  restarted?                      false          :
          :  GBSA solvation                  false          :
          :  PC potential                    false          :
          :  electronic temp.          300.0000000     K    :
          :  accuracy                    1.0000000          :
          :  -> integral cutoff          0.2500000E+02      :
          :  -> integral neglect         0.1000000E-07      :
          :  -> SCF convergence          0.1000000E-05 Eh   :
          :  -> wf. convergence          0.1000000E-03 e    :
          :  Broyden damping             0.4000000          :
          ...................................................

 iter      E             dE          RMSdq      gap      omega  full diag
   1   -145.2396206 -0.145240E+03  0.379E+00    8.34       0.0  T
   2   -145.2653713 -0.257507E-01  0.224E+00    8.94       1.0  T
   3   -145.2693997 -0.402836E-02  0.277E-01    8.79       1.0  T
   4   -145.2704440 -0.104435E-02  0.106E-01    8.65       1.0  T
   5   -145.2705783 -0.134299E-03  0.449E-02    8.64       1.0  T
   6   -145.2705921 -0.137218E-04  0.152E-02    8.66       1.0  T
   7   -145.2705932 -0.111650E-05  0.408E-03    8.66       2.6  T
   8   -145.2705934 -0.248774E-06  0.137E-03    8.66       7.6  T
   9   -145.2705934 -0.745558E-08  0.420E-04    8.66      24.9  T
  10   -145.2705934 -0.124888E-08  0.818E-05    8.66     128.2  T

   *** convergence criteria satisfied after 10 iterations ***

         #    Occupation            Energy/Eh            Energy/eV
      -------------------------------------------------------------
         1        2.0000           -0.6869198             -18.6920
       ...           ...                  ...                  ...
       110        2.0000           -0.4158736             -11.3165
       111        2.0000           -0.4138038             -11.2602
       112        2.0000           -0.4121979             -11.2165
       113        2.0000           -0.4112533             -11.1908
       114        2.0000           -0.4068363             -11.0706
       115        2.0000           -0.3981992             -10.8356
       116        2.0000           -0.3636608              -9.8957 (HOMO)
       117                         -0.0452494              -1.2313 (LUMO)
       118                         -0.0158252              -0.4306
       119                         -0.0048427              -0.1318
       120                          0.0006168               0.0168
       121                          0.0289598               0.7880
       ...                                ...                  ...
       181                          0.3674762               9.9995
      -------------------------------------------------------------
                  HL-Gap            0.3184114 Eh            8.6644 eV
             Fermi-level           -0.2044551 Eh           -5.5635 eV

 SCC (total)                   0 d,  0 h,  0 min,  0.108 sec
 SCC setup                      ...        0 min,  0.001 sec (  0.650%)
 Dispersion                     ...        0 min,  0.002 sec (  1.441%)
 classical contributions        ...        0 min,  0.000 sec (  0.158%)
 integral evaluation            ...        0 min,  0.008 sec (  7.329%)
 iterations                     ...        0 min,  0.068 sec ( 63.342%)
 molecular gradient             ...        0 min,  0.029 sec ( 26.481%)
 printout                       ...        0 min,  0.001 sec (  0.530%)

         :::::::::::::::::::::::::::::::::::::::::::::::::::::
         ::                     SUMMARY                     ::
         :::::::::::::::::::::::::::::::::::::::::::::::::::::
         :: total energy            -144.259725581627 Eh    ::
         :: gradient norm              0.000442941653 Eh/a0 ::
         :: HOMO-LUMO gap              8.664414724980 eV    ::
         ::.................................................::
         :: SCC energy              -145.270593427008 Eh    ::
         :: -> isotropic ES            0.776498619139 Eh    ::
         :: -> anisotropic ES         -0.137955990912 Eh    ::
         :: -> anisotropic XC         -0.003657937912 Eh    ::
         :: -> dispersion             -0.069838188078 Eh    ::
         :: repulsion energy           1.004498673258 Eh    ::
         :: add. restraining           0.000000000000 Eh    ::
         :: total charge              -0.000000000000 e     ::
         :::::::::::::::::::::::::::::::::::::::::::::::::::::

      ----------------------------------------------------------- 
     |                   =====================                   |
     |                        A N C O P T                        |
     |                   =====================                   |
     |               Approximate Normal Coordinate               |
     |                Rational Function Optimizer                |
      ----------------------------------------------------------- 

          ...................................................
          :                      SETUP                      :
          :.................................................:
          :   optimization level            normal          :
          :   max. optcycles                   273          :
          :   ANC micro-cycles                  20          :
          :   degrees of freedom               267          :
          :.................................................:
          :   RF solver                   davidson          :
          :   write xtbopt.log                true          :
          :   linear?                        false          :
          :   energy convergence         0.5000000E-05 Eh   :
          :   grad. convergence          0.1000000E-02 Eh/α :
          :   maximium RF displ.         1.0000000          :
          :   Hlow (freq-cutoff)         0.1000000E-01      :
          :   Hmax (freq-cutoff)         5.0000000          :
          :   S6 in model hess.         20.0000000          :
          ...................................................

generating ANC from model Hessian ...
Using Lindh-Hessian (1995)
 Shifting diagonal of input Hessian by   1.002607341113227E-002
 Lowest  eigenvalues of input Hessian
    0.010000    0.000000    0.000000    0.000000    0.000000    0.000000
    0.000000    0.010027    0.010089    0.010157    0.010210    0.010259
    0.010305    0.010353    0.010378    0.010426    0.010458    0.010531
 Highest eigenvalues
    1.409415    1.411341    1.416599    1.420697    1.428908    1.454399
 

........................................................................
.............................. CYCLE    1 ..............................
........................................................................
   1   -145.2705934 -0.145271E+03  0.205E-05    8.66       0.0  T
   2   -145.2705934 -0.358114E-11  0.107E-05    8.66     976.4  T
   3   -145.2705934 -0.540012E-12  0.317E-06    8.66    3308.3  T
     SCC iter.                  ...        0 min,  0.020 sec
     gradient                   ...        0 min,  0.029 sec
 * total energy  :  -144.2597256 Eh     change       -0.5454126E-10 Eh
   gradient norm :     0.0004438 Eh/α   predicted     0.0000000E+00 (-100.00%)
   displ. norm   :     0.0103682 α      lambda       -0.9166189E-06
   maximum displ.:     0.0030524 α      in ANC's #4, #9, #45, ...

   *** GEOMETRY OPTIMIZATION CONVERGED AFTER 1 ITERATIONS ***

------------------------------------------------------------------------
 total energy gain   :        -0.0000000 Eh       -0.0000 kcal/mol
 total RMSD          :         0.0000001 a0        0.0000 Å
 total power (kW/mol):        -0.0000001 (step)   -0.0000 (real)
------------------------------------------------------------------------

 ANCopt (total)                0 d,  0 h,  0 min,  0.275 sec
 optimizer setup                ...        0 min,  0.001 sec (  0.204%)
 model hessian                  ...        0 min,  0.205 sec ( 74.739%)
 ANC generation                 ...        0 min,  0.008 sec (  2.842%)
 coordinate transformation      ...        0 min,  0.000 sec (  0.028%)
 single point calculation       ...        0 min,  0.058 sec ( 21.308%)
 optimization log               ...        0 min,  0.002 sec (  0.692%)
 hessian update                 ...        0 min,  0.000 sec (  0.001%)
 rational function              ...        0 min,  0.000 sec (  0.090%)

================
 final structure:
================
91
 xtb: 6.5.1 (579679a)
H            0.58785077120000       -0.05967189740000       -1.88698054840000
C            1.04402969930000        0.15732082480000       -0.92674890720000
H            2.11831902940000        0.21403628850000       -1.04922042270000
H            0.69291928790000        1.12773592180000       -0.59336191720000
C            0.68582580560000       -0.93022832570000        0.08096542860000
H            1.15948404760000       -0.69420282050000        1.03541481340000
C           -0.82472389990000       -0.95380771050000        0.31402555590000
H           -1.12302904130000       -1.92730660910000        0.70634562800000
H           -1.33973944130000       -0.79890585180000       -0.63914104320000
C            1.17962509740000       -2.29797615740000       -0.37892644410000
H            0.96269655110000       -3.04953880130000        0.37411976540000
H            2.25273971530000       -2.27901359200000       -0.54237022270000
H            0.69136030410000       -2.58792588310000       -1.30418825040000
N           -1.19695712900000        0.05141778420000        1.30748687720000
H           -0.73299457060000        0.92855543090000        1.10873073780000
H           -2.19478629040000        0.21439673580000        1.29000372850000
O           -2.20819890290000        2.29719396950000       -0.87977741150000
H           -1.42782397490000        2.45495970520000       -0.31760834200000
H           -2.92508893800000        2.07379988460000       -0.25895092180000
O           -2.16835102360000        0.60279364700000       -2.94026249420000
H           -3.02026074170000        0.77255278000000       -3.34389903570000
H           -2.12177090780000        1.18218797280000       -2.14401231800000
O           -1.19472788000000       -1.99093652340000       -3.06213709520000
H           -1.52551895010000       -1.07762110300000       -3.08507799080000
H           -1.67442893730000       -2.41214767930000       -2.33379792570000
O           -0.40476193530000        1.71186916370000        4.21033527740000
H           -0.54551220900000        0.75051896630000        4.22023396400000
H            0.41756931160000        1.85981080440000        3.72525007280000
O           -3.05983984620000       -2.81117419010000       -1.02665476390000
H           -3.46920852250000       -2.12517895710000       -0.45079069890000
H           -3.78843040690000       -3.27327906460000       -1.44381469620000
O            1.40297878140000       -1.72229727790000       -3.75912137500000
H            1.46118897320000       -2.18921350610000       -4.59328700070000
H            0.47931422650000       -1.84490238470000       -3.44627155320000
O            3.82978250120000       -1.01897110600000       -2.44386971980000
H            3.00296096600000       -1.45912270880000       -2.69557007450000
H            3.84782648160000       -0.21135094480000       -2.96580324340000
O            0.16242710520000       -4.70658798940000        1.91872836280000
H           -0.78811765020000       -4.54835874400000        1.70023130120000
H            0.43692316480000       -5.45822668140000        1.39360437580000
O            2.09835672950000        0.96987855130000       -4.05737680010000
H            1.25670209530000        1.42750140410000       -4.29351232630000
H            1.84103077310000        0.04078781390000       -3.93049886050000
O            3.06715606950000        2.59251705620000       -2.26599365580000
H            3.67749823650000        3.09369905470000       -2.80846459150000
H            2.64387432690000        1.93251682370000       -2.88383964240000
O            1.81297156850000        1.88821987640000        2.31590003330000
H            2.54780887740000        2.18344251970000        1.74395302770000
H            2.08281912910000        0.97780127900000        2.55109141470000
O           -2.18926383250000        2.91785266610000        2.60832881620000
H           -1.51327296280000        3.17706409760000        1.96265869810000
H           -1.67369052250000        2.47794921710000        3.32088363900000
O           -3.92107378460000        1.62960643240000        1.16431774100000
H           -3.28803355510000        2.08330495960000        1.79913235350000
H           -4.75729603680000        2.08428692410000        1.26865912660000
O           -0.29450049230000        2.05440958780000       -4.42282799780000
H           -0.45843388510000        2.89329253290000       -3.94860980920000
H           -0.90548818820000        1.42118099460000       -4.01392181490000
O           -0.10531289890000        2.92299092980000        0.77479842260000
H            0.38869181690000        3.50965049470000        0.17512116800000
H            0.57059478510000        2.54790472840000        1.38559902840000
O            3.77652904560000        2.14750418280000        0.43717331710000
H            3.51143010290000        2.29553548430000       -0.48144099110000
H            4.02648922180000        1.21068359020000        0.48072085860000
O           -0.85641750910000       -0.99075713510000        3.67605020530000
H           -0.89518050280000       -0.56070467190000        2.76288595130000
H           -0.08793420900000       -1.58472813080000        3.64543934890000
O            1.35743807790000        4.29394242840000       -1.07735398830000
H            1.93611918760000        3.62894417300000       -1.51463932480000
H            1.93719549840000        4.96188495100000       -0.70930715420000
O           -3.10434642540000       -2.22428145740000        3.07687353790000
H           -3.60041769930000       -2.38633615920000        3.87901098820000
H           -2.25933085060000       -1.77369996360000        3.35589884250000
O            1.26469836040000       -2.75692153510000        3.39831135050000
H            0.89719818340000       -3.44049680170000        2.80170720060000
H            1.52241000130000       -3.21040861340000        4.20169474840000
O            2.88086130870000       -0.57882798570000        2.67297772380000
H            3.35834791220000       -0.73210275510000        1.84683030090000
H            2.37449501820000       -1.38016069470000        2.87108962130000
O            4.38297547000000       -0.60019068980000        0.19293041080000
H            4.15783641140000       -0.79128887880000       -0.74274008540000
H            5.30643411520000       -0.83048084560000        0.30000761790000
O           -2.36944475210000       -4.21788065010000        1.29121481000000
H           -2.51061947180000       -3.79857376770000        0.42494206050000
H           -2.68521798380000       -3.57688532600000        1.95140800140000
O           -0.93921666530000        4.07600296910000       -2.71437988020000
H           -1.53932969000000        3.59883305590000       -2.12535123670000
H           -0.16326869000000        4.29469211370000       -2.18027835320000
O           -4.21904026950000       -1.16417311270000        0.75358440740000
H           -4.19469941180000       -0.20021709630000        0.84172575270000
H           -3.89426442660000       -1.52138648740000        1.59869315250000
 
 Bond Distances (Angstroems)
 ---------------------------
H1-C2=1.0850         C2-H1=1.0850         C2-H3=1.0827         C2-H4=1.0845         C2-C5=1.5253         H3-C2=1.0827         
H4-C2=1.0845         C5-C2=1.5253         C5-H6=1.0913         C5-C7=1.5286         C5-C10=1.5251        H6-C5=1.0913         
C7-C5=1.5286         C7-H8=1.0911         C7-H9=1.0944         C7-N14=1.4615        H8-C7=1.0911         H9-C7=1.0944         
C10-C5=1.5251        C10-H11=1.0858       C10-H12=1.0857       C10-H13=1.0856       H11-C10=1.0858       H12-C10=1.0857       
H13-C10=1.0856       N14-C7=1.4615        N14-H15=1.0120       N14-H16=1.0112       H15-N14=1.0120       H16-N14=1.0112       
O17-H18=0.9746       O17-H19=0.9743       H18-O17=0.9746       H19-O17=0.9743       O20-H21=0.9579       O20-H22=0.9858       
H21-O20=0.9579       H22-O20=0.9858       O23-H24=0.9716       O23-H25=0.9685       H24-O23=0.9716       H25-O23=0.9685       
O26-H27=0.9716       O26-H28=0.9661       H27-O26=0.9716       H28-O26=0.9661       O29-H30=0.9848       O29-H31=0.9583       
H30-O29=0.9848       H31-O29=0.9583       O32-H33=0.9577       O32-H34=0.9829       H33-O32=0.9577       H34-O32=0.9829       
O35-H36=0.9699       O35-H37=0.9618       H36-O35=0.9699       H37-O35=0.9618       O38-H39=0.9881       O38-H40=0.9571       
H39-O38=0.9881       H40-O38=0.9571       O41-H42=0.9867       O41-H43=0.9724       H42-O41=0.9867       H43-O41=0.9724       
O44-H45=0.9581       O44-H46=0.9982       H45-O44=0.9581       H46-O44=0.9982       O47-H48=0.9769       O47-H49=0.9783       
H48-O47=0.9769       H49-O47=0.9783       O50-H51=0.9701       O50-H52=0.9834       H51-O50=0.9701       H52-O50=0.9834       
O53-H54=1.0048       O53-H55=0.9575       H54-O53=1.0048       H55-O53=0.9575       O56-H57=0.9775       O56-H58=0.9703       
H57-O56=0.9775       H58-O56=0.9703       O59-H60=0.9736       O59-H61=0.9852       H60-O59=0.9736       H61-O59=0.9852       
O62-H63=0.9675       O62-H64=0.9706       H63-O62=0.9675       H64-O62=0.9706       O65-H66=1.0101       O65-H67=0.9718       
H66-O65=1.0101       H67-O65=0.9718       O68-H69=0.9840       O68-H70=0.9580       H69-O68=0.9840       H70-O68=0.9580       
O71-H72=0.9570       O71-H73=0.9975       H72-O71=0.9570       H73-O71=0.9975       O74-H75=0.9789       O74-H76=0.9579       
H75-O74=0.9789       H76-O74=0.9579       O77-H78=0.9664       O77-H79=0.9684       H78-O77=0.9664       H79-O77=0.9684       
O80-H81=0.9812       O80-H82=0.9577       H81-O80=0.9812       H82-O80=0.9577       O83-H84=0.9727       O83-H85=0.9729       
H84-O83=0.9727       H85-O83=0.9729       O86-H87=0.9668       O86-H88=0.9670       H87-O86=0.9668       H88-O86=0.9670       
O89-H90=0.9683       O89-H91=0.9733       H90-O89=0.9683       H91-O89=0.9733       
 C  H  Rav=1.0874 sigma=0.0037  Rmin=1.0827  Rmax=1.0944     9
 C  C  Rav=1.5264 sigma=0.0016  Rmin=1.5251  Rmax=1.5286     3
 N  H  Rav=1.0116 sigma=0.0004  Rmin=1.0112  Rmax=1.0120     2
 N  C  Rav=1.4615 sigma=0.0000  Rmin=1.4615  Rmax=1.4615     1
 O  H  Rav=0.9734 sigma=0.0124  Rmin=0.9570  Rmax=1.0101    50
 
 selected bond angles (degree)
 --------------------
H3-C2-H1=109.12                H4-C2-H1=108.35                H4-C2-H3=108.01                C5-C2-H1=110.08                
C5-C2-H3=110.19                C5-C2-H4=111.03                H6-C5-C2=108.76                C7-C5-C2=110.11                
C7-C5-H6=107.39                C10-C5-C2=111.36               C10-C5-H6=108.49               C10-C5-C7=110.62               
H8-C7-C5=109.80                H9-C7-C5=109.27                H9-C7-H8=108.11                N14-C7-C5=110.16               
N14-C7-H8=107.43               N14-C7-H9=112.01               H11-C10-C5=110.30              H12-C10-C5=110.47              
H12-C10-H11=108.30             H13-C10-C5=110.54              H13-C10-H11=108.44             H13-C10-H12=108.72             
 
 selected dihedral angles (degree)
 ---------------------------------
H6-C5-C2-H1=179.67            H6-C5-C2-H3= 59.28            H6-C5-C2-H4=299.66            C7-C5-C2-H1=297.09            
C7-C5-C2-H3=176.70            C7-C5-C2-H4= 57.08            C10-C5-C2-H1= 60.17           C10-C5-C2-H3=299.77           
C10-C5-C2-H4=180.15           H8-C7-C5-C2=158.39            H8-C7-C5-H6=276.66            H8-C7-C5-C10= 34.88           
H9-C7-C5-C2= 39.98            H9-C7-C5-H6=158.25            H9-C7-C5-C10=276.47           N14-C7-C5-C2=276.51           
N14-C7-C5-H6= 34.78           N14-C7-C5-C10=153.01          H11-C10-C5-C2=176.99          H11-C10-C5-H6= 57.33          
H11-C10-C5-C7=299.78          H12-C10-C5-C2= 57.30          H12-C10-C5-H6=297.63          H12-C10-C5-C7=180.08          
H13-C10-C5-C2=296.92          H13-C10-C5-H6=177.25          H13-C10-C5-C7= 59.70          
 
 CMA Distance (Angstroems)
 ---------------------------
R(CMA):  1.0051
           -------------------------------------------------
          |                Final Singlepoint                |
           -------------------------------------------------

          ...................................................
          :                      SETUP                      :
          :.................................................:
          :  # basis functions                 181          :
          :  # atomic orbitals                 181          :
          :  # shells                          121          :
          :  # electrons                       232          :
          :  max. iterations                   250          :
          :  Hamiltonian                  GFN2-xTB          :
          :  restarted?                      false          :
          :  GBSA solvation                  false          :
          :  PC potential                    false          :
          :  electronic temp.          300.0000000     K    :
          :  accuracy                    1.0000000          :
          :  -> integral cutoff          0.2500000E+02      :
          :  -> integral neglect         0.1000000E-07      :
          :  -> SCF convergence          0.1000000E-05 Eh   :
          :  -> wf. convergence          0.1000000E-03 e    :
          :  Broyden damping             0.4000000          :
          ...................................................

 iter      E             dE          RMSdq      gap      omega  full diag
   1   -145.2705934 -0.145271E+03  0.106E-06    8.66       0.0  T
   2   -145.2705934 -0.142109E-12  0.645E-07    8.66   16249.0  T
   3   -145.2705934  0.142109E-12  0.243E-07    8.66   43081.5  T

   *** convergence criteria satisfied after 3 iterations ***

         #    Occupation            Energy/Eh            Energy/eV
      -------------------------------------------------------------
         1        2.0000           -0.6869204             -18.6921
       ...           ...                  ...                  ...
       110        2.0000           -0.4158747             -11.3165
       111        2.0000           -0.4138038             -11.2602
       112        2.0000           -0.4121984             -11.2165
       113        2.0000           -0.4112541             -11.1908
       114        2.0000           -0.4068372             -11.0706
       115        2.0000           -0.3982003             -10.8356
       116        2.0000           -0.3636619              -9.8957 (HOMO)
       117                         -0.0452498              -1.2313 (LUMO)
       118                         -0.0158258              -0.4306
       119                         -0.0048436              -0.1318
       120                          0.0006160               0.0168
       121                          0.0289591               0.7880
       ...                                ...                  ...
       181                          0.3674752               9.9995
      -------------------------------------------------------------
                  HL-Gap            0.3184121 Eh            8.6644 eV
             Fermi-level           -0.2044559 Eh           -5.5635 eV

 SCC (total)                   0 d,  0 h,  0 min,  0.058 sec
 SCC setup                      ...        0 min,  0.001 sec (  0.905%)
 Dispersion                     ...        0 min,  0.001 sec (  2.146%)
 classical contributions        ...        0 min,  0.000 sec (  0.254%)
 integral evaluation            ...        0 min,  0.007 sec ( 12.588%)
 iterations                     ...        0 min,  0.020 sec ( 34.158%)
 molecular gradient             ...        0 min,  0.028 sec ( 48.977%)
 printout                       ...        0 min,  0.001 sec (  0.879%)

         :::::::::::::::::::::::::::::::::::::::::::::::::::::
         ::                     SUMMARY                     ::
         :::::::::::::::::::::::::::::::::::::::::::::::::::::
         :: total energy            -144.259725581682 Eh    ::
         :: gradient norm              0.000443766368 Eh/a0 ::
         :: HOMO-LUMO gap              8.664434494907 eV    ::
         ::.................................................::
         :: SCC energy              -145.270593427063 Eh    ::
         :: -> isotropic ES            0.776501548053 Eh    ::
         :: -> anisotropic ES         -0.137955493931 Eh    ::
         :: -> anisotropic XC         -0.003657857153 Eh    ::
         :: -> dispersion             -0.069838214824 Eh    ::
         :: repulsion energy           1.004498673258 Eh    ::
         :: add. restraining           0.000000000000 Eh    ::
         :: total charge              -0.000000000000 e     ::
         :::::::::::::::::::::::::::::::::::::::::::::::::::::

           ------------------------------------------------- 
          |                Numerical Hessian                |
           ------------------------------------------------- 
step length          :   0.00500
SCC accuracy         :   0.30000
Hessian scale factor :   1.00000
frozen atoms in %    :   0.00000    0
RMS gradient         :   0.00044
estimated CPU  time      9.06 min
estimated wall time      1.52 min

writing file <hessian>.

 projected vibrational frequencies (cm⁻¹)
eigval :       -0.00    -0.00    -0.00     0.00     0.00     0.00
eigval :       22.68    32.16    34.03    36.16    37.57    42.75
eigval :       45.88    47.09    49.98    51.06    53.36    55.21
eigval :       58.02    59.68    60.45    61.05    62.60    65.20
eigval :       68.11    70.34    72.59    75.88    76.29    78.78
eigval :       83.13    83.19    84.82    86.80    89.87    92.85
eigval :       95.56    98.34   100.07   103.96   109.28   114.25
eigval :      118.96   119.77   128.85   135.12   141.25   144.02
eigval :      151.39   156.34   157.18   160.13   161.82   165.26
eigval :      169.61   172.21   180.19   186.24   191.07   192.58
eigval :      195.71   202.06   209.46   216.17   222.63   224.50
eigval :      231.39   233.72   243.25   245.49   250.01   254.88
eigval :      256.26   262.05   268.04   268.64   278.57   281.24
eigval :      282.54   287.09   291.40   296.51   302.37   304.42
eigval :      310.15   317.28   318.19   321.82   337.17   338.63
eigval :      347.95   351.73   364.33   372.14   374.75   378.08
eigval :      384.89   395.02   399.03   409.12   413.83   420.05
eigval :      423.95   430.48   433.16   445.01   456.36   459.42
eigval :      466.40   469.85   474.86   478.83   486.51   489.26
eigval :      497.72   504.40   507.49   517.57   523.59   530.90
eigval :      534.37   540.69   543.94   546.76   562.33   567.30
eigval :      569.89   574.66   583.74   587.29   591.82   596.62
eigval :      603.67   605.49   625.04   627.13   635.46   644.12
eigval :      654.23   657.44   675.89   681.30   684.62   692.07
eigval :      703.39   710.92   725.38   734.63   738.81   749.68
eigval :      755.21   765.66   775.85   779.07   791.96   801.07
eigval :      816.85   826.19   835.90   859.90   888.03   892.65
eigval :      917.70   941.83   950.61   953.77   976.07   986.91
eigval :      996.59  1038.15  1083.30  1114.47  1176.22  1185.33
eigval :     1198.41  1255.14  1306.32  1324.59  1368.08  1403.77
eigval :     1417.40  1480.79  1489.51  1495.35  1497.91  1501.57
eigval :     1504.81  1512.33  1516.03  1520.17  1521.68  1524.68
eigval :     1525.49  1527.72  1529.48  1532.10  1532.66  1533.22
eigval :     1536.70  1540.54  1543.01  1544.47  1548.69  1552.28
eigval :     1552.94  1560.58  1563.18  1566.79  1568.75  1578.63
eigval :     1580.46  1588.97  2616.12  2799.95  2885.08  2937.59
eigval :     2939.59  2992.56  2994.51  3059.15  3062.46  3065.72
eigval :     3070.46  3079.38  3085.43  3097.52  3110.21  3118.10
eigval :     3126.23  3154.13  3175.13  3186.81  3191.50  3220.54
eigval :     3239.29  3282.34  3289.76  3301.24  3346.81  3352.88
eigval :     3363.00  3378.55  3384.61  3393.75  3395.02  3407.50
eigval :     3418.44  3421.81  3425.68  3441.14  3450.95  3455.36
eigval :     3462.19  3467.75  3468.29  3472.35  3483.89  3492.37
eigval :     3501.35  3516.12  3523.93  3528.77  3612.43  3666.38
eigval :     3668.17  3671.46  3672.18  3672.78  3673.56  3675.31
eigval :     3678.21  3679.77  3684.00
           -------------------------------------------------
          |                Property Printout                |
           -------------------------------------------------

    * Orbital Energies and Occupations

         #    Occupation            Energy/Eh            Energy/eV
      -------------------------------------------------------------
         1        2.0000           -0.6869204             -18.6921
       ...           ...                  ...                  ...
       104        2.0000           -0.4253996             -11.5757
       105        2.0000           -0.4224163             -11.4945
       106        2.0000           -0.4218503             -11.4791
       107        2.0000           -0.4207632             -11.4495
       108        2.0000           -0.4204680             -11.4415
       109        2.0000           -0.4197935             -11.4232
       110        2.0000           -0.4158747             -11.3165
       111        2.0000           -0.4138039             -11.2602
       112        2.0000           -0.4121985             -11.2165
       113        2.0000           -0.4112541             -11.1908
       114        2.0000           -0.4068373             -11.0706
       115        2.0000           -0.3982003             -10.8356
       116        2.0000           -0.3636620              -9.8957 (HOMO)
       117                         -0.0452499              -1.2313 (LUMO)
       118                         -0.0158258              -0.4306
       119                         -0.0048436              -0.1318
       120                          0.0006160               0.0168
       121                          0.0289591               0.7880
       122                          0.0308389               0.8392
       123                          0.0488011               1.3279
       124                          0.0572665               1.5583
       125                          0.0639780               1.7409
       126                          0.0767160               2.0875
       127                          0.0799949               2.1768
       ...                                ...                  ...
       181                          0.3674752               9.9995
      -------------------------------------------------------------
                  HL-Gap            0.3184121 Eh            8.6644 eV
             Fermi-level           -0.2044559 Eh           -5.5635 eV

     #   Z          covCN         q      C6AA      α(0)
     1   1 H        0.925     0.053     2.289     2.366
     2   6 C        3.757    -0.151    23.467     6.907
     3   1 H        0.925     0.056     2.248     2.344
     4   1 H        0.925     0.052     2.293     2.368
     5   6 C        3.852    -0.033    21.134     6.539
     6   1 H        0.924     0.059     2.213     2.327
     7   6 C        3.737    -0.018    20.984     6.537
     8   1 H        0.924     0.051     2.308     2.376
     9   1 H        0.924     0.039     2.469     2.457
    10   6 C        3.756    -0.141    23.278     6.879
    11   1 H        0.925     0.046     2.365     2.405
    12   1 H        0.925     0.044     2.395     2.420
    13   1 H        0.925     0.047     2.360     2.403
    14   7 N        2.660    -0.380    29.830     8.112
    15   1 H        0.860     0.186     1.181     1.702
    16   1 H        0.860     0.175     1.244     1.747
    17   8 O        1.608    -0.652    26.474     6.944
    18   1 H        0.804     0.331     0.634     1.251
    19   1 H        0.804     0.320     0.665     1.281
    20   8 O        1.608    -0.623    25.751     6.849
    21   1 H        0.806     0.285     0.768     1.376
    22   1 H        0.802     0.343     0.606     1.223
    23   8 O        1.609    -0.634    26.022     6.885
    24   1 H        0.804     0.318     0.670     1.286
    25   1 H        0.804     0.313     0.682     1.297
    26   8 O        1.609    -0.626    25.806     6.856
    27   1 H        0.804     0.318     0.671     1.286
    28   1 H        0.805     0.315     0.678     1.294
    29   8 O        1.608    -0.619    25.644     6.835
    30   1 H        0.802     0.340     0.613     1.230
    31   1 H        0.806     0.282     0.777     1.384
    32   8 O        1.608    -0.618    25.621     6.832
    33   1 H        0.806     0.282     0.778     1.386
    34   1 H        0.802     0.339     0.615     1.232
    35   8 O        1.609    -0.613    25.489     6.814
    36   1 H        0.804     0.328     0.643     1.259
    37   1 H        0.805     0.305     0.706     1.320
    38   8 O        1.607    -0.630    25.915     6.871
    39   1 H        0.802     0.335     0.625     1.242
    40   1 H        0.806     0.278     0.792     1.398
    41   8 O        1.607    -0.658    26.626     6.964
    42   1 H        0.802     0.330     0.638     1.255
    43   1 H        0.804     0.317     0.673     1.289
    44   8 O        1.605    -0.633    25.999     6.882
    45   1 H        0.806     0.283     0.773     1.381
    46   1 H        0.801     0.348     0.592     1.209
    47   8 O        1.607    -0.659    26.650     6.967
    48   1 H        0.803     0.321     0.661     1.277
    49   1 H        0.803     0.327     0.646     1.263
    50   8 O        1.609    -0.641    26.184     6.906
    51   1 H        0.804     0.315     0.676     1.292
    52   1 H        0.802     0.331     0.634     1.251
    53   8 O        1.604    -0.642    26.216     6.910
    54   1 H        0.800     0.348     0.594     1.211
    55   1 H        0.806     0.279     0.789     1.395
    56   8 O        1.608    -0.640    26.167     6.904
    57   1 H        0.803     0.320     0.664     1.280
    58   1 H        0.804     0.308     0.698     1.313
    59   8 O        1.606    -0.671    26.941     7.005
    60   1 H        0.804     0.316     0.675     1.291
    61   1 H        0.802     0.337     0.620     1.237
    62   8 O        1.609    -0.634    26.018     6.884
    63   1 H        0.805     0.309     0.696     1.310
    64   1 H        0.804     0.313     0.683     1.298
    65   8 O        1.601    -0.668    26.875     6.996
    66   1 H        0.827     0.324     0.650     1.265
    67   1 H        0.804     0.313     0.683     1.298
    68   8 O        1.608    -0.620    25.660     6.837
    69   1 H        0.802     0.338     0.617     1.234
    70   1 H        0.806     0.288     0.758     1.367
    71   8 O        1.605    -0.634    26.025     6.885
    72   1 H        0.806     0.279     0.787     1.393
    73   1 H        0.800     0.344     0.604     1.221
    74   8 O        1.609    -0.611    25.444     6.808
    75   1 H        0.803     0.342     0.607     1.224
    76   1 H        0.806     0.286     0.766     1.374
    77   8 O        1.609    -0.624    25.777     6.852
    78   1 H        0.805     0.312     0.686     1.301
    79   1 H        0.804     0.314     0.680     1.296
    80   8 O        1.608    -0.615    25.557     6.823
    81   1 H        0.803     0.333     0.629     1.246
    82   1 H        0.806     0.281     0.781     1.388
    83   8 O        1.608    -0.636    26.064     6.890
    84   1 H        0.804     0.315     0.677     1.293
    85   1 H        0.804     0.318     0.669     1.285
    86   8 O        1.609    -0.622    25.713     6.844
    87   1 H        0.805     0.313     0.683     1.298
    88   1 H        0.805     0.312     0.687     1.302
    89   8 O        1.608    -0.636    26.059     6.890
    90   1 H        0.804     0.310     0.691     1.306
    91   1 H        0.804     0.321     0.661     1.277

 Mol. C6AA /au·bohr⁶  :      43350.762521
 Mol. C8AA /au·bohr⁸  :     802246.107935
 Mol. α(0) /au        :        296.686445


Wiberg/Mayer (AO) data.
largest (>0.10) Wiberg bond orders for each atom

 ---------------------------------------------------------------------------
     #   Z sym  total        # sym  WBO       # sym  WBO       # sym  WBO
 ---------------------------------------------------------------------------
     1   1 H    0.997 --     2 C    0.978
     2   6 C    3.992 --     5 C    1.010     1 H    0.978     3 H    0.975
                             4 H    0.975
     3   1 H    0.997 --     2 C    0.975
     4   1 H    0.997 --     2 C    0.975
     5   6 C    3.994 --     2 C    1.010    10 C    1.009     7 C    0.995
                             6 H    0.955
     6   1 H    0.996 --     5 C    0.955
     7   6 C    3.977 --    14 N    1.009     5 C    0.995     8 H    0.967
                             9 H    0.965
     8   1 H    0.997 --     7 C    0.967
     9   1 H    0.998 --     7 C    0.965
    10   6 C    3.994 --     5 C    1.009    12 H    0.982    13 H    0.981
                            11 H    0.979
    11   1 H    0.998 --    10 C    0.979
    12   1 H    0.998 --    10 C    0.982
    13   1 H    0.998 --    10 C    0.981
    14   7 N    3.131 --     7 C    1.009    16 H    0.942    15 H    0.931
                            66 H    0.127
    15   1 H    0.965 --    14 N    0.931
    16   1 H    0.969 --    14 N    0.942
    17   8 O    1.862 --    19 H    0.842    18 H    0.837
    18   1 H    0.890 --    17 O    0.837
    19   1 H    0.898 --    17 O    0.842
    20   8 O    1.868 --    21 H    0.915    22 H    0.808
    21   1 H    0.919 --    20 O    0.915
    22   1 H    0.883 --    20 O    0.808
    23   8 O    1.848 --    25 H    0.867    24 H    0.858
    24   1 H    0.899 --    23 O    0.858
    25   1 H    0.902 --    23 O    0.867
    26   8 O    1.864 --    28 H    0.881    27 H    0.858
    27   1 H    0.899 --    26 O    0.858
    28   1 H    0.901 --    26 O    0.881
    29   8 O    1.866 --    31 H    0.917    30 H    0.819
    30   1 H    0.884 --    29 O    0.819
    31   1 H    0.920 --    29 O    0.917
    32   8 O    1.860 --    33 H    0.916    34 H    0.818
    33   1 H    0.920 --    32 O    0.916
    34   1 H    0.885 --    32 O    0.818
    35   8 O    1.863 --    37 H    0.897    36 H    0.861
    36   1 H    0.892 --    35 O    0.861
    37   1 H    0.907 --    35 O    0.897
    38   8 O    1.836 --    40 H    0.914    39 H    0.808
    39   1 H    0.888 --    38 O    0.808
    40   1 H    0.923 --    38 O    0.914
    41   8 O    1.864 --    43 H    0.848    42 H    0.817
    42   1 H    0.891 --    41 O    0.817
    43   1 H    0.900 --    41 O    0.848
    44   8 O    1.872 --    45 H    0.915    46 H    0.777
    45   1 H    0.920 --    44 O    0.915
    46   1 H    0.879 --    44 O    0.777
    47   8 O    1.844 --    48 H    0.844    49 H    0.832
    48   1 H    0.897 --    47 O    0.844
    49   1 H    0.893 --    47 O    0.832
    50   8 O    1.882 --    51 H    0.864    52 H    0.823    54 H    0.101
    51   1 H    0.901 --    50 O    0.864
    52   1 H    0.890 --    50 O    0.823
    53   8 O    1.854 --    55 H    0.916    54 H    0.771
    54   1 H    0.879 --    53 O    0.771    50 O    0.101
    55   1 H    0.922 --    53 O    0.916
    56   8 O    1.860 --    58 H    0.865    57 H    0.843
    57   1 H    0.897 --    56 O    0.843
    58   1 H    0.905 --    56 O    0.865
    59   8 O    1.843 --    60 H    0.843    61 H    0.808
    60   1 H    0.900 --    59 O    0.843
    61   1 H    0.886 --    59 O    0.808
    62   8 O    1.843 --    63 H    0.870    64 H    0.865
    63   1 H    0.905 --    62 O    0.870
    64   1 H    0.902 --    62 O    0.865
    65   8 O    1.888 --    67 H    0.855    66 H    0.762
    66   1 H    0.895 --    65 O    0.762    14 N    0.127
    67   1 H    0.902 --    65 O    0.855
    68   8 O    1.871 --    70 H    0.911    69 H    0.818
    69   1 H    0.886 --    68 O    0.818
    70   1 H    0.917 --    68 O    0.911
    71   8 O    1.859 --    72 H    0.916    73 H    0.785
    72   1 H    0.922 --    71 O    0.916
    73   1 H    0.882 --    71 O    0.785
    74   8 O    1.877 --    76 H    0.915    75 H    0.826
    75   1 H    0.883 --    74 O    0.826
    76   1 H    0.918 --    74 O    0.915
    77   8 O    1.856 --    78 H    0.877    79 H    0.863
    78   1 H    0.903 --    77 O    0.877
    79   1 H    0.901 --    77 O    0.863
    80   8 O    1.856 --    82 H    0.918    81 H    0.826
    81   1 H    0.889 --    80 O    0.826
    82   1 H    0.921 --    80 O    0.918
    83   8 O    1.869 --    85 H    0.855    84 H    0.854
    84   1 H    0.901 --    83 O    0.854
    85   1 H    0.899 --    83 O    0.855
    86   8 O    1.858 --    87 H    0.876    88 H    0.873
    87   1 H    0.902 --    86 O    0.876
    88   1 H    0.903 --    86 O    0.873
    89   8 O    1.852 --    90 H    0.864    91 H    0.855
    90   1 H    0.904 --    89 O    0.864
    91   1 H    0.897 --    89 O    0.855
 ---------------------------------------------------------------------------

Topologies differ in total number of bonds
Writing topology from bond orders to xtbtopo.mol

molecular dipole:
                 x           y           z       tot (Debye)
 q only:        0.117      -1.115      -0.348
   full:       -0.049      -1.468      -0.685       4.119
molecular quadrupole (traceless):
                xx          xy          yy          xz          yz          zz
 q only:       17.966       0.203      -0.105      -6.446      -5.211     -17.861
  q+dip:       27.260       1.540      -0.424      -7.959      -8.429     -26.836
   full:       27.413       1.708      -0.168      -8.480      -8.164     -27.245

           -------------------------------------------------
          |                Geometry Summary                 |
           -------------------------------------------------

      molecular mass/u    :      523.5191556
   center of mass at/Å    :       -0.0126931       0.0709797       0.0053950
  moments of inertia/u·Å² :        0.4943108E+04   0.6337783E+04   0.6504268E+04
rotational constants/cm⁻¹ :        0.3410330E-02   0.2659863E-02   0.2591780E-02

 * 63 selected distances

     #   Z          #   Z                                           value/Å
     1   1 H        2   6 C                                       1.0850023
     2   6 C        3   1 H                                       1.0827344
     2   6 C        4   1 H                                       1.0844958
     2   6 C        5   6 C                                       1.5253071
     5   6 C        6   1 H                                       1.0913451
     5   6 C        7   6 C                                       1.5286052 (max)
     7   6 C        8   1 H                                       1.0911468
     7   6 C        9   1 H                                       1.0944233
     5   6 C       10   6 C                                       1.5251468
    10   6 C       11   1 H                                       1.0858099
    10   6 C       12   1 H                                       1.0856559
    10   6 C       13   1 H                                       1.0856256
     7   6 C       14   7 N                                       1.4615066
    14   7 N       15   1 H                                       1.0119960
    14   7 N       16   1 H                                       1.0112028
    17   8 O       18   1 H                                       0.9746329
    17   8 O       19   1 H                                       0.9743007
    20   8 O       21   1 H                                       0.9578575
    20   8 O       22   1 H                                       0.9858408
    23   8 O       24   1 H                                       0.9716451
    23   8 O       25   1 H                                       0.9685092
    26   8 O       27   1 H                                       0.9716496
    26   8 O       28   1 H                                       0.9661383
    29   8 O       30   1 H                                       0.9847801
    29   8 O       31   1 H                                       0.9583359
    32   8 O       33   1 H                                       0.9577221
    32   8 O       34   1 H                                       0.9828852
    35   8 O       36   1 H                                       0.9699075
    35   8 O       37   1 H                                       0.9617644
    38   8 O       39   1 H                                       0.9880855
    38   8 O       40   1 H                                       0.9571124
    41   8 O       42   1 H                                       0.9866921
    41   8 O       43   1 H                                       0.9723808
    44   8 O       45   1 H                                       0.9581106
    44   8 O       46   1 H                                       0.9982493
    47   8 O       48   1 H                                       0.9768653
    47   8 O       49   1 H                                       0.9782612
    50   8 O       51   1 H                                       0.9700744
    50   8 O       52   1 H                                       0.9833949
    53   8 O       55   1 H                                       0.9575434
    56   8 O       57   1 H                                       0.9774875
    56   8 O       58   1 H                                       0.9703035
    59   8 O       60   1 H                                       0.9735621
    59   8 O       61   1 H                                       0.9851997
    62   8 O       63   1 H                                       0.9674932
    62   8 O       64   1 H                                       0.9705717
    65   8 O       67   1 H                                       0.9717537
    68   8 O       69   1 H                                       0.9840290
    68   8 O       70   1 H                                       0.9579794
    71   8 O       72   1 H                                       0.9569603 (min)
    71   8 O       73   1 H                                       0.9974619
    74   8 O       75   1 H                                       0.9789118
    74   8 O       76   1 H                                       0.9578574
    77   8 O       78   1 H                                       0.9664400
    77   8 O       79   1 H                                       0.9683953
    80   8 O       81   1 H                                       0.9811654
    80   8 O       82   1 H                                       0.9577448
    83   8 O       84   1 H                                       0.9727164
    83   8 O       85   1 H                                       0.9728530
    86   8 O       87   1 H                                       0.9668411
    86   8 O       88   1 H                                       0.9670495
    89   8 O       90   1 H                                       0.9682834
    89   8 O       91   1 H                                       0.9732881

 * 5 distinct bonds (by element types)

   Z      Z             #   av. dist./Å        max./Å        min./Å
   1 H    6 C           9     1.0873599     1.0944233     1.0827344
   6 C    6 C           3     1.5263530     1.5286052     1.5251468
   1 H    7 N           2     1.0115994     1.0119960     1.0112028
   6 C    7 N           1     1.4615066     1.4615066     1.4615066
   1 H    8 O          48     0.9720227     0.9982493     0.9569603

           -------------------------------------------------
          |               Frequency Printout                |
           -------------------------------------------------
 projected vibrational frequencies (cm⁻¹)
eigval :       -0.00    -0.00    -0.00     0.00     0.00     0.00
eigval :       22.68    32.16    34.03    36.16    37.57    42.75
eigval :       45.88    47.09    49.98    51.06    53.36    55.21
eigval :       58.02    59.68    60.45    61.05    62.60    65.20
eigval :       68.11    70.34    72.59    75.88    76.29    78.78
eigval :       83.13    83.19    84.82    86.80    89.87    92.85
eigval :       95.56    98.34   100.07   103.96   109.28   114.25
eigval :      118.96   119.77   128.85   135.12   141.25   144.02
eigval :      151.39   156.34   157.18   160.13   161.82   165.26
eigval :      169.61   172.21   180.19   186.24   191.07   192.58
eigval :      195.71   202.06   209.46   216.17   222.63   224.50
eigval :      231.39   233.72   243.25   245.49   250.01   254.88
eigval :      256.26   262.05   268.04   268.64   278.57   281.24
eigval :      282.54   287.09   291.40   296.51   302.37   304.42
eigval :      310.15   317.28   318.19   321.82   337.17   338.63
eigval :      347.95   351.73   364.33   372.14   374.75   378.08
eigval :      384.89   395.02   399.03   409.12   413.83   420.05
eigval :      423.95   430.48   433.16   445.01   456.36   459.42
eigval :      466.40   469.85   474.86   478.83   486.51   489.26
eigval :      497.72   504.40   507.49   517.57   523.59   530.90
eigval :      534.37   540.69   543.94   546.76   562.33   567.30
eigval :      569.89   574.66   583.74   587.29   591.82   596.62
eigval :      603.67   605.49   625.04   627.13   635.46   644.12
eigval :      654.23   657.44   675.89   681.30   684.62   692.07
eigval :      703.39   710.92   725.38   734.63   738.81   749.68
eigval :      755.21   765.66   775.85   779.07   791.96   801.07
eigval :      816.85   826.19   835.90   859.90   888.03   892.65
eigval :      917.70   941.83   950.61   953.77   976.07   986.91
eigval :      996.59  1038.15  1083.30  1114.47  1176.22  1185.33
eigval :     1198.41  1255.14  1306.32  1324.59  1368.08  1403.77
eigval :     1417.40  1480.79  1489.51  1495.35  1497.91  1501.57
eigval :     1504.81  1512.33  1516.03  1520.17  1521.68  1524.68
eigval :     1525.49  1527.72  1529.48  1532.10  1532.66  1533.22
eigval :     1536.70  1540.54  1543.01  1544.47  1548.69  1552.28
eigval :     1552.94  1560.58  1563.18  1566.79  1568.75  1578.63
eigval :     1580.46  1588.97  2616.12  2799.95  2885.08  2937.59
eigval :     2939.59  2992.56  2994.51  3059.15  3062.46  3065.72
eigval :     3070.46  3079.38  3085.43  3097.52  3110.21  3118.10
eigval :     3126.23  3154.13  3175.13  3186.81  3191.50  3220.54
eigval :     3239.29  3282.34  3289.76  3301.24  3346.81  3352.88
eigval :     3363.00  3378.55  3384.61  3393.75  3395.02  3407.50
eigval :     3418.44  3421.81  3425.68  3441.14  3450.95  3455.36
eigval :     3462.19  3467.75  3468.29  3472.35  3483.89  3492.37
eigval :     3501.35  3516.12  3523.93  3528.77  3612.43  3666.38
eigval :     3668.17  3671.46  3672.18  3672.78  3673.56  3675.31
eigval :     3678.21  3679.77  3684.00
 reduced masses (amu)
   1: 14.03   2: 13.98   3: 13.89   4: 14.16   5: 13.82   6: 14.01   7: 12.40   8: 14.15
   9: 13.71  10: 13.56  11: 14.23  12: 13.85  13: 14.26  14: 13.97  15: 13.60  16: 14.16
  17: 13.89  18: 14.04  19: 14.16  20: 14.45  21: 14.00  22: 13.70  23: 14.45  24: 14.22
  25: 14.16  26: 13.60  27: 14.19  28: 12.99  29: 13.60  30: 14.21  31: 13.67  32: 13.08
  33: 14.40  34: 13.71  35: 13.92  36: 13.79  37: 13.93  38: 12.95  39: 14.25  40: 11.67
  41: 10.33  42: 10.30  43: 14.05  44: 13.76  45: 11.70  46: 13.01  47: 11.25  48: 12.89
  49: 11.35  50: 12.91  51: 13.10  52: 12.24  53: 11.89  54: 13.13  55: 12.73  56: 12.15
  57: 13.63  58: 11.89  59: 12.89  60: 12.76  61: 11.00  62: 13.00  63: 13.81  64:  8.18
  65:  8.05  66:  8.82  67:  9.84  68:  5.22  69:  8.64  70: 11.54  71:  6.44  72:  9.94
  73: 11.98  74:  9.95  75:  9.45  76: 10.35  77: 10.46  78:  7.84  79:  9.97  80: 10.54
  81: 11.09  82:  9.26  83:  6.43  84:  8.55  85:  7.35  86:  5.83  87:  8.99  88: 10.22
  89: 13.19  90: 13.44  91: 12.61  92: 13.06  93:  9.56  94: 12.55  95:  8.64  96:  4.34
  97:  8.94  98:  8.89  99: 11.09 100:  2.69 101:  3.78 102:  2.19 103:  2.12 104:  5.15
 105:  2.00 106:  2.39 107:  2.13 108:  1.84 109:  1.76 110:  1.58 111:  1.67 112:  2.36
 113:  2.43 114:  6.43 115:  2.01 116:  1.85 117:  1.63 118:  1.59 119:  1.56 120:  1.67
 121:  1.95 122:  1.70 123:  1.68 124:  1.67 125:  1.78 126:  1.75 127:  1.68 128:  1.60
 129:  2.05 130:  2.13 131:  1.68 132:  1.91 133:  1.64 134:  1.67 135:  1.94 136:  1.76
 137:  1.69 138:  1.65 139:  1.90 140:  1.80 141:  1.97 142:  1.80 143:  1.97 144:  2.05
 145:  1.92 146:  2.13 147:  2.01 148:  1.93 149:  1.93 150:  1.92 151:  1.98 152:  1.80
 153:  2.11 154:  1.91 155:  1.94 156:  2.04 157:  2.05 158:  2.32 159:  2.13 160:  7.24
 161:  2.03 162:  2.25 163:  2.93 164:  2.03 165:  2.37 166:  2.31 167:  5.73 168:  2.89
 169:  3.33 170:  3.08 171:  3.76 172: 10.59 173:  6.50 174:  6.76 175:  5.53 176:  3.72
 177:  3.73 178:  5.16 179:  4.83 180:  3.32 181:  3.08 182:  1.73 183:  1.64 184:  1.73
 185:  1.70 186:  1.77 187:  1.74 188:  1.96 189:  2.02 190:  2.02 191:  2.08 192:  2.09
 193:  2.04 194:  2.05 195:  2.03 196:  2.06 197:  2.07 198:  2.06 199:  2.10 200:  2.11
 201:  2.01 202:  2.09 203:  2.07 204:  2.10 205:  2.06 206:  2.06 207:  2.06 208:  2.05
 209:  2.02 210:  1.96 211:  1.98 212:  1.93 213:  2.01 214:  1.89 215:  1.89 216:  1.87
 217:  1.81 218:  1.67 219:  1.70 220:  1.88 221:  1.93 222:  1.35 223:  1.77 224:  1.69
 225:  1.87 226:  1.66 227:  1.94 228:  1.96 229:  1.91 230:  1.88 231:  1.89 232:  1.88
 233:  1.90 234:  1.88 235:  2.11 236:  1.85 237:  1.99 238:  2.13 239:  2.10 240:  1.69
 241:  1.74 242:  2.00 243:  1.84 244:  1.67 245:  1.73 246:  2.01 247:  1.62 248:  2.01
 249:  1.86 250:  1.61 251:  1.76 252:  1.88 253:  1.70 254:  1.98 255:  1.74 256:  1.98
 257:  1.65 258:  2.09 259:  1.69 260:  1.70 261:  1.58 262:  1.77 263:  1.79 264:  1.83
 265:  1.83 266:  1.84 267:  1.83 268:  1.83 269:  1.84 270:  1.83 271:  1.84 272:  1.84
 273:  1.84
 IR intensities (km·mol⁻¹)
   1:  0.03   2:  0.04   3:  0.02   4:  0.08   5:  0.04   6:  0.06   7: 31.40   8:  2.58
   9: 21.59  10:  6.56  11:  0.61  12:  0.08  13:  0.26  14:  2.71  15:  1.84  16:  0.38
  17:  4.03  18:  0.83  19:  3.80  20:  1.97  21:  1.35  22:  0.60  23:  3.82  24:  3.56
  25:  1.13  26:  2.67  27:  5.42  28:  1.98  29:  4.20  30:  0.21  31:  2.59  32:  4.11
  33:  6.05  34:  3.19  35:  0.68  36:  2.38  37:  6.72  38:  3.17  39:  2.38  40: 11.10
  41: 30.76  42: 19.82  43:  1.75  44:  0.14  45:  6.78  46:  3.71  47:  9.94  48:  1.09
  49:  0.62  50:  9.63  51:  8.09  52:  4.83  53: 15.02  54:  3.36  55:  0.93  56:  3.92
  57: 12.39  58:  4.86  59: 20.05  60: 17.79  61:  5.78  62:  2.74  63: 12.85  64:  6.64
  65: 11.81  66:  5.00  67:  3.66  68:  5.80  69: 11.45  70: 23.96  71: 64.23  72: 17.39
  73: 40.32  74: 11.05  75: 20.94  76: 15.57  77: 14.77  78: 78.57  79:109.74  80: 63.40
  81: 23.27  82: 13.42  83: 20.75  84: 13.40  85:181.23  86: 85.39  87:  9.22  88: 34.94
  89: 52.73  90: 43.57  91:  7.12  92: 10.99  93:  9.31  94: 27.42  95: 14.46  96:  5.42
  97: 33.89  98: 23.45  99: 16.14 100:  4.65 101: 22.64 102:  1.87 103:  7.41 104: 36.05
 105: 46.81 106: 29.48 107: 15.21 108: 95.85 109: 26.68 110: 28.97 111:  6.21 112:  0.36
 113: 46.40 114:  1.34 115: 35.08 116: 65.99 117: 69.45 118: 12.36 119: 15.27 120: 63.90
 121: 12.28 122: 18.71 123: 23.62 124: 59.30 125: 63.05 126:  5.88 127: 38.33 128: 40.05
 129:133.84 130: 78.96 131: 28.69 132: 92.29 133: 24.95 134: 63.93 135: 16.09 136: 76.29
 137:152.75 138:151.75 139: 12.91 140: 89.23 141:208.55 142: 63.29 143:362.55 144:116.49
 145:112.84 146:193.48 147:594.68 148:485.77 149:237.02 150: 72.99 151: 43.00 152: 54.33
 153:835.19 154:717.81 155:106.73 156:959.65 157:227.89 158:****** 159:331.02 160: 11.14
 161:326.35 162:412.06 163:188.21 164:292.37 165:140.33 166: 70.12 167:  2.46 168: 38.39
 169: 40.81 170: 97.50 171:  5.36 172: 12.49 173: 13.32 174:  2.39 175:  9.07 176: 10.60
 177:  2.07 178:  3.86 179:  0.22 180:  4.03 181:  3.20 182:  3.05 183: 19.36 184:  7.39
 185: 16.26 186: 69.99 187: 82.05 188: 37.48 189: 99.57 190:128.66 191: 46.80 192:360.19
 193: 53.19 194:  0.63 195:216.03 196:155.21 197:322.43 198:152.65 199:921.75 200:161.20
 201: 68.86 202:227.26 203: 42.13 204: 98.27 205:283.37 206:732.59 207:127.82 208:255.28
 209:112.27 210: 50.66 211: 83.68 212: 23.06 213:****** 214:****** 215:****** 216:******
 217:371.49 218: 13.60 219: 12.73 220:  4.05 221: 15.57 222: 42.66 223: 14.51 224:  4.84
 225:****** 226: 10.36 227:636.90 228:****** 229:278.67 230:813.71 231:398.26 232:470.07
 233:****** 234:858.76 235:457.22 236:689.51 237:605.73 238:929.44 239:396.85 240:229.71
 241: 44.44 242:946.53 243:608.40 244:227.25 245:318.98 246:433.58 247: 56.71 248:610.41
 249:236.77 250: 87.26 251:126.74 252:279.08 253: 22.83 254:306.54 255:168.15 256: 72.23
 257:119.04 258:406.31 259:163.27 260:144.89 261:119.35 262:121.99 263: 44.30 264: 11.56
 265: 10.61 266: 16.48 267: 16.96 268:  9.58 269: 13.42 270: 12.17 271:  8.62 272:  8.90
 273: 10.08
 Raman intensities (amu)
   1:  0.00   2:  0.00   3:  0.00   4:  0.00   5:  0.00   6:  0.00   7:  0.00   8:  0.00
   9:  0.00  10:  0.00  11:  0.00  12:  0.00  13:  0.00  14:  0.00  15:  0.00  16:  0.00
  17:  0.00  18:  0.00  19:  0.00  20:  0.00  21:  0.00  22:  0.00  23:  0.00  24:  0.00
  25:  0.00  26:  0.00  27:  0.00  28:  0.00  29:  0.00  30:  0.00  31:  0.00  32:  0.00
  33:  0.00  34:  0.00  35:  0.00  36:  0.00  37:  0.00  38:  0.00  39:  0.00  40:  0.00
  41:  0.00  42:  0.00  43:  0.00  44:  0.00  45:  0.00  46:  0.00  47:  0.00  48:  0.00
  49:  0.00  50:  0.00  51:  0.00  52:  0.00  53:  0.00  54:  0.00  55:  0.00  56:  0.00
  57:  0.00  58:  0.00  59:  0.00  60:  0.00  61:  0.00  62:  0.00  63:  0.00  64:  0.00
  65:  0.00  66:  0.00  67:  0.00  68:  0.00  69:  0.00  70:  0.00  71:  0.00  72:  0.00
  73:  0.00  74:  0.00  75:  0.00  76:  0.00  77:  0.00  78:  0.00  79:  0.00  80:  0.00
  81:  0.00  82:  0.00  83:  0.00  84:  0.00  85:  0.00  86:  0.00  87:  0.00  88:  0.00
  89:  0.00  90:  0.00  91:  0.00  92:  0.00  93:  0.00  94:  0.00  95:  0.00  96:  0.00
  97:  0.00  98:  0.00  99:  0.00 100:  0.00 101:  0.00 102:  0.00 103:  0.00 104:  0.00
 105:  0.00 106:  0.00 107:  0.00 108:  0.00 109:  0.00 110:  0.00 111:  0.00 112:  0.00
 113:  0.00 114:  0.00 115:  0.00 116:  0.00 117:  0.00 118:  0.00 119:  0.00 120:  0.00
 121:  0.00 122:  0.00 123:  0.00 124:  0.00 125:  0.00 126:  0.00 127:  0.00 128:  0.00
 129:  0.00 130:  0.00 131:  0.00 132:  0.00 133:  0.00 134:  0.00 135:  0.00 136:  0.00
 137:  0.00 138:  0.00 139:  0.00 140:  0.00 141:  0.00 142:  0.00 143:  0.00 144:  0.00
 145:  0.00 146:  0.00 147:  0.00 148:  0.00 149:  0.00 150:  0.00 151:  0.00 152:  0.00
 153:  0.00 154:  0.00 155:  0.00 156:  0.00 157:  0.00 158:  0.00 159:  0.00 160:  0.00
 161:  0.00 162:  0.00 163:  0.00 164:  0.00 165:  0.00 166:  0.00 167:  0.00 168:  0.00
 169:  0.00 170:  0.00 171:  0.00 172:  0.00 173:  0.00 174:  0.00 175:  0.00 176:  0.00
 177:  0.00 178:  0.00 179:  0.00 180:  0.00 181:  0.00 182:  0.00 183:  0.00 184:  0.00
 185:  0.00 186:  0.00 187:  0.00 188:  0.00 189:  0.00 190:  0.00 191:  0.00 192:  0.00
 193:  0.00 194:  0.00 195:  0.00 196:  0.00 197:  0.00 198:  0.00 199:  0.00 200:  0.00
 201:  0.00 202:  0.00 203:  0.00 204:  0.00 205:  0.00 206:  0.00 207:  0.00 208:  0.00
 209:  0.00 210:  0.00 211:  0.00 212:  0.00 213:  0.00 214:  0.00 215:  0.00 216:  0.00
 217:  0.00 218:  0.00 219:  0.00 220:  0.00 221:  0.00 222:  0.00 223:  0.00 224:  0.00
 225:  0.00 226:  0.00 227:  0.00 228:  0.00 229:  0.00 230:  0.00 231:  0.00 232:  0.00
 233:  0.00 234:  0.00 235:  0.00 236:  0.00 237:  0.00 238:  0.00 239:  0.00 240:  0.00
 241:  0.00 242:  0.00 243:  0.00 244:  0.00 245:  0.00 246:  0.00 247:  0.00 248:  0.00
 249:  0.00 250:  0.00 251:  0.00 252:  0.00 253:  0.00 254:  0.00 255:  0.00 256:  0.00
 257:  0.00 258:  0.00 259:  0.00 260:  0.00 261:  0.00 262:  0.00 263:  0.00 264:  0.00
 265:  0.00 266:  0.00 267:  0.00 268:  0.00 269:  0.00 270:  0.00 271:  0.00 272:  0.00
 273:  0.00
 output can be read by thermo (or use thermo option).
 writing <g98.out> molden fake output.
 recommended (thermochemical) frequency scaling factor: 1.0
           -------------------------------------------------
          |             Thermodynamic Functions             |
           -------------------------------------------------

Molecule has no symmetry elements
It seems to be the C1 point group
c1  symmetry found (for desy threshold:  0.10E+00) used in thermo

          ...................................................
          :                      SETUP                      :
          :.................................................:
          :  # frequencies                         267      :
          :  # imaginary freq.                       0      :
          :  linear?                             false      :
          :  only rotor calc.                    false      :
          :  symmetry                               c1      :
          :  rotational number                       1      :
          :  scaling factor                  1.0000000      :
          :  rotor cutoff                   50.0000000 cm⁻¹ :
          :  imag. cutoff                  -20.0000000 cm⁻¹ :
          :.................................................:

    mode    ω/cm⁻¹     T·S(HO)/kcal·mol⁻¹    T·S(FR)/kcal·mol⁻¹   T·S(vib)
   ------------------------------------------------------------------------
       1     22.68    -1.90360 (  4.06%)    -1.29073 ( 95.94%)    -1.31561
       2     32.16    -1.69685 ( 14.62%)    -1.18722 ( 85.38%)    -1.26173
       3     34.03    -1.66354 ( 17.66%)    -1.17053 ( 82.34%)    -1.25761
       4     36.16    -1.62762 ( 21.48%)    -1.15253 ( 78.52%)    -1.25458
       5     37.57    -1.60507 ( 24.17%)    -1.14123 ( 75.83%)    -1.25332
       6     42.75    -1.52867 ( 34.84%)    -1.10291 ( 65.16%)    -1.25123
       7     45.88    -1.48707 ( 41.48%)    -1.08203 ( 58.52%)    -1.25003
       8     47.09    -1.47169 ( 44.03%)    -1.07431 ( 55.97%)    -1.24927
       9     49.98    -1.43658 ( 49.95%)    -1.05667 ( 50.05%)    -1.24645
      10     51.06    -1.42390 ( 52.10%)    -1.05030 ( 47.90%)    -1.24495
      11     53.36    -1.39795 ( 56.47%)    -1.03726 ( 43.53%)    -1.24094
      12     55.21    -1.37791 ( 59.78%)    -1.02718 ( 40.22%)    -1.23685
      13     58.02    -1.34866 ( 64.45%)    -1.01247 ( 35.55%)    -1.22915
      14     59.68    -1.33206 ( 66.99%)    -1.00411 ( 33.01%)    -1.22381
      15     60.45    -1.32450 ( 68.12%)    -1.00030 ( 31.88%)    -1.22114
      16     61.05    -1.31868 ( 68.97%)    -0.99737 ( 31.03%)    -1.21899
      17     62.60    -1.30399 ( 71.07%)    -0.98998 ( 28.93%)    -1.21315
      18     65.20    -1.28002 ( 74.30%)    -0.97790 ( 25.70%)    -1.20239
      19     68.11    -1.25441 ( 77.49%)    -0.96498 ( 22.51%)    -1.18926
      20     70.34    -1.23550 ( 79.66%)    -0.95543 ( 20.34%)    -1.17853
      21     72.59    -1.21698 ( 81.63%)    -0.94608 ( 18.37%)    -1.16721
      22     75.88    -1.19101 ( 84.14%)    -0.93296 ( 15.86%)    -1.15008
      23     76.29    -1.18785 ( 84.42%)    -0.93136 ( 15.58%)    -1.14790
      24     78.78    -1.16907 ( 86.04%)    -0.92186 ( 13.96%)    -1.13456
      25     83.13    -1.13763 ( 88.43%)    -0.90594 ( 11.57%)    -1.11081
      26     83.19    -1.13721 ( 88.46%)    -0.90573 ( 11.54%)    -1.11049
      27     84.82    -1.12584 ( 89.23%)    -0.89997 ( 10.77%)    -1.10151
      28     86.80    -1.11237 ( 90.08%)    -0.89314 (  9.92%)    -1.09063
      29     89.87    -1.09209 ( 91.26%)    -0.88284 (  8.74%)    -1.07380
      30     92.85    -1.07310 ( 92.24%)    -0.87319 (  7.76%)    -1.05759
      31     95.56    -1.05634 ( 93.03%)    -0.86467 (  6.97%)    -1.04298
      32     98.34    -1.03964 ( 93.74%)    -0.85616 (  6.26%)    -1.02814
      33    100.07    -1.02952 ( 94.13%)    -0.85101 (  5.87%)    -1.01905
      34    103.96    -1.00735 ( 94.92%)    -0.83970 (  5.08%)    -0.99883
      35    109.28    -0.97843 ( 95.80%)    -0.82492 (  4.20%)    -0.97199
      36    114.25    -0.95272 ( 96.46%)    -0.81174 (  3.54%)    -0.94773
      37    118.96    -0.92941 ( 96.97%)    -0.79978 (  3.03%)    -0.92548
      38    119.77    -0.92547 ( 97.05%)    -0.79776 (  2.95%)    -0.92171
      39    128.85    -0.88345 ( 97.78%)    -0.77611 (  2.22%)    -0.88107
      40    135.12    -0.85625 ( 98.16%)    -0.76205 (  1.84%)    -0.85452
      41    141.25    -0.83089 ( 98.45%)    -0.74888 (  1.55%)    -0.82962
      42    144.02    -0.81983 ( 98.57%)    -0.74313 (  1.43%)    -0.81873
      43    151.39    -0.79151 ( 98.82%)    -0.72837 (  1.18%)    -0.79077
      44    156.34    -0.77328 ( 98.96%)    -0.71883 (  1.04%)    -0.77272
      45    157.18    -0.77027 ( 98.99%)    -0.71725 (  1.01%)    -0.76973
      46    160.13    -0.75975 ( 99.06%)    -0.71173 (  0.94%)    -0.75930
      47    161.82    -0.75385 ( 99.10%)    -0.70863 (  0.90%)    -0.75345
      48    165.26    -0.74202 ( 99.17%)    -0.70239 (  0.83%)    -0.74169
      49    169.61    -0.72742 ( 99.25%)    -0.69469 (  0.75%)    -0.72717
      50    172.21    -0.71891 ( 99.29%)    -0.69019 (  0.71%)    -0.71870
      51    180.19    -0.69361 ( 99.41%)    -0.67676 (  0.59%)    -0.69351
      52    186.24    -0.67528 ( 99.48%)    -0.66698 (  0.52%)    -0.67523
      53    191.07    -0.66112 ( 99.53%)    -0.65940 (  0.47%)    -0.66111
      54    192.58    -0.65677 ( 99.55%)    -0.65706 (  0.45%)    -0.65677
      55    195.71    -0.64790 ( 99.58%)    -0.65229 (  0.42%)    -0.64792
      56    202.06    -0.63036 ( 99.63%)    -0.64283 (  0.37%)    -0.63040
      57    209.46    -0.61071 ( 99.68%)    -0.63217 (  0.32%)    -0.61078
      58    216.17    -0.59360 ( 99.71%)    -0.62284 (  0.29%)    -0.59368
      59    222.63    -0.57769 ( 99.75%)    -0.61411 (  0.25%)    -0.57779
      60    224.50    -0.57320 ( 99.75%)    -0.61164 (  0.25%)    -0.57329
      61    231.39    -0.55697 ( 99.78%)    -0.60267 (  0.22%)    -0.55707
      62    233.72    -0.55164 ( 99.79%)    -0.59971 (  0.21%)    -0.55174
      63    243.25    -0.53039 ( 99.82%)    -0.58787 (  0.18%)    -0.53050
      64    245.49    -0.52555 ( 99.83%)    -0.58515 (  0.17%)    -0.52566
      65    250.01    -0.51595 ( 99.84%)    -0.57975 (  0.16%)    -0.51605
      66    254.88    -0.50584 ( 99.85%)    -0.57404 (  0.15%)    -0.50594
      67    256.26    -0.50302 ( 99.86%)    -0.57244 (  0.14%)    -0.50312
      68    262.05    -0.49136 ( 99.87%)    -0.56581 (  0.13%)    -0.49146
      69    268.04    -0.47966 ( 99.88%)    -0.55912 (  0.12%)    -0.47976
      70    268.64    -0.47852 ( 99.88%)    -0.55847 (  0.12%)    -0.47862
      71    278.57    -0.45987 ( 99.90%)    -0.54770 (  0.10%)    -0.45996
      72    281.24    -0.45501 ( 99.90%)    -0.54488 (  0.10%)    -0.45510
      73    282.54    -0.45266 ( 99.90%)    -0.54352 (  0.10%)    -0.45275
      74    287.09    -0.44456 ( 99.91%)    -0.53879 (  0.09%)    -0.44465
      75    291.40    -0.43703 ( 99.91%)    -0.53437 (  0.09%)    -0.43712
      76    296.51    -0.42829 ( 99.92%)    -0.52922 (  0.08%)    -0.42838
   ------------------------------------------------------------------------

   temp. (K)  partition function   enthalpy   heat capacity  entropy
                                   cal/mol     cal/K/mol   cal/K/mol   J/K/mol
 298.15  VIB  0.563E+33            42799.040    230.460    277.823
         ROT  0.345E+08              888.752      2.981     37.472
         INT  0.194E+41            43687.792    233.441    315.295
         TR   0.116E+29             1481.254      4.968     44.632
         TOT                       45169.0462   238.4094   359.9272  1505.9354

       T/K    H(0)-H(T)+PV         H(T)/Eh          T*S/Eh         G(T)/Eh
   ------------------------------------------------------------------------
    298.15    0.719815E-01    0.817945E+00    0.171013E+00    0.646932E+00
   ------------------------------------------------------------------------

         :::::::::::::::::::::::::::::::::::::::::::::::::::::
         ::                  THERMODYNAMIC                  ::
         :::::::::::::::::::::::::::::::::::::::::::::::::::::
         :: total free energy        -143.612793653038 Eh   ::
         ::.................................................::
         :: total energy             -144.259725581682 Eh   ::
         :: zero point energy           0.745963493975 Eh   ::
         :: G(RRHO) w/o ZPVE           -0.099031565331 Eh   ::
         :: G(RRHO) contrib.            0.646931928643 Eh   ::
         :::::::::::::::::::::::::::::::::::::::::::::::::::::

optimized geometry written to: xtbopt.xyz


           -------------------------------------------------
          | TOTAL ENERGY             -144.259725581682 Eh   |
          | TOTAL ENTHALPY           -143.441780630705 Eh   |
          | TOTAL FREE ENERGY        -143.612793653038 Eh   |
          | GRADIENT NORM               0.000443768664 Eh/α |
          | HOMO-LUMO GAP               8.664434553227 eV   |
           -------------------------------------------------

------------------------------------------------------------------------
 * finished run on 2022/10/12 at 01:33:02.557     
------------------------------------------------------------------------
 total:
 * wall-time:     0 d,  0 h,  0 min, 16.091 sec
 *  cpu-time:     0 d,  0 h,  1 min, 35.074 sec
 * ratio c/w:     5.908 speedup
 SCF:
 * wall-time:     0 d,  0 h,  0 min,  0.109 sec
 *  cpu-time:     0 d,  0 h,  0 min,  0.648 sec
 * ratio c/w:     5.953 speedup
 ANC optimizer:
 * wall-time:     0 d,  0 h,  0 min,  0.340 sec
 *  cpu-time:     0 d,  0 h,  0 min,  1.967 sec
 * ratio c/w:     5.784 speedup
 analytical hessian:
 * wall-time:     0 d,  0 h,  0 min, 15.443 sec
 *  cpu-time:     0 d,  0 h,  1 min, 31.353 sec
 * ratio c/w:     5.915 speedup

