91
 energy: -144.259725581682 gnorm: 0.000443779923 xtb: 6.5.1 (579679a)
H            0.58785077120000       -0.05967189740000       -1.88698054840000
C            1.04402969930000        0.15732082480000       -0.92674890720000
H            2.11831902940000        0.21403628850000       -1.04922042270000
H            0.69291928790000        1.12773592180000       -0.59336191720000
C            0.68582580560000       -0.93022832570000        0.08096542860000
H            1.15948404760000       -0.69420282050000        1.03541481340000
C           -0.82472389990000       -0.95380771050000        0.31402555590000
H           -1.12302904130000       -1.92730660910000        0.70634562800000
H           -1.33973944130000       -0.79890585180000       -0.63914104320000
C            1.17962509740000       -2.29797615740000       -0.37892644410000
H            0.96269655110000       -3.04953880130000        0.37411976540000
H            2.25273971530000       -2.27901359200000       -0.54237022270000
H            0.69136030410000       -2.58792588310000       -1.30418825040000
N           -1.19695712900000        0.05141778420000        1.30748687720000
H           -0.73299457060000        0.92855543090000        1.10873073780000
H           -2.19478629040000        0.21439673580000        1.29000372850000
O           -2.20819890290000        2.29719396950000       -0.87977741150000
H           -1.42782397490000        2.45495970520000       -0.31760834200000
H           -2.92508893800000        2.07379988460000       -0.25895092180000
O           -2.16835102360000        0.60279364700000       -2.94026249420000
H           -3.02026074170000        0.77255278000000       -3.34389903570000
H           -2.12177090780000        1.18218797280000       -2.14401231800000
O           -1.19472788000000       -1.99093652340000       -3.06213709520000
H           -1.52551895010000       -1.07762110300000       -3.08507799080000
H           -1.67442893730000       -2.41214767930000       -2.33379792570000
O           -0.40476193530000        1.71186916370000        4.21033527740000
H           -0.54551220900000        0.75051896630000        4.22023396400000
H            0.41756931160000        1.85981080440000        3.72525007280000
O           -3.05983984620000       -2.81117419010000       -1.02665476390000
H           -3.46920852250000       -2.12517895710000       -0.45079069890000
H           -3.78843040690000       -3.27327906460000       -1.44381469620000
O            1.40297878140000       -1.72229727790000       -3.75912137500000
H            1.46118897320000       -2.18921350610000       -4.59328700070000
H            0.47931422650000       -1.84490238470000       -3.44627155320000
O            3.82978250120000       -1.01897110600000       -2.44386971980000
H            3.00296096600000       -1.45912270880000       -2.69557007450000
H            3.84782648160000       -0.21135094480000       -2.96580324340000
O            0.16242710520000       -4.70658798940000        1.91872836280000
H           -0.78811765020000       -4.54835874400000        1.70023130120000
H            0.43692316480000       -5.45822668140000        1.39360437580000
O            2.09835672950000        0.96987855130000       -4.05737680010000
H            1.25670209530000        1.42750140410000       -4.29351232630000
H            1.84103077310000        0.04078781390000       -3.93049886050000
O            3.06715606950000        2.59251705620000       -2.26599365580000
H            3.67749823650000        3.09369905470000       -2.80846459150000
H            2.64387432690000        1.93251682370000       -2.88383964240000
O            1.81297156850000        1.88821987640000        2.31590003330000
H            2.54780887740000        2.18344251970000        1.74395302770000
H            2.08281912910000        0.97780127900000        2.55109141470000
O           -2.18926383250000        2.91785266610000        2.60832881620000
H           -1.51327296280000        3.17706409760000        1.96265869810000
H           -1.67369052250000        2.47794921710000        3.32088363900000
O           -3.92107378460000        1.62960643240000        1.16431774100000
H           -3.28803355510000        2.08330495960000        1.79913235350000
H           -4.75729603680000        2.08428692410000        1.26865912660000
O           -0.29450049230000        2.05440958780000       -4.42282799780000
H           -0.45843388510000        2.89329253290000       -3.94860980920000
H           -0.90548818820000        1.42118099460000       -4.01392181490000
O           -0.10531289890000        2.92299092980000        0.77479842260000
H            0.38869181690000        3.50965049470000        0.17512116800000
H            0.57059478510000        2.54790472840000        1.38559902840000
O            3.77652904560000        2.14750418280000        0.43717331710000
H            3.51143010290000        2.29553548430000       -0.48144099110000
H            4.02648922180000        1.21068359020000        0.48072085860000
O           -0.85641750910000       -0.99075713510000        3.67605020530000
H           -0.89518050280000       -0.56070467190000        2.76288595130000
H           -0.08793420900000       -1.58472813080000        3.64543934890000
O            1.35743807790000        4.29394242840000       -1.07735398830000
H            1.93611918760000        3.62894417300000       -1.51463932480000
H            1.93719549840000        4.96188495100000       -0.70930715420000
O           -3.10434642540000       -2.22428145740000        3.07687353790000
H           -3.60041769930000       -2.38633615920000        3.87901098820000
H           -2.25933085060000       -1.77369996360000        3.35589884250000
O            1.26469836040000       -2.75692153510000        3.39831135050000
H            0.89719818340000       -3.44049680170000        2.80170720060000
H            1.52241000130000       -3.21040861340000        4.20169474840000
O            2.88086130870000       -0.57882798570000        2.67297772380000
H            3.35834791220000       -0.73210275510000        1.84683030090000
H            2.37449501820000       -1.38016069470000        2.87108962130000
O            4.38297547000000       -0.60019068980000        0.19293041080000
H            4.15783641140000       -0.79128887880000       -0.74274008540000
H            5.30643411520000       -0.83048084560000        0.30000761790000
O           -2.36944475210000       -4.21788065010000        1.29121481000000
H           -2.51061947180000       -3.79857376770000        0.42494206050000
H           -2.68521798380000       -3.57688532600000        1.95140800140000
O           -0.93921666530000        4.07600296910000       -2.71437988020000
H           -1.53932969000000        3.59883305590000       -2.12535123670000
H           -0.16326869000000        4.29469211370000       -2.18027835320000
O           -4.21904026950000       -1.16417311270000        0.75358440740000
H           -4.19469941180000       -0.20021709630000        0.84172575270000
H           -3.89426442660000       -1.52138648740000        1.59869315250000
