 Entering Gaussian System
 *********************************************
 Gaussian 98:
 frequency output generated by the xtb code
 *********************************************
                         Standard orientation:
 --------------------------------------------------------------------
  Center     Atomic     Atomic              Coordinates (Angstroms)
  Number     Number      Type              X           Y           Z
 --------------------------------------------------------------------
    1          1             0       -0.960665    1.807939   -0.185686
    2          6             0       -0.337744    1.401240    0.601292
    3          1             0        0.628300    1.135430    0.191341
    4          1             0       -0.194876    2.163497    1.354292
    5          6             0       -1.009846    0.178701    1.211326
    6          1             0       -0.369323   -0.218490    2.002300
    7          6             0       -2.338956    0.592758    1.846214
    8          1             0       -3.005106    0.995929    1.076941
    9          1             0       -2.141081    1.389402    2.574421
   10          6             0       -1.214018   -0.899136    0.154748
   11          1             0       -1.645723   -1.781569    0.604212
   12          1             0       -0.267026   -1.173698   -0.293489
   13          1             0       -1.877704   -0.533913   -0.619981
   14          7             0       -3.017209   -0.554905    2.459288
   15          1             0       -2.368651   -1.025093    3.086657
   16          1             0       -3.795297   -0.227676    3.022347
   17          8             0       -1.762508    3.794073   -1.207459
   18          1             0       -1.527702    4.061256   -0.275560
   19          1             0       -2.203584    4.554238   -1.588780
   20          8             0       -2.301915    1.295623   -2.450100
   21          1             0       -2.250696    2.148487   -1.993953
   22          1             0       -1.388601    0.964332   -2.509438
   23          8             0       -2.518049   -2.824453   -2.425686
   24          1             0       -2.458136   -3.303217   -1.580194
   25          1             0       -3.079737   -2.047321   -2.247821
   26          8             0       -0.548140    3.176825    3.539719
   27          1             0       -0.350085    3.833663    4.208619
   28          1             0        0.288849    2.703855    3.373169
   29          8             0       -2.495246   -4.008670    0.095928
   30          1             0       -3.194409   -3.324617    0.338463
   31          1             0       -2.930925   -4.861161    0.126611
   32          8             0       -0.112146   -2.279199   -3.229359
   33          1             0       -1.057202   -2.438876   -2.939528
   34          1             0       -0.083088   -2.519021   -4.156846
   35          8             0        2.767633   -2.093029   -2.616699
   36          1             0        2.950573   -1.368011   -3.261043
   37          1             0        1.876272   -2.394601   -2.828986
   38          8             0        2.943657   -3.843051   -0.372882
   39          1             0        2.090040   -4.237847   -0.625747
   40          1             0        3.218345   -3.333495   -1.145920
   41          8             0        2.813302    0.139729   -4.042812
   42          1             0        3.444006    0.695381   -3.548815
   43          1             0        1.934746    0.439518   -3.767287
   44          8             0        4.285307    1.597312   -2.254712
   45          1             0        4.586409    1.083146   -1.501686
   46          1             0        3.758119    2.327592   -1.890922
   47          8             0        1.869915    1.918750    2.979694
   48          1             0        2.470637    1.785645    2.215278
   49          1             0        1.680555    1.017625    3.281373
   50          8             0       -1.066396    4.643405    1.182973
   51          1             0       -0.092917    4.747599    1.174200
   52          1             0       -1.226251    4.096772    1.967869
   53          8             0       -4.045608   -0.617285   -1.832473
   54          1             0       -4.818195   -0.480639   -2.381501
   55          1             0       -3.429879    0.128719   -2.033118
   56          8             0        0.353218    0.355502   -2.605333
   57          1             0        0.882021    0.201872   -1.794590
   58          1             0        0.133328   -0.542209   -2.916411
   59          8             0        1.633745    4.453312    1.374845
   60          1             0        2.029488    4.149796    0.543507
   61          1             0        1.775658    3.746165    2.014954
   62          8             0        3.376575    1.532143    0.749405
   63          1             0        3.236900    2.317460    0.207086
   64          1             0        2.951675    0.796761    0.264955
   65          8             0       -0.820089   -1.889933    4.167917
   66          1             0       -0.748688   -2.276859    5.041113
   67          1             0        0.026108   -1.429706    3.995418
   68          8             0        2.720300    3.615203   -1.087234
   69          1             0        3.078368    4.436364   -1.427698
   70          1             0        1.881453    3.442733   -1.608251
   71          8             0       -0.476335   -3.666054    2.051122
   72          1             0       -1.226053   -3.783344    1.449417
   73          1             0       -0.776481   -3.098276    2.779616
   74          8             0        1.679332   -2.232138    1.310439
   75          1             0        2.289485   -2.854475    0.850110
   76          1             0        0.877690   -2.769121    1.497882
   77          8             0        1.652764   -0.847985    3.567076
   78          1             0        2.437710   -1.084113    4.063360
   79          1             0        1.732230   -1.313363    2.697505
   80          8             0        2.094167   -0.423035   -0.633599
   81          1             0        1.857575   -1.010090    0.115432
   82          1             0        2.514289   -1.016454   -1.293782
   83          8             0        0.345091   -4.280781   -1.189885
   84          1             0        0.183806   -3.607693   -1.864008
   85          1             0       -0.406543   -4.255404   -0.590993
   86          8             0        0.576606    3.161499   -2.471886
   87          1             0       -0.244496    3.427235   -2.012678
   88          1             0        0.494457    2.213363   -2.643830
   89          8             0       -4.208626   -2.133332    0.617471
   90          1             0       -3.783493   -1.561190    1.312782
   91          1             0       -4.246423   -1.580171   -0.175715
 --------------------------------------------------------------------
     1 basis functions        1 primitive gaussians
     1 alpha electrons        1 beta electrons
 
 Harmonic frequencies (cm**-1), IR intensities (km*mol⁻¹),
 Raman scattering activities (A**4/amu), Raman depolarization ratios,
 reduced masses (AMU), force constants (mDyne/A) and normal coordinates:
                      1                      2                      3
                        a                      a                      a 
 Frequencies --    22.8416                29.2921                31.7383
 Red. masses --    14.0651                13.3848                13.7792
 Frc consts  --     0.0000                 0.0000                 0.0000
 IR Inten    --     1.8588                 1.0180                 0.6939
 Raman Activ --     0.0000                 0.0000                 0.0000
 Depolar     --     0.0000                 0.0000                 0.0000
 Atom AN      X      Y      Z        X      Y      Z        X      Y      Z
   1   1     0.00  -0.01  -0.01    -0.05  -0.01   0.04    -0.05  -0.00   0.00
   2   6    -0.00  -0.02  -0.00    -0.17  -0.02   0.15    -0.11   0.05  -0.02
   3   1     0.00  -0.00   0.01    -0.04   0.01   0.05    -0.03   0.03  -0.02
   4   1    -0.01   0.00  -0.00    -0.07  -0.01   0.05    -0.03   0.02  -0.01
   5   6     0.00  -0.02  -0.01    -0.14  -0.07   0.09     0.01   0.02   0.05
   6   1    -0.00   0.00   0.01    -0.04  -0.02   0.03     0.03   0.02   0.00
   7   6    -0.03  -0.04  -0.07    -0.17  -0.14   0.08     0.03  -0.05   0.13
   8   1    -0.01  -0.03  -0.03    -0.05  -0.04   0.02    -0.01  -0.02   0.05
   9   1    -0.03  -0.00  -0.03    -0.06  -0.05   0.03     0.01  -0.01   0.04
  10   6     0.07  -0.05   0.01    -0.09  -0.04   0.05     0.00  -0.01   0.08
  11   1     0.03  -0.02   0.01    -0.02  -0.02   0.00     0.03  -0.01   0.04
  12   1     0.03  -0.01   0.01    -0.02   0.00   0.02    -0.00   0.02   0.00
  13   1     0.02  -0.03  -0.00    -0.02  -0.01   0.01    -0.02  -0.02   0.04
  14   7    -0.01  -0.05  -0.05    -0.16  -0.21   0.02     0.12  -0.10   0.16
  15   1    -0.01   0.01   0.01    -0.04  -0.06   0.00     0.05  -0.03   0.03
  16   1    -0.02  -0.02  -0.03    -0.05  -0.07   0.00     0.04  -0.04   0.06
  17   8     0.01  -0.00  -0.01     0.07   0.06   0.06     0.10   0.09  -0.24
  18   1     0.00  -0.00  -0.00     0.04   0.03   0.01     0.01   0.03  -0.06
  19   1     0.00  -0.00  -0.00     0.02   0.01   0.01     0.04   0.02  -0.07
  20   8    -0.01  -0.02   0.05    -0.06   0.03   0.11     0.03   0.03  -0.05
  21   1    -0.00  -0.00   0.01    -0.01   0.01   0.02     0.01   0.02  -0.03
  22   1    -0.00  -0.00   0.01    -0.01   0.01   0.02     0.00   0.00  -0.01
  23   8    -0.04   0.03  -0.14     0.04  -0.03  -0.07    -0.04   0.10   0.05
  24   1     0.01   0.00  -0.04     0.01  -0.01  -0.02    -0.01   0.02   0.01
  25   1    -0.01   0.00  -0.02     0.01  -0.01  -0.01    -0.00   0.03   0.02
  26   8    -0.02   0.00  -0.03     0.23   0.26  -0.01    -0.20   0.23  -0.14
  27   1    -0.01  -0.01  -0.00     0.07   0.07  -0.01    -0.05   0.07  -0.05
  28   1    -0.00   0.00  -0.01     0.05   0.05  -0.00    -0.06   0.04  -0.01
  29   8     0.35  -0.08  -0.11     0.04  -0.11  -0.10     0.02  -0.01  -0.01
  30   1     0.08  -0.03  -0.02     0.00  -0.04  -0.03     0.01  -0.00   0.01
  31   1     0.11  -0.03  -0.02     0.02  -0.03  -0.04     0.00  -0.00  -0.01
  32   8    -0.08   0.13  -0.25     0.04   0.03   0.00    -0.05   0.01  -0.03
  33   1    -0.02   0.02  -0.06     0.01  -0.00  -0.01    -0.01   0.01   0.00
  34   1    -0.02   0.05  -0.07     0.02   0.01  -0.00    -0.02   0.00  -0.01
  35   8    -0.13  -0.04  -0.06     0.02   0.08   0.09    -0.05   0.05  -0.04
  36   1    -0.01  -0.00  -0.00    -0.00   0.02   0.02    -0.01   0.01  -0.01
  37   1    -0.03   0.01  -0.03     0.01   0.01   0.02    -0.01   0.01  -0.01
  38   8    -0.27  -0.10  -0.08     0.07   0.09   0.08    -0.00  -0.02  -0.12
  39   1    -0.08   0.00  -0.00     0.02   0.02   0.01    -0.00  -0.01  -0.03
  40   1    -0.07  -0.03  -0.02     0.02   0.03   0.02    -0.01   0.00  -0.03
  41   8     0.05   0.04   0.07    -0.08   0.04   0.02     0.02   0.06  -0.02
  42   1     0.02   0.00   0.02    -0.01   0.01  -0.00     0.00   0.00   0.01
  43   1     0.02   0.02   0.02    -0.02   0.01   0.02     0.00   0.02  -0.01
  44   8     0.08   0.00   0.07     0.07  -0.01  -0.09     0.01  -0.17   0.17
  45   1     0.01   0.00   0.02     0.02   0.00  -0.02    -0.02  -0.06   0.04
  46   1     0.02   0.00   0.01     0.02   0.00  -0.03     0.01  -0.03   0.04
  47   8    -0.00   0.04  -0.01     0.10   0.05  -0.07    -0.26   0.04   0.08
  48   1    -0.00   0.00  -0.00     0.02   0.00  -0.02    -0.06   0.01   0.02
  49   1     0.00   0.01   0.00    -0.00   0.02  -0.02    -0.06   0.01   0.02
  50   8     0.02   0.01  -0.02     0.26   0.18  -0.05    -0.01   0.15  -0.23
  51   1     0.00   0.00  -0.01     0.07   0.03  -0.02    -0.00   0.03  -0.04
  52   1     0.00   0.00  -0.00     0.06   0.06  -0.00    -0.02   0.05  -0.06
  53   8     0.00  -0.02   0.08    -0.01  -0.07  -0.03     0.02   0.11   0.19
  54   1    -0.01   0.01   0.03     0.00  -0.02  -0.01    -0.00   0.03   0.06
  55   1     0.00  -0.01   0.02    -0.01  -0.01   0.01     0.01   0.02   0.03
  56   8     0.01   0.03   0.03    -0.08   0.03   0.07     0.01  -0.01  -0.02
  57   1    -0.00  -0.01   0.01    -0.03   0.01   0.02    -0.00  -0.00  -0.00
  58   1     0.00   0.01  -0.01    -0.01   0.01   0.01    -0.00   0.00  -0.01
  59   8     0.01   0.02  -0.01     0.25   0.05  -0.11    -0.03   0.08  -0.04
  60   1     0.01   0.00  -0.00     0.05   0.01  -0.03     0.00   0.01  -0.00
  61   1     0.00   0.01  -0.00     0.05   0.00  -0.03    -0.02   0.02  -0.00
  62   8    -0.02  -0.03  -0.02     0.03   0.02  -0.10    -0.16  -0.01   0.17
  63   1    -0.01  -0.01  -0.01     0.01   0.00  -0.03    -0.02  -0.00   0.03
  64   1    -0.00  -0.01  -0.00    -0.01   0.01  -0.02    -0.03  -0.00   0.03
  65   8    -0.04   0.23   0.13    -0.09  -0.15  -0.01     0.14  -0.25   0.01
  66   1    -0.01   0.06   0.03    -0.01  -0.04  -0.00     0.05  -0.07  -0.00
  67   1    -0.00   0.04   0.02    -0.03  -0.02   0.00     0.03  -0.05  -0.00
  68   8     0.02  -0.00  -0.00     0.10   0.02  -0.15     0.09  -0.05   0.06
  69   1     0.01  -0.00   0.00     0.02   0.00  -0.05     0.04  -0.02   0.01
  70   1     0.01   0.00  -0.00     0.02   0.00  -0.02     0.03  -0.01   0.01
  71   8     0.09   0.04   0.31    -0.01  -0.09  -0.04     0.08  -0.16  -0.07
  72   1     0.05   0.00   0.04    -0.00  -0.02  -0.01     0.02  -0.03  -0.01
  73   1    -0.01   0.03   0.05    -0.01  -0.03  -0.01     0.03  -0.05  -0.01
  74   8     0.06  -0.04   0.12    -0.05   0.02   0.05     0.03  -0.07  -0.05
  75   1    -0.01  -0.01   0.01    -0.00   0.01   0.02     0.01  -0.01  -0.02
  76   1     0.02  -0.00   0.05    -0.01  -0.00   0.01     0.01  -0.02  -0.01
  77   8     0.02   0.07   0.07    -0.17   0.07   0.02     0.02  -0.04  -0.06
  78   1    -0.00   0.02   0.03    -0.05   0.02   0.01     0.02   0.01  -0.02
  79   1     0.01   0.01   0.02    -0.03   0.01   0.01     0.01  -0.01  -0.01
  80   8    -0.01  -0.09   0.04    -0.12   0.04   0.06    -0.04   0.00   0.01
  81   1     0.01  -0.02   0.02    -0.02   0.01   0.02    -0.01  -0.01  -0.00
  82   1    -0.01  -0.02   0.00    -0.02   0.01   0.02    -0.01   0.01  -0.00
  83   8    -0.34   0.16  -0.07     0.10   0.04  -0.01    -0.00  -0.05  -0.12
  84   1    -0.04   0.03  -0.04     0.02   0.01  -0.00    -0.00  -0.01  -0.02
  85   1    -0.13   0.04  -0.08     0.02  -0.00  -0.01     0.01  -0.01  -0.02
  86   8     0.02   0.01   0.00     0.00   0.00   0.00     0.15  -0.03  -0.04
  87   1     0.00   0.00  -0.00     0.01   0.01   0.01     0.03   0.00  -0.03
  88   1     0.00   0.00   0.01    -0.01  -0.00   0.01     0.03  -0.01  -0.01
  89   8     0.21  -0.23  -0.03    -0.05  -0.19  -0.10     0.07  -0.02   0.15
  90   1     0.03  -0.05  -0.01    -0.02  -0.05  -0.01     0.02  -0.01   0.04
  91   1     0.03  -0.05  -0.00    -0.01  -0.04  -0.02     0.01   0.01   0.04
                      4                      5                      6
                        a                      a                      a 
 Frequencies --    35.2860                43.9766                45.9764
 Red. masses --    14.1798                14.1059                13.4846
 Frc consts  --     0.0000                 0.0000                 0.0000
 IR Inten    --     1.8244                 1.3522                 0.6174
 Raman Activ --     0.0000                 0.0000                 0.0000
 Depolar     --     0.0000                 0.0000                 0.0000
 Atom AN      X      Y      Z        X      Y      Z        X      Y      Z
   1   1    -0.02  -0.01   0.01    -0.04  -0.00   0.00     0.02  -0.01  -0.03
   2   6    -0.04  -0.00   0.01    -0.06  -0.02  -0.04     0.05   0.03  -0.06
   3   1    -0.01   0.00  -0.00    -0.02   0.00  -0.04     0.01  -0.01  -0.00
   4   1    -0.01   0.00   0.00    -0.00  -0.01  -0.01     0.02   0.03  -0.04
   5   6    -0.01  -0.01   0.03     0.01  -0.05  -0.02    -0.02   0.11   0.04
   6   1     0.01  -0.00   0.00     0.02  -0.02  -0.03    -0.02   0.05   0.03
   7   6     0.01  -0.02   0.08     0.06  -0.09   0.10    -0.03   0.21  -0.06
   8   1    -0.00  -0.00   0.03     0.00  -0.01   0.05     0.01   0.05  -0.03
   9   1     0.01  -0.01   0.03     0.03  -0.04   0.04    -0.01   0.07  -0.03
  10   6    -0.04  -0.01   0.04    -0.06  -0.01  -0.05    -0.01   0.01   0.14
  11   1    -0.00  -0.00   0.02     0.01  -0.01  -0.01    -0.01   0.02   0.06
  12   1    -0.01   0.00  -0.00    -0.03   0.01  -0.05    -0.00  -0.01   0.05
  13   1    -0.02  -0.00   0.02    -0.04   0.00   0.01     0.00  -0.02   0.03
  14   7     0.03  -0.03   0.08     0.11  -0.13   0.09    -0.11   0.30  -0.02
  15   1     0.01  -0.01   0.01     0.04  -0.04   0.01    -0.04   0.08   0.00
  16   1     0.01  -0.01   0.03     0.04  -0.04   0.04    -0.03   0.10  -0.01
  17   8    -0.05  -0.03  -0.03    -0.00   0.01  -0.07    -0.01  -0.02  -0.03
  18   1    -0.01  -0.01  -0.01    -0.01  -0.01  -0.01     0.01   0.00  -0.01
  19   1    -0.02  -0.01  -0.01     0.00   0.01  -0.01    -0.01  -0.01  -0.01
  20   8     0.03  -0.04  -0.03    -0.01   0.04  -0.10    -0.09  -0.09   0.07
  21   1     0.00  -0.01  -0.01     0.00   0.01  -0.03    -0.02  -0.02   0.01
  22   1     0.01  -0.01   0.00    -0.00   0.00  -0.02    -0.02  -0.02   0.01
  23   8     0.03   0.07   0.04    -0.09   0.13  -0.05     0.04  -0.05   0.08
  24   1    -0.00   0.01   0.01    -0.01   0.03  -0.01     0.02  -0.00   0.02
  25   1     0.01   0.02   0.01    -0.02   0.03  -0.00     0.00  -0.02   0.01
  26   8     0.11   0.02  -0.02     0.01  -0.15  -0.02     0.03   0.03  -0.07
  27   1     0.04   0.01  -0.01     0.01  -0.03  -0.01     0.03   0.01  -0.03
  28   1     0.03   0.00  -0.01     0.00  -0.03  -0.01    -0.00  -0.01  -0.02
  29   8    -0.12   0.01   0.00    -0.03   0.07  -0.05     0.04   0.04   0.09
  30   1    -0.02   0.01   0.00    -0.01   0.01  -0.01     0.01   0.01   0.03
  31   1    -0.04   0.01  -0.01    -0.00   0.01  -0.02     0.01   0.01   0.03
  32   8     0.05  -0.01   0.03    -0.08   0.07  -0.12    -0.02  -0.05  -0.14
  33   1     0.01   0.01   0.01    -0.02   0.02  -0.03     0.00  -0.01  -0.02
  34   1     0.01  -0.01   0.01    -0.02   0.00  -0.03    -0.02  -0.02  -0.03
  35   8     0.02  -0.06   0.10     0.09  -0.07   0.01     0.06   0.04  -0.18
  36   1     0.03  -0.01   0.04     0.02  -0.01   0.01     0.01   0.03  -0.02
  37   1     0.00   0.01   0.01     0.04  -0.04  -0.02     0.02  -0.00  -0.06
  38   8    -0.15  -0.21  -0.02     0.13   0.17   0.20     0.21   0.07  -0.14
  39   1    -0.04  -0.05  -0.01     0.03   0.06   0.05     0.05   0.02  -0.03
  40   1    -0.04  -0.04   0.00     0.05   0.03   0.05     0.05   0.02  -0.03
  41   8     0.29   0.06   0.31     0.13  -0.04   0.08     0.02   0.22   0.11
  42   1     0.07   0.03   0.07     0.03  -0.01   0.02     0.01   0.05   0.04
  43   1     0.07   0.02   0.06     0.03  -0.00   0.01     0.00   0.04   0.04
  44   8     0.26   0.36   0.11     0.13   0.02   0.03     0.13   0.13   0.09
  45   1     0.07   0.13   0.05     0.03   0.02   0.02     0.03   0.03   0.03
  46   1     0.04   0.09  -0.01     0.02   0.00  -0.01     0.02   0.03   0.02
  47   8     0.09  -0.00  -0.12     0.02  -0.10  -0.08    -0.04  -0.13  -0.02
  48   1     0.02   0.01  -0.03    -0.00  -0.04  -0.03    -0.02  -0.04  -0.01
  49   1     0.02  -0.00  -0.04     0.02  -0.02   0.00    -0.02  -0.03  -0.00
  50   8    -0.06  -0.02  -0.03    -0.07  -0.10  -0.01     0.11   0.05  -0.07
  51   1    -0.02   0.00  -0.01    -0.02  -0.03  -0.00     0.03   0.01  -0.01
  52   1    -0.01  -0.00  -0.01    -0.02  -0.03  -0.01     0.02   0.02  -0.02
  53   8    -0.01   0.04   0.04    -0.06   0.13   0.06    -0.05  -0.12   0.08
  54   1    -0.00   0.01   0.01    -0.02   0.03   0.02    -0.01  -0.03   0.02
  55   1     0.00   0.00   0.00    -0.01   0.03  -0.00    -0.02  -0.03   0.02
  56   8     0.06   0.00   0.02    -0.00   0.03  -0.13    -0.09  -0.08   0.02
  57   1     0.00  -0.01   0.01    -0.01  -0.00  -0.03    -0.03  -0.03   0.01
  58   1     0.02   0.00  -0.00    -0.00   0.01  -0.04    -0.01  -0.01  -0.02
  59   8    -0.06   0.06  -0.06    -0.07  -0.15  -0.06     0.10  -0.03   0.09
  60   1    -0.01   0.03  -0.02    -0.02  -0.03  -0.02     0.02  -0.01   0.02
  61   1    -0.00   0.01  -0.02    -0.01  -0.04  -0.02     0.02  -0.01   0.02
  62   8    -0.01   0.10  -0.21    -0.05  -0.12  -0.13    -0.11  -0.14  -0.07
  63   1    -0.04   0.02  -0.05    -0.02  -0.03  -0.03    -0.04  -0.04  -0.01
  64   1    -0.00   0.01  -0.03    -0.02  -0.03  -0.03    -0.02  -0.04  -0.02
  65   8     0.09  -0.06  -0.01     0.07  -0.13   0.12    -0.23   0.02  -0.11
  66   1     0.03  -0.02  -0.00     0.02  -0.04   0.03    -0.08   0.01  -0.02
  67   1     0.02  -0.01  -0.01     0.01  -0.02   0.04    -0.05  -0.01  -0.02
  68   8    -0.11   0.20  -0.12    -0.04  -0.06  -0.08    -0.08  -0.02   0.03
  69   1    -0.05   0.06  -0.03    -0.01  -0.01  -0.01    -0.03   0.00   0.01
  70   1    -0.02   0.03  -0.03    -0.01  -0.01  -0.03    -0.02  -0.02   0.00
  71   8    -0.09  -0.10  -0.01    -0.02  -0.00   0.01     0.06  -0.09   0.03
  72   1    -0.03  -0.02  -0.00    -0.01   0.00   0.01     0.02  -0.02  -0.00
  73   1    -0.01  -0.02  -0.00     0.00  -0.01   0.01     0.00  -0.01  -0.01
  74   8    -0.08  -0.14  -0.04    -0.05   0.11   0.12     0.10  -0.15   0.02
  75   1    -0.03  -0.04  -0.02     0.01   0.03   0.04     0.03  -0.03   0.00
  76   1    -0.02  -0.03  -0.00    -0.01   0.02   0.01     0.03  -0.05   0.00
  77   8     0.06  -0.03  -0.13     0.03  -0.03   0.18    -0.15  -0.11   0.01
  78   1     0.02  -0.00  -0.04     0.01  -0.01   0.04    -0.05  -0.03   0.02
  79   1     0.00  -0.02  -0.02     0.00   0.00   0.04    -0.02  -0.03   0.00
  80   8    -0.04  -0.04   0.07    -0.15  -0.07  -0.06    -0.08  -0.18  -0.04
  81   1    -0.01  -0.01   0.02    -0.04  -0.01  -0.01     0.00  -0.05  -0.01
  82   1    -0.00  -0.01   0.02    -0.03  -0.02  -0.00    -0.01  -0.03  -0.02
  83   8    -0.13  -0.21  -0.08     0.09   0.48   0.17     0.16   0.15  -0.02
  84   1    -0.01  -0.04  -0.01     0.00   0.10   0.03     0.03   0.02  -0.02
  85   1    -0.03  -0.03  -0.01     0.01   0.09   0.02     0.04   0.03  -0.00
  86   8    -0.08   0.00  -0.09    -0.02   0.01  -0.12    -0.03  -0.10  -0.02
  87   1    -0.02  -0.00  -0.02    -0.00   0.00  -0.03    -0.01  -0.02  -0.01
  88   1    -0.01  -0.00  -0.01    -0.01   0.00  -0.04    -0.01  -0.03   0.01
  89   8    -0.05   0.06   0.05    -0.03   0.04   0.04     0.02   0.03   0.13
  90   1    -0.01   0.01   0.02     0.00  -0.00   0.01    -0.01   0.03   0.02
  91   1    -0.01   0.02   0.02    -0.01   0.02   0.02    -0.00  -0.01   0.02
                      7                      8                      9
                        a                      a                      a 
 Frequencies --    48.1279                50.5145                52.7386
 Red. masses --    13.8727                14.1767                13.9033
 Frc consts  --     0.0000                 0.0000                 0.0000
 IR Inten    --     0.4844                 0.5432                 0.7692
 Raman Activ --     0.0000                 0.0000                 0.0000
 Depolar     --     0.0000                 0.0000                 0.0000
 Atom AN      X      Y      Z        X      Y      Z        X      Y      Z
   1   1     0.04   0.01   0.01    -0.01   0.02   0.00     0.00  -0.04  -0.04
   2   6     0.10   0.06   0.07     0.03   0.04  -0.05    -0.03  -0.04  -0.07
   3   1     0.03   0.01   0.03    -0.00   0.01  -0.04     0.00  -0.01   0.01
   4   1     0.02   0.02   0.02     0.03   0.01  -0.01    -0.03   0.01  -0.04
   5   6     0.07   0.09   0.08     0.07   0.03  -0.02    -0.02  -0.01  -0.01
   6   1     0.01   0.03   0.03     0.03   0.01  -0.02    -0.01   0.02   0.02
   7   6     0.06   0.11   0.05     0.10   0.02   0.04    -0.06  -0.01  -0.10
   8   1     0.03   0.04   0.01     0.02   0.02   0.02    -0.01  -0.03  -0.05
   9   1     0.02   0.03   0.02     0.04  -0.00   0.02    -0.04   0.02  -0.05
  10   6     0.08   0.06   0.10     0.03   0.04  -0.02     0.06  -0.10   0.06
  11   1     0.02   0.02   0.04     0.03   0.00   0.00     0.01  -0.02   0.03
  12   1     0.02   0.02   0.03    -0.00   0.02  -0.03     0.03  -0.04   0.04
  13   1     0.02   0.01   0.03    -0.01   0.01   0.01     0.03  -0.05  -0.00
  14   7     0.02   0.13   0.01     0.11  -0.00   0.01    -0.05   0.02  -0.03
  15   1    -0.00   0.03   0.01     0.03  -0.01  -0.00    -0.01   0.02  -0.00
  16   1     0.00   0.04  -0.00     0.03  -0.01   0.01    -0.02   0.01  -0.01
  17   8    -0.17  -0.07   0.06    -0.02   0.04   0.11     0.19   0.13  -0.11
  18   1    -0.05  -0.01   0.01     0.03   0.02   0.02     0.03   0.01  -0.02
  19   1    -0.06  -0.03   0.01    -0.02   0.01   0.03     0.06   0.04  -0.02
  20   8     0.05  -0.05   0.08     0.02   0.05  -0.05     0.08   0.12   0.01
  21   1     0.00  -0.01   0.02     0.00   0.00   0.00     0.03   0.04  -0.01
  22   1     0.01  -0.01   0.03     0.00   0.01  -0.01     0.02   0.02   0.01
  23   8     0.01   0.17  -0.15     0.04  -0.03  -0.13    -0.10   0.12   0.06
  24   1     0.01   0.03  -0.04     0.01  -0.00  -0.03    -0.02   0.02   0.01
  25   1    -0.00   0.04  -0.02     0.01  -0.00  -0.03    -0.01   0.03   0.03
  26   8     0.10   0.17   0.10     0.01   0.05  -0.04    -0.16  -0.23  -0.09
  27   1     0.04   0.06   0.00     0.00   0.00   0.00    -0.05  -0.08   0.00
  28   1     0.02   0.03   0.03    -0.00   0.00  -0.00    -0.03  -0.04  -0.03
  29   8     0.08   0.08  -0.21     0.05   0.04  -0.10     0.04  -0.06  -0.01
  30   1     0.03   0.02  -0.03     0.02   0.01  -0.02     0.01  -0.02   0.00
  31   1     0.01   0.02  -0.06     0.01   0.01  -0.02     0.01  -0.01  -0.01
  32   8     0.06   0.12  -0.02     0.07  -0.08  -0.08    -0.05   0.03   0.15
  33   1     0.01   0.03  -0.02     0.01  -0.02  -0.03    -0.02   0.01   0.03
  34   1     0.03   0.06  -0.01     0.03  -0.02  -0.02    -0.00   0.01   0.04
  35   8     0.10  -0.05   0.11     0.07  -0.17   0.04     0.06  -0.02   0.08
  36   1     0.01  -0.02   0.02     0.01  -0.04   0.01    -0.00  -0.01   0.01
  37   1     0.03  -0.03   0.03     0.02  -0.05   0.01     0.02  -0.02   0.03
  38   8     0.03  -0.14   0.06    -0.03  -0.11   0.13     0.07  -0.11   0.06
  39   1     0.00  -0.01   0.00    -0.01  -0.02   0.03     0.01  -0.01   0.01
  40   1     0.02  -0.03   0.02     0.01  -0.03   0.03     0.02  -0.02   0.02
  41   8    -0.06  -0.15  -0.05    -0.03  -0.19  -0.01    -0.16  -0.10  -0.06
  42   1    -0.01  -0.04  -0.02    -0.02  -0.03  -0.01    -0.04   0.00  -0.05
  43   1    -0.01  -0.03   0.00    -0.01  -0.06  -0.02    -0.04  -0.04   0.00
  44   8    -0.07  -0.15  -0.07    -0.31   0.08   0.00    -0.15   0.24  -0.32
  45   1    -0.01  -0.03  -0.02    -0.07   0.03   0.01    -0.00   0.06  -0.09
  46   1    -0.03  -0.04  -0.02    -0.07   0.03  -0.01    -0.02   0.06  -0.06
  47   8     0.05   0.05   0.05    -0.08  -0.04   0.13    -0.06  -0.05  -0.14
  48   1     0.02   0.01   0.02    -0.05  -0.00   0.01    -0.01  -0.00  -0.03
  49   1    -0.01   0.01  -0.00    -0.00  -0.01   0.04    -0.01  -0.02  -0.04
  50   8    -0.20  -0.00   0.04     0.24   0.12   0.01    -0.00  -0.02  -0.00
  51   1    -0.05  -0.00  -0.01     0.06   0.04   0.02    -0.00  -0.00   0.01
  52   1    -0.03   0.01   0.02     0.06   0.03   0.00    -0.01  -0.02  -0.01
  53   8    -0.03   0.06   0.08     0.08  -0.01  -0.11     0.05   0.20   0.20
  54   1    -0.01   0.03   0.03     0.02  -0.01  -0.02     0.01   0.06   0.06
  55   1     0.00   0.01   0.02     0.01   0.00  -0.03     0.02   0.04   0.04
  56   8     0.09   0.02   0.14    -0.03  -0.06  -0.08     0.04  -0.01   0.13
  57   1     0.03   0.01   0.03    -0.01  -0.02  -0.02     0.01  -0.00   0.03
  58   1     0.02   0.01   0.03    -0.01  -0.02  -0.02    -0.00  -0.00   0.04
  59   8    -0.19  -0.07  -0.22     0.25   0.25   0.20    -0.02   0.01   0.07
  60   1    -0.05  -0.02  -0.05     0.03   0.05   0.04     0.01   0.02   0.02
  61   1    -0.03  -0.00  -0.04     0.06   0.06   0.05    -0.01  -0.01   0.01
  62   8     0.06   0.04   0.04    -0.32   0.05  -0.05     0.05   0.10  -0.10
  63   1     0.01  -0.00  -0.00    -0.09   0.01  -0.02     0.01   0.02  -0.03
  64   1     0.02  -0.00   0.02    -0.06  -0.00  -0.01     0.02   0.02  -0.02
  65   8    -0.11  -0.16  -0.08     0.04  -0.08   0.03    -0.11  -0.05  -0.04
  66   1    -0.02  -0.05  -0.03     0.01  -0.02   0.01    -0.03  -0.01  -0.01
  67   1    -0.03  -0.03  -0.01     0.01  -0.02   0.01    -0.03  -0.01  -0.01
  68   8    -0.11  -0.15  -0.14    -0.25   0.14   0.02     0.06   0.21   0.02
  69   1    -0.01  -0.04  -0.04    -0.06   0.03  -0.00     0.00   0.06   0.01
  70   1    -0.03  -0.02  -0.03    -0.06   0.03   0.00     0.02   0.04  -0.00
  71   8    -0.00  -0.12  -0.09    -0.01  -0.03   0.00     0.02  -0.14   0.05
  72   1     0.01  -0.02  -0.04    -0.00  -0.00  -0.00     0.01  -0.03   0.00
  73   1    -0.01  -0.03  -0.02    -0.00  -0.01   0.00    -0.00  -0.03   0.00
  74   8     0.06  -0.12   0.07    -0.01  -0.02   0.06     0.04  -0.13   0.07
  75   1     0.01  -0.03   0.02    -0.00  -0.01   0.02     0.01  -0.03   0.02
  76   1     0.01  -0.03   0.01    -0.00  -0.00   0.01     0.01  -0.04   0.01
  77   8    -0.15   0.01  -0.00     0.05  -0.08   0.09    -0.11  -0.02  -0.01
  78   1    -0.05   0.01   0.02     0.01  -0.03   0.02    -0.04  -0.00   0.01
  79   1    -0.02  -0.01   0.01     0.01  -0.01   0.02    -0.02  -0.02   0.01
  80   8     0.11  -0.06   0.12    -0.07  -0.11  -0.05     0.09  -0.05   0.10
  81   1     0.03  -0.02   0.03    -0.01  -0.02  -0.00     0.03  -0.01   0.02
  82   1     0.02  -0.01   0.03    -0.01  -0.03  -0.00     0.02  -0.01   0.02
  83   8     0.03   0.09  -0.12    -0.01   0.00   0.02     0.04   0.05   0.05
  84   1     0.01   0.02  -0.03     0.00  -0.00  -0.00     0.00   0.02   0.02
  85   1     0.00   0.01  -0.04    -0.01   0.00  -0.01     0.00  -0.01   0.01
  86   8    -0.18   0.02  -0.07    -0.15   0.00  -0.08     0.16   0.01  -0.06
  87   1    -0.04  -0.00  -0.01    -0.04  -0.01  -0.01     0.04   0.01  -0.02
  88   1    -0.03   0.00  -0.01    -0.03  -0.00  -0.02     0.04  -0.00   0.01
  89   8     0.12   0.05   0.02     0.10   0.07  -0.05     0.03  -0.08   0.03
  90   1     0.02   0.02   0.00     0.03   0.01  -0.01     0.00  -0.02   0.01
  91   1     0.02   0.01   0.01     0.03   0.02  -0.01     0.01  -0.01   0.01
                     10                     11                     12
                        a                      a                      a 
 Frequencies --    55.2455                57.8741                59.4198
 Red. masses --    13.8136                14.0243                14.0474
 Frc consts  --     0.0000                 0.0000                 0.0000
 IR Inten    --     0.2314                 0.0654                 1.9173
 Raman Activ --     0.0000                 0.0000                 0.0000
 Depolar     --     0.0000                 0.0000                 0.0000
 Atom AN      X      Y      Z        X      Y      Z        X      Y      Z
   1   1     0.05  -0.01   0.01     0.04  -0.00   0.02     0.01   0.01  -0.02
   2   6     0.11  -0.12   0.04     0.13  -0.05   0.03     0.04   0.02  -0.09
   3   1     0.03  -0.05   0.02     0.03  -0.02  -0.00     0.01   0.00  -0.03
   4   1     0.04  -0.05   0.02     0.05  -0.02   0.01     0.01  -0.00  -0.02
   5   6     0.02  -0.11  -0.05     0.10  -0.05   0.01     0.02   0.01  -0.11
   6   1    -0.02  -0.05  -0.01     0.03  -0.03  -0.01     0.00   0.00  -0.03
   7   6    -0.00  -0.07  -0.11     0.13  -0.01   0.05     0.01   0.02  -0.14
   8   1     0.01  -0.03  -0.04     0.04   0.01   0.02     0.00  -0.01  -0.05
   9   1    -0.01  -0.01  -0.04     0.05  -0.01   0.02    -0.00   0.02  -0.05
  10   6     0.03  -0.07  -0.09     0.04  -0.00  -0.03     0.04   0.02  -0.12
  11   1    -0.04  -0.00  -0.05     0.00  -0.00  -0.01    -0.00   0.01  -0.04
  12   1     0.02  -0.05   0.01     0.00  -0.01  -0.02     0.01  -0.00  -0.02
  13   1     0.05   0.01  -0.05     0.01   0.01  -0.00     0.02   0.01  -0.04
  14   7    -0.03  -0.03  -0.09     0.10   0.01   0.03     0.03   0.04  -0.09
  15   1    -0.01  -0.01  -0.02     0.02  -0.01   0.01     0.01   0.02  -0.02
  16   1    -0.01   0.00  -0.03     0.03   0.01   0.01     0.01   0.02  -0.03
  17   8     0.00  -0.15   0.03     0.03  -0.17  -0.12     0.02   0.11   0.02
  18   1     0.01  -0.03   0.00     0.01  -0.04  -0.03     0.02   0.02   0.01
  19   1    -0.01  -0.05   0.01    -0.00  -0.05  -0.03    -0.00   0.03   0.02
  20   8     0.00  -0.15   0.13     0.07  -0.19  -0.03    -0.14   0.04   0.20
  21   1    -0.00  -0.03   0.03     0.02  -0.04  -0.01    -0.02   0.02   0.03
  22   1     0.00  -0.03   0.02     0.02  -0.04  -0.01    -0.04   0.02   0.02
  23   8    -0.27   0.01  -0.07    -0.06  -0.02  -0.01    -0.03   0.14   0.07
  24   1    -0.06  -0.00  -0.02    -0.01  -0.01  -0.00    -0.00   0.02   0.01
  25   1    -0.07  -0.00  -0.01    -0.02  -0.01   0.00    -0.01   0.03   0.03
  26   8    -0.04   0.05  -0.03     0.11   0.09  -0.00    -0.06  -0.19  -0.08
  27   1    -0.04   0.01   0.00     0.03   0.05  -0.04    -0.04  -0.08   0.02
  28   1     0.00   0.03   0.00     0.03   0.01   0.02    -0.01  -0.04  -0.02
  29   8    -0.16  -0.01  -0.07    -0.05  -0.02  -0.02     0.08  -0.10  -0.06
  30   1    -0.04  -0.01  -0.01    -0.01   0.00   0.00     0.02  -0.03   0.00
  31   1    -0.03  -0.01  -0.01    -0.02  -0.00  -0.00     0.03  -0.03  -0.02
  32   8    -0.23   0.04   0.03    -0.07  -0.06  -0.06     0.03  -0.00   0.15
  33   1    -0.06   0.01  -0.00    -0.02  -0.01  -0.01     0.00   0.02   0.04
  34   1    -0.05   0.01   0.01    -0.03  -0.02  -0.01     0.00  -0.01   0.04
  35   8     0.02  -0.08  -0.03    -0.06   0.11  -0.10     0.03  -0.03   0.08
  36   1    -0.00  -0.01   0.00    -0.01   0.03  -0.02     0.01  -0.01   0.02
  37   1     0.01  -0.03  -0.00    -0.01   0.03  -0.03     0.00   0.00   0.02
  38   8     0.10  -0.07  -0.02    -0.20   0.22   0.01    -0.05   0.06   0.12
  39   1     0.01   0.01  -0.00    -0.04   0.04   0.00    -0.00  -0.00   0.02
  40   1     0.03  -0.02  -0.00    -0.04   0.04  -0.01    -0.01   0.01   0.03
  41   8     0.03  -0.01   0.11     0.03   0.10  -0.13     0.11  -0.02   0.10
  42   1     0.01  -0.00   0.03     0.00   0.04  -0.04     0.03  -0.02   0.04
  43   1     0.01  -0.01   0.03     0.00   0.02  -0.03     0.03   0.01   0.01
  44   8     0.02  -0.00   0.13    -0.04   0.22  -0.15     0.11  -0.10   0.15
  45   1    -0.01   0.00   0.04     0.01   0.04  -0.05     0.01  -0.01   0.05
  46   1     0.01   0.01   0.02    -0.01   0.04  -0.01     0.00  -0.03   0.02
  47   8     0.02   0.19   0.10     0.09  -0.01   0.11    -0.03  -0.10   0.07
  48   1    -0.01   0.05   0.02     0.02  -0.00   0.03    -0.01  -0.02   0.01
  49   1     0.00   0.05   0.02     0.00   0.00   0.02     0.01  -0.03   0.02
  50   8     0.07  -0.07  -0.05     0.03  -0.14  -0.14     0.12   0.02   0.03
  51   1     0.02   0.01  -0.01     0.01  -0.03  -0.02     0.03   0.01   0.00
  52   1     0.03  -0.02  -0.01     0.00  -0.03  -0.03     0.03  -0.01   0.00
  53   8    -0.22   0.02   0.07    -0.05  -0.04   0.06    -0.17   0.03   0.25
  54   1    -0.05   0.03   0.02    -0.01   0.00   0.02    -0.05   0.01   0.07
  55   1    -0.03  -0.01   0.03     0.00  -0.02   0.01    -0.05   0.01   0.06
  56   8     0.06  -0.07   0.11     0.09  -0.08  -0.05    -0.05   0.09  -0.07
  57   1     0.02  -0.02   0.02     0.03  -0.01  -0.01    -0.01   0.03  -0.02
  58   1    -0.00  -0.01   0.03     0.02  -0.02  -0.01    -0.01   0.02  -0.01
  59   8     0.10   0.24  -0.00     0.03   0.00   0.09     0.12  -0.02  -0.08
  60   1     0.02   0.05   0.00     0.01   0.01   0.02     0.00  -0.02  -0.03
  61   1     0.03   0.07   0.01     0.01   0.00   0.02     0.03  -0.00  -0.01
  62   8    -0.07   0.11   0.06     0.09   0.08   0.06    -0.02   0.07   0.04
  63   1    -0.02   0.02   0.00     0.02   0.02   0.02    -0.00   0.02   0.01
  64   1     0.00   0.02   0.02     0.03   0.02   0.01     0.00   0.02   0.01
  65   8     0.10   0.02  -0.14    -0.19  -0.22   0.14    -0.10   0.01  -0.06
  66   1     0.03  -0.02  -0.05    -0.04  -0.07   0.03    -0.04  -0.00  -0.02
  67   1     0.02   0.02  -0.02    -0.06  -0.04   0.04    -0.02  -0.01   0.00
  68   8     0.01   0.08   0.02    -0.03   0.08   0.07    -0.10  -0.10  -0.15
  69   1    -0.00   0.01  -0.01    -0.02   0.03   0.02    -0.01  -0.03  -0.04
  70   1     0.00   0.00   0.01     0.00   0.00   0.01    -0.02  -0.01  -0.04
  71   8    -0.01   0.08  -0.20    -0.05   0.03  -0.05     0.04   0.11  -0.12
  72   1    -0.01   0.02  -0.04    -0.01   0.00  -0.01     0.01   0.01  -0.03
  73   1     0.01   0.02  -0.05    -0.03  -0.02   0.00    -0.01   0.02  -0.03
  74   8     0.19  -0.05   0.04    -0.10   0.19   0.10    -0.02   0.19  -0.03
  75   1     0.04  -0.02   0.01    -0.03   0.05   0.02    -0.01   0.04   0.00
  76   1     0.03   0.00  -0.01    -0.03   0.05   0.01    -0.01   0.05  -0.01
  77   8     0.09   0.14  -0.05    -0.26   0.01   0.22    -0.03  -0.08   0.12
  78   1     0.03   0.05  -0.01    -0.08  -0.01   0.07    -0.02  -0.04   0.03
  79   1     0.03   0.02  -0.00    -0.05   0.02   0.05    -0.01   0.00   0.02
  80   8     0.16  -0.06   0.04     0.12   0.07  -0.01     0.03   0.13  -0.06
  81   1     0.04  -0.02   0.01     0.02   0.03   0.00    -0.00   0.04  -0.01
  82   1     0.03  -0.02   0.00     0.02   0.01  -0.00     0.01   0.03  -0.01
  83   8     0.03   0.24   0.03    -0.10  -0.10  -0.11     0.08  -0.25  -0.14
  84   1    -0.02   0.06   0.01    -0.02  -0.03  -0.03     0.02  -0.04  -0.01
  85   1     0.01   0.03   0.01    -0.02  -0.01  -0.03     0.03  -0.06  -0.02
  86   8     0.03  -0.09   0.05     0.08  -0.10  -0.05    -0.11   0.08  -0.20
  87   1     0.00  -0.03   0.01     0.01  -0.03  -0.02    -0.02   0.02  -0.03
  88   1     0.01  -0.03   0.02     0.03  -0.03  -0.01    -0.03   0.02  -0.05
  89   8    -0.16  -0.03  -0.02     0.03   0.02   0.08     0.07  -0.17   0.12
  90   1    -0.03  -0.01  -0.01     0.02   0.00   0.02     0.02  -0.03   0.02
  91   1    -0.05  -0.01  -0.00     0.00   0.00   0.02    -0.01  -0.04   0.03
                     13                     14                     15
                        a                      a                      a 
 Frequencies --    62.2413                63.3092                64.2236
 Red. masses --    14.2760                14.1072                14.1553
 Frc consts  --     0.0000                 0.0000                 0.0000
 IR Inten    --     0.7488                 1.6866                 0.0600
 Raman Activ --     0.0000                 0.0000                 0.0000
 Depolar     --     0.0000                 0.0000                 0.0000
 Atom AN      X      Y      Z        X      Y      Z        X      Y      Z
   1   1    -0.02   0.01   0.02     0.01  -0.02  -0.01    -0.01  -0.00  -0.04
   2   6    -0.02   0.01   0.02     0.05  -0.06  -0.02     0.01   0.05  -0.14
   3   1    -0.02  -0.01  -0.01     0.01  -0.02  -0.01     0.00   0.02  -0.04
   4   1     0.01   0.00   0.01     0.02  -0.01  -0.01    -0.00   0.02  -0.05
   5   6    -0.03   0.03   0.04     0.05  -0.04   0.00     0.06   0.05  -0.10
   6   1    -0.01   0.01   0.01     0.01  -0.01   0.00     0.03   0.02  -0.03
   7   6    -0.02   0.04   0.06     0.05  -0.01   0.00     0.08   0.04  -0.05
   8   1    -0.01   0.02   0.02     0.02  -0.00   0.00     0.01   0.01  -0.01
   9   1    -0.00   0.01   0.02     0.02  -0.00  -0.00     0.03   0.01  -0.02
  10   6    -0.05   0.03   0.05     0.03  -0.05   0.02     0.03   0.02  -0.07
  11   1    -0.02   0.01   0.02     0.02  -0.02   0.01     0.03   0.00  -0.01
  12   1    -0.02   0.00   0.01     0.01  -0.01  -0.00     0.00   0.02  -0.04
  13   1    -0.02   0.01   0.02     0.00  -0.02   0.01    -0.02  -0.01  -0.00
  14   7    -0.03   0.04   0.06     0.03   0.01   0.01     0.13   0.04  -0.01
  15   1    -0.01   0.01   0.01     0.00  -0.00   0.00     0.04   0.01  -0.01
  16   1    -0.01   0.01   0.01     0.01   0.01   0.00     0.04   0.01   0.00
  17   8     0.13   0.01   0.10    -0.00  -0.08   0.26    -0.27  -0.06   0.10
  18   1     0.01  -0.00   0.03     0.00  -0.02   0.06    -0.04   0.01   0.01
  19   1     0.05   0.01   0.01    -0.01  -0.02   0.07    -0.07  -0.02   0.02
  20   8    -0.02   0.06   0.01     0.11   0.02   0.00    -0.10  -0.07  -0.06
  21   1     0.02   0.01   0.01     0.02  -0.01   0.02    -0.04  -0.02  -0.01
  22   1    -0.01  -0.01  -0.01     0.03   0.01  -0.00    -0.02  -0.00  -0.02
  23   8    -0.00   0.13  -0.08     0.07  -0.09   0.14    -0.06  -0.06  -0.03
  24   1     0.00   0.03  -0.02     0.01  -0.02   0.04    -0.01  -0.02  -0.01
  25   1     0.01   0.04  -0.01     0.02  -0.02   0.02    -0.02  -0.02   0.00
  26   8    -0.10  -0.06   0.17    -0.18  -0.12   0.07    -0.08   0.10  -0.11
  27   1    -0.04  -0.03   0.06    -0.08  -0.08   0.08    -0.00   0.03  -0.04
  28   1    -0.01   0.02   0.01    -0.03   0.00  -0.00    -0.03   0.02  -0.04
  29   8     0.06   0.06  -0.13    -0.06  -0.04   0.17     0.03  -0.08  -0.04
  30   1     0.01   0.01  -0.02    -0.01   0.00   0.03     0.02  -0.01   0.00
  31   1     0.02   0.01  -0.04    -0.03  -0.00   0.05     0.00  -0.02  -0.01
  32   8     0.06  -0.26  -0.17    -0.02   0.08  -0.02    -0.05   0.07   0.06
  33   1     0.01  -0.03  -0.04     0.00   0.01   0.01    -0.01   0.01   0.01
  34   1     0.00  -0.08  -0.04    -0.02   0.02  -0.01    -0.00   0.01   0.02
  35   8     0.05  -0.12  -0.05    -0.04  -0.04  -0.14     0.04  -0.12   0.07
  36   1     0.01  -0.02  -0.00     0.00  -0.01  -0.03     0.01  -0.03   0.02
  37   1     0.02  -0.04  -0.03    -0.02   0.01  -0.03     0.01  -0.03   0.02
  38   8    -0.03   0.06   0.09    -0.02   0.05  -0.08    -0.01  -0.05   0.13
  39   1    -0.00   0.01   0.01    -0.01   0.01  -0.01    -0.00  -0.01   0.03
  40   1     0.00   0.00   0.02    -0.01   0.00  -0.03     0.01  -0.02   0.03
  41   8     0.01  -0.06   0.05     0.12  -0.00  -0.09     0.06  -0.12   0.07
  42   1    -0.00  -0.01   0.01     0.04  -0.01  -0.02     0.01  -0.02   0.01
  43   1    -0.00  -0.02   0.01     0.03   0.01  -0.02     0.01  -0.02   0.01
  44   8     0.05   0.01  -0.02     0.14  -0.11  -0.01     0.06   0.07  -0.06
  45   1     0.01  -0.00  -0.01     0.01  -0.03   0.01     0.04   0.02  -0.03
  46   1     0.03   0.01  -0.00     0.04  -0.01  -0.02     0.01   0.01  -0.00
  47   8     0.03   0.23  -0.14    -0.16   0.10  -0.00    -0.07   0.04  -0.23
  48   1     0.00   0.03  -0.04    -0.05   0.03  -0.01     0.01  -0.01  -0.03
  49   1    -0.01   0.06  -0.02    -0.05   0.02  -0.01    -0.03   0.01  -0.05
  50   8    -0.10  -0.03   0.19     0.02  -0.01   0.21     0.08   0.14  -0.08
  51   1    -0.02  -0.00   0.04     0.00   0.02   0.02     0.02   0.02  -0.01
  52   1    -0.02  -0.01   0.04     0.04  -0.01   0.06     0.01   0.04  -0.02
  53   8    -0.02   0.10   0.09     0.14  -0.01  -0.03    -0.07  -0.08   0.08
  54   1    -0.01   0.02   0.03     0.04  -0.01  -0.01    -0.03  -0.02   0.04
  55   1    -0.01   0.02   0.02     0.03  -0.00  -0.01    -0.02  -0.02   0.00
  56   8    -0.13  -0.20  -0.09     0.12   0.08  -0.07     0.01   0.08  -0.07
  57   1    -0.03  -0.06  -0.02     0.03   0.01  -0.02     0.01   0.02  -0.02
  58   1    -0.02  -0.05  -0.04     0.02   0.02  -0.02    -0.01   0.02  -0.01
  59   8    -0.08   0.06   0.02     0.09   0.16  -0.25     0.07  -0.00   0.15
  60   1    -0.01   0.02   0.01     0.03   0.03  -0.06     0.03   0.00   0.04
  61   1    -0.01   0.02   0.01     0.03   0.05  -0.05    -0.01  -0.02   0.03
  62   8    -0.05  -0.11  -0.12    -0.22   0.12  -0.05     0.22  -0.14  -0.00
  63   1    -0.01  -0.02  -0.02    -0.03   0.02  -0.04     0.06  -0.02   0.02
  64   1    -0.02  -0.02  -0.03    -0.03   0.02  -0.01     0.04  -0.02  -0.01
  65   8     0.02  -0.00  -0.05    -0.13  -0.16   0.08    -0.01  -0.09  -0.03
  66   1     0.02  -0.02  -0.02    -0.02  -0.04   0.02     0.01  -0.02  -0.01
  67   1    -0.01   0.02  -0.01    -0.05  -0.02   0.01    -0.01  -0.01  -0.02
  68   8     0.10   0.02   0.07     0.16   0.05  -0.24     0.12  -0.02   0.19
  69   1     0.01   0.01   0.01     0.04   0.01  -0.07     0.03  -0.00   0.04
  70   1     0.03  -0.02   0.02     0.03   0.02  -0.04     0.01   0.01   0.07
  71   8     0.06   0.08  -0.11     0.02  -0.10   0.06    -0.03  -0.09  -0.03
  72   1     0.02   0.02  -0.04    -0.00  -0.03   0.02    -0.01  -0.03  -0.01
  73   1     0.01   0.01  -0.03     0.00  -0.04   0.02    -0.01  -0.03  -0.00
  74   8     0.07   0.13   0.08    -0.05  -0.01  -0.02    -0.16   0.06  -0.10
  75   1     0.02   0.03   0.02    -0.01   0.00  -0.00    -0.03   0.01  -0.01
  76   1     0.01   0.03   0.01    -0.01  -0.01  -0.00    -0.03   0.01  -0.02
  77   8    -0.07   0.29   0.00    -0.26   0.08  -0.06    -0.13   0.09  -0.15
  78   1    -0.02   0.09   0.01    -0.07   0.03  -0.00    -0.03   0.04  -0.04
  79   1    -0.00   0.06   0.01    -0.05   0.01  -0.01    -0.04   0.01  -0.04
  80   8    -0.12  -0.09  -0.12     0.07  -0.06  -0.08     0.02   0.04  -0.07
  81   1    -0.01  -0.01  -0.01     0.01  -0.01  -0.02    -0.02   0.02  -0.02
  82   1    -0.02  -0.03  -0.02     0.01  -0.02  -0.02     0.01   0.00  -0.01
  83   8     0.09  -0.21  -0.20    -0.06   0.05   0.06    -0.00   0.08   0.04
  84   1     0.03  -0.06  -0.06    -0.01   0.01   0.02    -0.00   0.03   0.02
  85   1     0.03  -0.03  -0.04    -0.01   0.01   0.02    -0.01  -0.00   0.00
  86   8     0.10  -0.21   0.15    -0.04   0.12   0.06    -0.05   0.11   0.39
  87   1     0.03  -0.04   0.04    -0.00   0.01   0.04    -0.03   0.01   0.08
  88   1     0.01  -0.05   0.03    -0.00   0.03   0.00    -0.01   0.03   0.06
  89   8     0.03  -0.00   0.04    -0.00   0.06   0.02     0.12  -0.06   0.11
  90   1     0.00   0.00   0.01     0.00   0.01   0.01     0.04  -0.01   0.02
  91   1     0.00   0.00   0.01     0.01   0.01   0.00     0.01  -0.02   0.03
                     16                     17                     18
                        a                      a                      a 
 Frequencies --    67.2646                70.1131                71.9986
 Red. masses --    14.0770                14.4426                14.3702
 Frc consts  --     0.0000                 0.0000                 0.0000
 IR Inten    --     2.7486                 1.5153                 3.7335
 Raman Activ --     0.0000                 0.0000                 0.0000
 Depolar     --     0.0000                 0.0000                 0.0000
 Atom AN      X      Y      Z        X      Y      Z        X      Y      Z
   1   1     0.00  -0.00  -0.04    -0.01  -0.03  -0.02     0.00   0.01   0.01
   2   6     0.03   0.06  -0.10    -0.05  -0.04  -0.03     0.03   0.04   0.02
   3   1     0.01   0.03  -0.02    -0.01  -0.01   0.00     0.00   0.01   0.00
   4   1    -0.01   0.03  -0.04    -0.03  -0.00  -0.02     0.01   0.01   0.00
   5   6     0.09   0.06  -0.04    -0.04  -0.04  -0.00     0.02   0.05   0.04
   6   1     0.04   0.03  -0.01    -0.01  -0.00   0.00     0.01   0.01   0.01
   7   6     0.09   0.04  -0.02    -0.05  -0.04  -0.02     0.04   0.07   0.06
   8   1     0.02   0.02  -0.00    -0.02  -0.02  -0.01     0.01   0.03   0.02
   9   1     0.03   0.01  -0.00    -0.02  -0.00  -0.02     0.02   0.02   0.02
  10   6     0.08   0.01   0.01    -0.02  -0.05   0.01    -0.02   0.05   0.05
  11   1     0.03   0.01   0.02    -0.02  -0.01   0.00    -0.01   0.02   0.02
  12   1     0.02  -0.01   0.00    -0.00  -0.02   0.01    -0.01   0.01   0.01
  13   1     0.02  -0.01  -0.00     0.01  -0.01  -0.01    -0.01   0.02   0.02
  14   7     0.11   0.04  -0.04    -0.03  -0.03   0.03     0.04   0.08   0.07
  15   1     0.03   0.00  -0.02    -0.00   0.00   0.01     0.01   0.02   0.02
  16   1     0.03   0.01  -0.00    -0.01  -0.01   0.01     0.01   0.02   0.02
  17   8    -0.04   0.11  -0.00    -0.26  -0.20   0.13     0.13   0.03  -0.02
  18   1    -0.01   0.02   0.00    -0.03  -0.03   0.02     0.01   0.01  -0.00
  19   1     0.00   0.03  -0.00    -0.08  -0.06   0.03     0.05   0.01  -0.02
  20   8    -0.10   0.13  -0.06     0.03  -0.06  -0.25    -0.10  -0.11   0.31
  21   1    -0.03   0.03  -0.01    -0.01  -0.03  -0.04    -0.01  -0.01   0.05
  22   1    -0.03   0.03  -0.00     0.01  -0.02  -0.04    -0.03  -0.02   0.05
  23   8    -0.13  -0.26  -0.10     0.07   0.26   0.02     0.05  -0.10  -0.21
  24   1    -0.03  -0.05  -0.02     0.01   0.06   0.00     0.01  -0.02  -0.05
  25   1    -0.02  -0.05  -0.03     0.01   0.06   0.01     0.00  -0.03  -0.05
  26   8    -0.04  -0.13  -0.11    -0.11  -0.04  -0.15    -0.12  -0.06  -0.00
  27   1    -0.02  -0.06  -0.00    -0.04  -0.04  -0.01    -0.04  -0.04   0.02
  28   1    -0.00  -0.02  -0.03    -0.03  -0.02  -0.03    -0.03  -0.02   0.01
  29   8    -0.04   0.01   0.01    -0.03   0.11  -0.05    -0.03   0.04  -0.17
  30   1     0.00   0.02  -0.01    -0.02   0.02  -0.01     0.00   0.01  -0.02
  31   1    -0.02   0.01   0.03     0.00   0.02  -0.03    -0.01   0.01  -0.05
  32   8    -0.15   0.00   0.04     0.13  -0.05  -0.00     0.09  -0.05  -0.09
  33   1    -0.04  -0.03  -0.00     0.03   0.02   0.00     0.02  -0.02  -0.04
  34   1    -0.02   0.02   0.00     0.02  -0.01  -0.00     0.04  -0.01  -0.02
  35   8    -0.22   0.04   0.09     0.11   0.13  -0.00     0.09   0.00   0.05
  36   1    -0.05   0.01   0.03     0.01   0.04  -0.00     0.01   0.00   0.01
  37   1    -0.06   0.01   0.02     0.03   0.02  -0.00     0.03  -0.01   0.01
  38   8    -0.06   0.04   0.04    -0.03   0.04  -0.03    -0.04  -0.04   0.08
  39   1    -0.02   0.01   0.02    -0.00   0.01  -0.02    -0.01  -0.00   0.01
  40   1    -0.03   0.01   0.01     0.00   0.01  -0.00    -0.00  -0.01   0.02
  41   8    -0.17   0.09   0.18    -0.07   0.10  -0.08    -0.08   0.00   0.03
  42   1    -0.03   0.01   0.04    -0.01   0.03  -0.04    -0.01   0.01  -0.01
  43   1    -0.04   0.03   0.06    -0.01   0.02   0.00    -0.02  -0.00   0.02
  44   8     0.12  -0.00   0.03     0.10   0.05  -0.19     0.13   0.10  -0.21
  45   1     0.03   0.00   0.01     0.03  -0.01  -0.06     0.04   0.01  -0.07
  46   1     0.03   0.01   0.00     0.02  -0.00  -0.02     0.04   0.02  -0.03
  47   8     0.01  -0.02  -0.06    -0.14  -0.09   0.03    -0.15  -0.11   0.11
  48   1     0.01  -0.01  -0.01    -0.04  -0.02   0.00    -0.04  -0.00   0.02
  49   1     0.02  -0.00   0.00    -0.00  -0.02   0.03    -0.01  -0.03   0.02
  50   8    -0.03   0.08   0.01     0.13   0.05  -0.08    -0.05   0.04   0.03
  51   1    -0.01   0.01  -0.01     0.03   0.00  -0.04    -0.01   0.01  -0.00
  52   1    -0.00   0.01  -0.00     0.04   0.02  -0.01    -0.00   0.00   0.00
  53   8     0.11  -0.09  -0.21    -0.05   0.17   0.07    -0.10  -0.25  -0.04
  54   1     0.02  -0.03  -0.05    -0.02   0.04   0.02    -0.02  -0.05  -0.01
  55   1     0.01  -0.01  -0.04    -0.00   0.03  -0.01    -0.03  -0.05   0.03
  56   8    -0.15  -0.01   0.16     0.04  -0.06   0.07    -0.08  -0.06   0.06
  57   1    -0.04  -0.01   0.04     0.00  -0.02   0.02    -0.01  -0.02   0.01
  58   1    -0.04  -0.00   0.04     0.02  -0.02   0.01    -0.01  -0.01   0.00
  59   8    -0.02  -0.02  -0.11     0.14  -0.02  -0.10    -0.03  -0.02  -0.15
  60   1     0.00  -0.00  -0.03     0.04  -0.01  -0.02     0.01   0.00  -0.03
  61   1    -0.00  -0.00  -0.03     0.02  -0.00  -0.02    -0.01   0.00  -0.03
  62   8     0.07   0.02  -0.03    -0.06   0.00   0.06    -0.11   0.14   0.07
  63   1     0.02   0.00  -0.01     0.01  -0.01  -0.00     0.01   0.03  -0.00
  64   1     0.01   0.00   0.00    -0.00  -0.01   0.01    -0.01   0.03   0.00
  65   8     0.05  -0.20  -0.06     0.06   0.12   0.07     0.08   0.04   0.03
  66   1     0.01  -0.07  -0.02     0.00   0.02   0.01     0.02  -0.00   0.00
  67   1     0.01  -0.03   0.01     0.03   0.01   0.03     0.03  -0.01   0.01
  68   8     0.08   0.01  -0.08     0.09  -0.08  -0.10     0.22   0.07  -0.11
  69   1     0.01   0.00  -0.03     0.01  -0.02  -0.04     0.04   0.02  -0.03
  70   1     0.01  -0.00  -0.01     0.00  -0.02   0.01     0.05   0.00  -0.01
  71   8     0.10  -0.06  -0.14    -0.06   0.08   0.05    -0.16   0.05  -0.02
  72   1     0.02  -0.01  -0.03    -0.01   0.03   0.01    -0.04   0.01  -0.00
  73   1     0.03  -0.03  -0.02    -0.01   0.03   0.01    -0.03   0.02  -0.00
  74   8     0.20   0.01   0.25     0.07  -0.05   0.13    -0.19   0.05  -0.13
  75   1     0.04   0.01   0.04     0.01  -0.01   0.02    -0.04   0.00  -0.02
  76   1     0.04   0.01   0.03     0.01  -0.00   0.03    -0.05   0.01  -0.03
  77   8     0.05   0.02   0.25     0.19  -0.09   0.18     0.16  -0.18  -0.01
  78   1     0.00   0.01   0.08     0.05  -0.02   0.04     0.05  -0.06  -0.03
  79   1     0.03   0.00   0.07     0.04  -0.02   0.04     0.01  -0.03  -0.02
  80   8    -0.05  -0.01   0.16     0.01  -0.05   0.10     0.04   0.09  -0.04
  81   1     0.01   0.00   0.05     0.01  -0.01   0.03    -0.01   0.02  -0.02
  82   1    -0.03  -0.00   0.03     0.01  -0.00   0.02     0.02   0.02  -0.00
  83   8    -0.02  -0.09  -0.05     0.03  -0.11  -0.12    -0.05   0.12   0.08
  84   1    -0.02  -0.02  -0.01     0.02  -0.03  -0.03    -0.00   0.02   0.01
  85   1     0.00  -0.03  -0.00     0.02  -0.01  -0.02    -0.03   0.03   0.00
  86   8    -0.02  -0.01   0.08    -0.14  -0.05   0.25     0.14  -0.11   0.07
  87   1    -0.00   0.01   0.02    -0.04  -0.02   0.06     0.04  -0.01   0.02
  88   1    -0.02  -0.00   0.03    -0.03  -0.01   0.05     0.02  -0.03   0.03
  89   8     0.07   0.14  -0.10    -0.10   0.05  -0.00     0.04   0.02   0.09
  90   1     0.02   0.03  -0.02    -0.02   0.00   0.00     0.01   0.01   0.02
  91   1     0.03   0.03  -0.03    -0.02   0.02   0.01    -0.00  -0.00   0.02
                     19                     20                     21
                        a                      a                      a 
 Frequencies --    72.5677                74.3529                77.7036
 Red. masses --    14.1590                14.2887                14.4352
 Frc consts  --     0.0000                 0.0000                 0.0000
 IR Inten    --     0.7814                 0.9188                 0.7836
 Raman Activ --     0.0000                 0.0000                 0.0000
 Depolar     --     0.0000                 0.0000                 0.0000
 Atom AN      X      Y      Z        X      Y      Z        X      Y      Z
   1   1    -0.02   0.01   0.01    -0.01  -0.01  -0.02     0.00   0.01  -0.00
   2   6    -0.05   0.04   0.04    -0.01   0.00  -0.07     0.02   0.03  -0.01
   3   1    -0.02   0.01   0.01    -0.00  -0.00  -0.02     0.01   0.02  -0.00
   4   1    -0.01   0.01   0.01    -0.00   0.01  -0.03    -0.00   0.01   0.00
   5   6    -0.06   0.03   0.02    -0.00   0.03  -0.00     0.05   0.00  -0.03
   6   1    -0.02   0.01   0.01     0.00   0.02   0.00     0.02   0.00  -0.01
   7   6    -0.08   0.02  -0.01     0.01   0.06  -0.00     0.04  -0.03  -0.03
   8   1    -0.02   0.00  -0.01     0.00   0.01  -0.00     0.01  -0.01  -0.01
   9   1    -0.03   0.01  -0.00     0.01   0.02  -0.01     0.00  -0.01  -0.01
  10   6    -0.03   0.04   0.00    -0.02  -0.02   0.05     0.08   0.00  -0.04
  11   1    -0.01   0.01  -0.01     0.01  -0.00   0.03     0.02  -0.00  -0.01
  12   1    -0.00   0.02   0.01    -0.01  -0.00   0.00     0.02   0.00  -0.01
  13   1     0.00   0.01  -0.00    -0.02  -0.02   0.02     0.02  -0.00  -0.01
  14   7    -0.09   0.02  -0.02     0.00   0.08   0.03     0.06  -0.05  -0.05
  15   1    -0.03   0.01  -0.00     0.00   0.03   0.01     0.01  -0.01  -0.01
  16   1    -0.03   0.01  -0.01     0.00   0.03   0.01     0.01  -0.02  -0.02
  17   8    -0.07  -0.05  -0.00    -0.05  -0.10  -0.03     0.03   0.00   0.13
  18   1    -0.03  -0.01   0.00    -0.01  -0.03  -0.01     0.00   0.01   0.03
  19   1    -0.01  -0.01  -0.01    -0.01  -0.02  -0.01     0.01   0.00   0.03
  20   8     0.04  -0.00  -0.14    -0.03  -0.04  -0.19     0.03   0.14  -0.18
  21   1     0.00  -0.00  -0.03    -0.01  -0.01  -0.04     0.02   0.02  -0.02
  22   1     0.01   0.00  -0.04    -0.01  -0.02  -0.04    -0.00   0.01  -0.03
  23   8    -0.11  -0.03   0.06    -0.01   0.05  -0.07    -0.24   0.02  -0.10
  24   1    -0.02  -0.01   0.01     0.00   0.01  -0.02    -0.05   0.00  -0.03
  25   1    -0.02  -0.00   0.02     0.00   0.01  -0.01    -0.03   0.02  -0.01
  26   8     0.23   0.19   0.05     0.19  -0.26  -0.13     0.04   0.15   0.10
  27   1     0.11   0.08  -0.04     0.02  -0.10   0.01     0.03   0.04   0.02
  28   1     0.03  -0.00   0.02     0.06  -0.04  -0.03    -0.00   0.02   0.02
  29   8     0.08  -0.05   0.06     0.05  -0.01  -0.11     0.12  -0.04  -0.10
  30   1     0.02  -0.02   0.01     0.02  -0.00  -0.01     0.03  -0.01  -0.02
  31   1     0.03  -0.02   0.03     0.01  -0.00  -0.04     0.03  -0.01  -0.02
  32   8    -0.11  -0.01   0.04     0.02  -0.07  -0.04    -0.09  -0.29   0.13
  33   1    -0.03  -0.00   0.01     0.00  -0.01  -0.02    -0.03  -0.05   0.01
  34   1    -0.03  -0.01   0.01     0.01  -0.02  -0.01    -0.00  -0.11   0.04
  35   8    -0.03  -0.17  -0.01    -0.04   0.14   0.09    -0.06   0.04  -0.04
  36   1     0.00  -0.05  -0.00    -0.01   0.03   0.01    -0.02   0.01  -0.01
  37   1    -0.01  -0.03   0.00    -0.01   0.02   0.02    -0.02   0.02   0.00
  38   8     0.02  -0.08   0.02     0.04   0.12   0.03     0.10   0.04  -0.07
  39   1     0.00  -0.01   0.01     0.02   0.02  -0.00     0.02  -0.00   0.01
  40   1     0.00  -0.03   0.00     0.01   0.04   0.01    -0.00   0.01  -0.03
  41   8     0.07  -0.16   0.02    -0.08   0.06  -0.02    -0.01   0.12   0.09
  42   1     0.01  -0.03   0.01    -0.02  -0.01   0.02    -0.00   0.03   0.03
  43   1     0.01  -0.04  -0.01    -0.02   0.01  -0.01    -0.00   0.02   0.02
  44   8    -0.03  -0.02   0.03    -0.17  -0.27   0.30     0.14   0.10   0.01
  45   1    -0.03   0.00   0.02    -0.09  -0.05   0.10     0.05   0.02  -0.00
  46   1     0.03   0.03  -0.01     0.00  -0.02   0.03     0.01   0.00   0.01
  47   8    -0.03  -0.23   0.09     0.23   0.01   0.05    -0.08  -0.05   0.06
  48   1    -0.03  -0.04   0.00     0.04   0.02  -0.00    -0.01   0.00   0.02
  49   1     0.01  -0.06   0.02     0.06  -0.00  -0.01    -0.03  -0.02  -0.00
  50   8    -0.15   0.00   0.01    -0.03  -0.13  -0.02    -0.01   0.10   0.11
  51   1    -0.04  -0.00  -0.01    -0.01   0.00  -0.01    -0.00   0.02   0.02
  52   1    -0.03   0.01   0.01     0.02  -0.04  -0.01     0.00   0.03   0.03
  53   8     0.02   0.06   0.04     0.03   0.03   0.09     0.08   0.21   0.04
  54   1     0.00   0.01   0.02    -0.01   0.00   0.04     0.00   0.06   0.03
  55   1     0.01   0.01  -0.01     0.00   0.00  -0.01     0.02   0.05  -0.01
  56   8     0.03   0.02  -0.10    -0.05  -0.06  -0.00    -0.09  -0.22   0.02
  57   1     0.01   0.00  -0.02    -0.02  -0.01   0.00    -0.01  -0.04  -0.00
  58   1    -0.01   0.00  -0.01    -0.00  -0.02  -0.00    -0.02  -0.06   0.01
  59   8    -0.13  -0.04  -0.07     0.02   0.21  -0.07    -0.01  -0.03  -0.06
  60   1     0.01   0.03  -0.01     0.02   0.06  -0.02    -0.02  -0.02  -0.02
  61   1    -0.02  -0.02  -0.03     0.03   0.06  -0.02    -0.01  -0.00  -0.01
  62   8    -0.18   0.10  -0.08     0.03   0.14  -0.07     0.04   0.08   0.11
  63   1    -0.02   0.03  -0.02    -0.00   0.04  -0.01     0.01   0.02   0.02
  64   1    -0.03   0.03  -0.04    -0.02   0.04  -0.00     0.02   0.02   0.02
  65   8    -0.12   0.01  -0.06    -0.02   0.04  -0.06    -0.06   0.02   0.05
  66   1    -0.06   0.00  -0.01    -0.01   0.03  -0.01    -0.01   0.02   0.02
  67   1    -0.01  -0.02   0.01    -0.00   0.01  -0.02    -0.01  -0.01  -0.00
  68   8     0.23   0.28  -0.03     0.11   0.21  -0.03    -0.11  -0.11  -0.06
  69   1     0.04   0.07  -0.02     0.02   0.04  -0.04    -0.04  -0.02  -0.02
  70   1     0.05   0.06   0.01     0.02   0.03   0.01    -0.03  -0.05  -0.01
  71   8     0.18   0.15  -0.11    -0.12  -0.18   0.10    -0.00  -0.01   0.08
  72   1     0.04   0.02  -0.02    -0.02  -0.03   0.01     0.00  -0.00   0.02
  73   1     0.03   0.03  -0.02    -0.03  -0.03   0.01    -0.00   0.00   0.02
  74   8     0.17   0.12  -0.07    -0.23  -0.05  -0.03    -0.08   0.00  -0.17
  75   1     0.04   0.02  -0.01    -0.04   0.00  -0.01    -0.01   0.00  -0.03
  76   1     0.03   0.04  -0.03    -0.04  -0.03   0.00    -0.01  -0.01  -0.03
  77   8     0.03  -0.25   0.16     0.01  -0.01  -0.09    -0.08  -0.09  -0.13
  78   1    -0.01  -0.09   0.05    -0.00  -0.03  -0.03    -0.02  -0.03  -0.04
  79   1     0.02  -0.03   0.02    -0.02  -0.01  -0.02    -0.02  -0.02  -0.04
  80   8    -0.01   0.03  -0.14    -0.06   0.09   0.10     0.10   0.11  -0.03
  81   1     0.01   0.02  -0.02    -0.03   0.02   0.01     0.01   0.02  -0.02
  82   1    -0.00  -0.00  -0.03    -0.01   0.03   0.02     0.03   0.03  -0.01
  83   8     0.01  -0.02  -0.02     0.06   0.04   0.01    -0.01   0.02   0.31
  84   1    -0.00   0.00   0.00     0.01  -0.00  -0.01     0.00  -0.01   0.06
  85   1     0.00  -0.01  -0.01     0.01   0.01  -0.01    -0.03  -0.00   0.05
  86   8     0.10   0.07   0.23     0.06  -0.05   0.13    -0.11  -0.23  -0.02
  87   1     0.02   0.00   0.05     0.01  -0.01   0.02    -0.01  -0.04   0.01
  88   1     0.03   0.02   0.04     0.02  -0.01   0.03    -0.04  -0.06   0.01
  89   8     0.03  -0.08  -0.01     0.09  -0.03   0.08     0.14  -0.02  -0.12
  90   1    -0.00  -0.01   0.00     0.02  -0.00   0.02     0.03  -0.01  -0.02
  91   1     0.00  -0.02   0.00     0.02  -0.00   0.02     0.03   0.01  -0.02
                     22                     23                     24
                        a                      a                      a 
 Frequencies --    80.2229                84.4166                88.8141
 Red. masses --    13.4209                14.4771                14.0992
 Frc consts  --     0.0000                 0.0000                 0.0000
 IR Inten    --     1.6727                 1.0976                 0.7162
 Raman Activ --     0.0000                 0.0000                 0.0000
 Depolar     --     0.0000                 0.0000                 0.0000
 Atom AN      X      Y      Z        X      Y      Z        X      Y      Z
   1   1    -0.04  -0.01   0.00    -0.00  -0.01  -0.01     0.01  -0.01  -0.02
   2   6    -0.14   0.04   0.05    -0.01  -0.02  -0.00     0.02  -0.02  -0.04
   3   1    -0.04   0.00   0.03     0.00  -0.00   0.01     0.01  -0.01  -0.00
   4   1    -0.05   0.03  -0.00    -0.01   0.00  -0.01    -0.00   0.00  -0.02
   5   6    -0.14   0.08   0.13    -0.00  -0.01   0.02    -0.00  -0.01  -0.03
   6   1    -0.05   0.04   0.05    -0.00   0.00   0.01    -0.01   0.01   0.01
   7   6    -0.17   0.10   0.06    -0.02  -0.02  -0.01    -0.04   0.01  -0.12
   8   1    -0.04   0.01   0.01    -0.00  -0.01  -0.01    -0.01  -0.03  -0.05
   9   1    -0.06   0.04   0.01    -0.01  -0.00  -0.01    -0.03   0.03  -0.06
  10   6    -0.08   0.01   0.19     0.03  -0.03   0.03     0.06  -0.06   0.01
  11   1    -0.01   0.00   0.07    -0.01   0.00   0.01    -0.00  -0.01   0.00
  12   1    -0.02   0.01   0.06     0.02  -0.03   0.03     0.03  -0.03   0.03
  13   1    -0.03  -0.02   0.05     0.03  -0.01  -0.01     0.04  -0.02  -0.02
  14   7    -0.17   0.12   0.11    -0.02  -0.02  -0.00    -0.01   0.05  -0.01
  15   1    -0.04   0.04   0.03    -0.00  -0.01  -0.00     0.00   0.03   0.00
  16   1    -0.05   0.04   0.03    -0.00  -0.01   0.00    -0.00   0.02  -0.01
  17   8     0.04  -0.13   0.09    -0.06   0.01  -0.04     0.02   0.04   0.09
  18   1     0.02  -0.02   0.01    -0.01   0.01  -0.01    -0.00   0.02   0.02
  19   1    -0.00  -0.04   0.02    -0.01   0.00  -0.01    -0.00   0.00   0.02
  20   8     0.15  -0.12  -0.17    -0.08   0.01   0.07     0.12   0.04   0.05
  21   1     0.03  -0.04  -0.02    -0.01   0.01   0.01     0.03   0.01   0.02
  22   1     0.04  -0.03  -0.03    -0.02  -0.00   0.01     0.03   0.01   0.01
  23   8    -0.09  -0.12  -0.06     0.28   0.21   0.03     0.09  -0.08  -0.04
  24   1    -0.01  -0.02  -0.01     0.05   0.04   0.00     0.00  -0.05  -0.02
  25   1    -0.01  -0.02  -0.01     0.06   0.04  -0.00     0.04  -0.01   0.01
  26   8    -0.14  -0.16   0.03    -0.01  -0.09  -0.12     0.06   0.17   0.00
  27   1    -0.05  -0.08   0.05    -0.01  -0.03  -0.02     0.05   0.06  -0.02
  28   1    -0.03  -0.03  -0.00     0.00  -0.02  -0.03    -0.00   0.01  -0.01
  29   8     0.01   0.00   0.00    -0.06   0.07  -0.02    -0.23  -0.25  -0.17
  30   1     0.01   0.00   0.01    -0.02   0.01  -0.01    -0.03  -0.05  -0.02
  31   1    -0.00   0.00   0.01    -0.02   0.02  -0.02    -0.08  -0.05  -0.05
  32   8    -0.13   0.02  -0.11     0.30  -0.09  -0.12     0.08  -0.03  -0.04
  33   1    -0.03  -0.01  -0.03     0.07   0.00  -0.02     0.02  -0.02  -0.01
  34   1    -0.03   0.01  -0.03     0.07  -0.04  -0.03     0.02  -0.01  -0.01
  35   8    -0.11   0.03   0.15    -0.08  -0.04  -0.03    -0.11   0.02  -0.12
  36   1    -0.00  -0.01   0.02    -0.01  -0.01  -0.01    -0.01   0.01  -0.02
  37   1    -0.03   0.01   0.03    -0.04   0.02   0.00    -0.04   0.03  -0.03
  38   8    -0.06  -0.00   0.03    -0.06  -0.12  -0.09    -0.05   0.19   0.00
  39   1    -0.02   0.01   0.01    -0.03  -0.02   0.03    -0.01   0.03   0.02
  40   1    -0.02   0.00   0.01    -0.05  -0.04  -0.04    -0.03   0.04  -0.01
  41   8     0.18  -0.12  -0.05    -0.05   0.02   0.02     0.07   0.05  -0.11
  42   1     0.04  -0.02  -0.01    -0.01  -0.01   0.02     0.02   0.00  -0.02
  43   1     0.04  -0.02  -0.03    -0.01   0.01  -0.00     0.02   0.01  -0.03
  44   8     0.01   0.02  -0.04    -0.08  -0.08   0.13    -0.03  -0.01   0.02
  45   1     0.02   0.02  -0.01    -0.03  -0.01   0.04    -0.01  -0.00   0.01
  46   1    -0.02  -0.01  -0.01    -0.01  -0.01   0.01    -0.01  -0.00   0.00
  47   8    -0.04  -0.02  -0.03     0.03  -0.04  -0.10    -0.04  -0.01  -0.09
  48   1     0.01   0.00   0.01     0.02  -0.01  -0.02    -0.01  -0.01  -0.02
  49   1     0.00  -0.01  -0.01    -0.00  -0.01  -0.03     0.01   0.00   0.01
  50   8     0.14   0.04   0.03     0.02   0.02  -0.07    -0.08   0.14   0.08
  51   1     0.04   0.00   0.02     0.01   0.00  -0.01    -0.02   0.03   0.01
  52   1     0.02   0.02   0.01    -0.00  -0.00  -0.02    -0.01   0.03   0.02
  53   8     0.13  -0.03   0.02    -0.02  -0.01   0.05     0.27  -0.02   0.25
  54   1     0.02  -0.00   0.02    -0.00  -0.02   0.00     0.05  -0.00   0.09
  55   1     0.04  -0.02  -0.02    -0.01   0.01   0.02     0.06   0.00   0.05
  56   8     0.10  -0.05  -0.08    -0.10  -0.04   0.05     0.09   0.01  -0.03
  57   1     0.02   0.00  -0.01    -0.01  -0.01   0.01     0.01  -0.00  -0.01
  58   1     0.02  -0.02  -0.01     0.01  -0.01  -0.01     0.02   0.00  -0.01
  59   8     0.12  -0.06   0.08     0.01   0.01   0.02    -0.09  -0.00  -0.00
  60   1     0.00  -0.03   0.01     0.00   0.01   0.00    -0.02   0.00  -0.00
  61   1     0.02  -0.02   0.02    -0.00  -0.01  -0.00    -0.02  -0.00  -0.00
  62   8     0.16   0.11   0.08     0.13   0.05  -0.05    -0.02  -0.08  -0.06
  63   1     0.04   0.03   0.02     0.02   0.02   0.00    -0.02  -0.02  -0.01
  64   1     0.03   0.03   0.02     0.02   0.02  -0.02    -0.00  -0.02  -0.01
  65   8     0.07  -0.04  -0.17    -0.04  -0.20   0.04     0.07   0.08  -0.20
  66   1     0.02  -0.03  -0.05     0.01  -0.09  -0.01    -0.00  -0.01  -0.06
  67   1     0.02  -0.01  -0.03    -0.02  -0.03   0.01     0.03   0.01  -0.02
  68   8    -0.12  -0.09  -0.03    -0.02   0.07   0.01    -0.04  -0.00   0.03
  69   1    -0.03  -0.02  -0.00    -0.01   0.01  -0.01    -0.00  -0.00   0.01
  70   1    -0.03  -0.02  -0.01    -0.01   0.00   0.01    -0.01   0.01   0.00
  71   8     0.16  -0.01  -0.13     0.14   0.16  -0.17    -0.24  -0.02  -0.17
  72   1     0.04  -0.01  -0.03     0.02   0.02  -0.02    -0.07  -0.03  -0.03
  73   1     0.04  -0.00  -0.03     0.04   0.01  -0.02    -0.05   0.01  -0.05
  74   8     0.05   0.15  -0.08     0.23   0.08  -0.06    -0.06  -0.01   0.17
  75   1     0.01   0.03  -0.02     0.05   0.01  -0.02    -0.01   0.01   0.03
  76   1     0.01   0.03  -0.02     0.05   0.03  -0.04    -0.02   0.00   0.01
  77   8     0.09  -0.00  -0.02    -0.14  -0.01   0.00     0.20   0.01   0.15
  78   1     0.03  -0.00  -0.01    -0.05   0.01   0.02     0.06  -0.00   0.03
  79   1     0.02   0.01  -0.01    -0.00   0.00  -0.00     0.03  -0.00   0.04
  80   8     0.03   0.22   0.04     0.08   0.08  -0.06    -0.00  -0.12   0.02
  81   1    -0.00   0.05   0.01     0.04   0.02  -0.01     0.00  -0.02   0.01
  82   1     0.00   0.05   0.01     0.01   0.02  -0.02    -0.01  -0.03  -0.00
  83   8    -0.08   0.14  -0.04    -0.26   0.08   0.41    -0.06  -0.01   0.20
  84   1    -0.02   0.02  -0.02    -0.03  -0.01   0.07    -0.01  -0.01   0.05
  85   1    -0.03   0.03  -0.02    -0.09   0.05   0.06    -0.03  -0.02   0.04
  86   8    -0.06  -0.06  -0.13    -0.03  -0.07   0.06    -0.03   0.06  -0.01
  87   1    -0.01  -0.03  -0.02    -0.01  -0.01   0.01    -0.00   0.01   0.01
  88   1    -0.01  -0.01  -0.04    -0.01  -0.02   0.02    -0.00   0.02  -0.00
  89   8     0.02   0.01   0.08    -0.09   0.03  -0.00     0.03  -0.11   0.13
  90   1    -0.01   0.01   0.03    -0.02   0.00  -0.00     0.01  -0.03   0.03
  91   1     0.01   0.00   0.02    -0.02   0.01  -0.00     0.02  -0.02   0.03
                     25                     26                     27
                        a                      a                      a 
 Frequencies --    89.1566                90.6321                91.8900
 Red. masses --    14.5388                14.3937                14.2741
 Frc consts  --     0.0000                 0.0000                 0.0000
 IR Inten    --     0.7541                 3.8570                 0.7031
 Raman Activ --     0.0000                 0.0000                 0.0000
 Depolar     --     0.0000                 0.0000                 0.0000
 Atom AN      X      Y      Z        X      Y      Z        X      Y      Z
   1   1     0.01   0.00   0.01    -0.00   0.01  -0.01     0.01   0.02   0.01
   2   6     0.02  -0.01   0.03    -0.00   0.04  -0.05     0.04   0.02  -0.00
   3   1     0.01  -0.01   0.01    -0.00   0.01  -0.02     0.00  -0.00  -0.01
   4   1     0.01  -0.01   0.01     0.00   0.01  -0.01     0.03  -0.00   0.01
   5   6    -0.03   0.00   0.01     0.01   0.04  -0.04     0.02   0.03  -0.02
   6   1    -0.02  -0.00   0.01     0.00   0.02  -0.01     0.01  -0.01  -0.02
   7   6    -0.04   0.02  -0.03    -0.01   0.03  -0.06     0.06   0.06   0.04
   8   1    -0.01   0.00  -0.02     0.01   0.02  -0.02     0.01   0.03   0.02
   9   1    -0.02   0.01  -0.01    -0.01  -0.00  -0.01     0.03   0.01   0.02
  10   6    -0.02  -0.00   0.01     0.01   0.01  -0.02    -0.05   0.07  -0.05
  11   1    -0.01  -0.00   0.00     0.03  -0.00   0.01    -0.01   0.02  -0.02
  12   1    -0.00  -0.00   0.01    -0.00   0.02  -0.02    -0.02   0.03  -0.04
  13   1    -0.00  -0.00   0.00    -0.02  -0.01   0.01    -0.03   0.03   0.00
  14   7    -0.07   0.04  -0.03    -0.04   0.01  -0.15     0.03   0.07   0.02
  15   1    -0.02   0.01  -0.01    -0.01  -0.01  -0.05     0.01   0.01   0.00
  16   1    -0.02   0.01  -0.01    -0.01  -0.00  -0.03     0.01   0.02   0.00
  17   8    -0.08   0.05  -0.10     0.03   0.00   0.06     0.00  -0.13  -0.08
  18   1    -0.02  -0.00  -0.02    -0.00   0.01   0.01     0.01  -0.05  -0.02
  19   1    -0.01   0.02  -0.02     0.01  -0.01   0.00    -0.01  -0.02   0.00
  20   8    -0.09   0.13  -0.16     0.03  -0.13   0.25    -0.10  -0.07  -0.17
  21   1    -0.02   0.03  -0.03     0.01  -0.02   0.05    -0.03  -0.02  -0.03
  22   1    -0.02   0.03  -0.03     0.01  -0.03   0.04    -0.02  -0.01  -0.05
  23   8     0.11   0.03   0.11    -0.02   0.18   0.08    -0.00   0.05  -0.08
  24   1     0.02  -0.00   0.02     0.00   0.06   0.03    -0.00   0.00  -0.03
  25   1     0.03   0.01   0.03    -0.03   0.03   0.00    -0.01   0.01  -0.01
  26   8     0.12  -0.10  -0.10     0.04   0.03  -0.04    -0.09   0.08   0.31
  27   1    -0.03  -0.04   0.01     0.02   0.01  -0.01     0.00   0.05   0.04
  28   1     0.05   0.00   0.01     0.00  -0.00  -0.01    -0.03   0.02   0.05
  29   8    -0.01  -0.11   0.06     0.12   0.12   0.07     0.05  -0.04  -0.15
  30   1     0.00  -0.02   0.01     0.02   0.02   0.00     0.02  -0.01  -0.02
  31   1    -0.01  -0.02   0.01     0.04   0.03   0.00     0.01  -0.01  -0.04
  32   8     0.05   0.05  -0.05     0.02  -0.12   0.01     0.08   0.01   0.19
  33   1     0.02   0.01  -0.00     0.00   0.00   0.01     0.01   0.01   0.03
  34   1     0.00   0.02  -0.01    -0.01  -0.07   0.01     0.04  -0.03   0.06
  35   8    -0.01  -0.11  -0.03    -0.18   0.05   0.04    -0.14   0.14   0.11
  36   1    -0.00  -0.02   0.00    -0.01  -0.00  -0.00    -0.02   0.02   0.02
  37   1    -0.00  -0.02  -0.01    -0.05   0.04   0.00    -0.04   0.05   0.04
  38   8    -0.06  -0.04   0.07    -0.02   0.15   0.01     0.04  -0.08  -0.06
  39   1    -0.02  -0.01   0.03    -0.00   0.02   0.02     0.00  -0.02   0.01
  40   1    -0.02  -0.02   0.01    -0.03   0.04  -0.01    -0.02  -0.00  -0.01
  41   8    -0.07  -0.03   0.09     0.20  -0.07  -0.15    -0.01   0.05  -0.05
  42   1    -0.01   0.01  -0.01     0.04  -0.01  -0.03     0.00   0.01  -0.02
  43   1    -0.01  -0.00   0.03     0.05  -0.00  -0.07    -0.00   0.02  -0.02
  44   8     0.19   0.17  -0.25    -0.00   0.04  -0.07     0.05   0.01  -0.07
  45   1     0.07   0.01  -0.10     0.01   0.01  -0.02     0.01  -0.00  -0.02
  46   1     0.02  -0.00  -0.01    -0.00   0.00  -0.01     0.02   0.01  -0.02
  47   8     0.24   0.16   0.43     0.01  -0.01   0.02    -0.10   0.06  -0.01
  48   1     0.02   0.04   0.07    -0.00   0.00   0.00    -0.03   0.00  -0.00
  49   1     0.05   0.04   0.09     0.02  -0.00   0.01    -0.03   0.02   0.00
  50   8    -0.06  -0.10  -0.06    -0.07   0.13   0.05     0.12  -0.35  -0.02
  51   1    -0.02  -0.00  -0.02    -0.02   0.03   0.01     0.03  -0.08   0.00
  52   1     0.00  -0.04  -0.02    -0.01   0.02   0.01     0.02  -0.05   0.02
  53   8     0.11   0.04   0.05    -0.32   0.05  -0.13    -0.10  -0.05   0.01
  54   1     0.02  -0.02   0.02    -0.05   0.04  -0.07    -0.03  -0.02   0.01
  55   1     0.01   0.02  -0.01    -0.05  -0.00   0.01    -0.03  -0.01  -0.02
  56   8    -0.11   0.05   0.00     0.09  -0.03  -0.16    -0.04   0.11  -0.12
  57   1    -0.02   0.01  -0.00     0.01  -0.01  -0.03    -0.04   0.04  -0.01
  58   1    -0.02   0.01  -0.01     0.02  -0.01  -0.04    -0.00   0.02  -0.02
  59   8    -0.01   0.14  -0.05    -0.06   0.05  -0.00     0.14  -0.11   0.07
  60   1    -0.01  -0.01   0.00    -0.01   0.01   0.00     0.04  -0.02   0.02
  61   1     0.02   0.08   0.03    -0.01   0.02   0.00     0.03  -0.04   0.01
  62   8    -0.17  -0.07   0.18     0.00  -0.00   0.01    -0.14  -0.02  -0.01
  63   1    -0.02  -0.03   0.03     0.00  -0.00   0.00    -0.02  -0.01  -0.02
  64   1    -0.02  -0.02   0.04    -0.01   0.00   0.01    -0.05  -0.01   0.00
  65   8     0.03  -0.06  -0.19     0.08  -0.10  -0.22    -0.00   0.03  -0.12
  66   1     0.00  -0.02  -0.05    -0.01   0.01  -0.04    -0.00  -0.00  -0.03
  67   1     0.01  -0.00  -0.04     0.02  -0.02  -0.03    -0.00   0.01  -0.02
  68   8     0.01  -0.21   0.08     0.03   0.01   0.04     0.12   0.04  -0.06
  69   1     0.01  -0.05   0.03     0.00   0.00   0.01     0.03   0.02  -0.00
  70   1     0.00  -0.03   0.02     0.01  -0.00   0.01     0.03   0.02  -0.02
  71   8     0.07  -0.14  -0.06     0.16  -0.38   0.12     0.00   0.01  -0.07
  72   1     0.01  -0.04  -0.01     0.04  -0.05   0.02     0.00   0.00  -0.02
  73   1     0.02  -0.03  -0.02     0.05  -0.08   0.02     0.00   0.01  -0.02
  74   8    -0.06   0.07  -0.04    -0.06  -0.01   0.10     0.14  -0.12   0.07
  75   1    -0.01   0.02   0.00    -0.00   0.02   0.01     0.03  -0.02   0.00
  76   1    -0.01   0.01  -0.01     0.01  -0.03   0.03     0.03  -0.03   0.00
  77   8     0.02   0.06  -0.03     0.12  -0.02   0.09    -0.02   0.08  -0.04
  78   1     0.00  -0.01  -0.01     0.03  -0.02   0.02    -0.01   0.04   0.00
  79   1    -0.00   0.03  -0.02     0.02  -0.00   0.02     0.01   0.00   0.00
  80   8    -0.04  -0.02  -0.10    -0.09   0.01   0.07    -0.24   0.01   0.12
  81   1    -0.02  -0.00  -0.02    -0.02   0.01   0.02    -0.03  -0.01   0.03
  82   1    -0.01  -0.01  -0.02    -0.03  -0.00   0.02    -0.05   0.02   0.02
  83   8    -0.09   0.05   0.10    -0.05  -0.06   0.17    -0.07  -0.06   0.25
  84   1    -0.01   0.01   0.02    -0.01  -0.03   0.03    -0.00  -0.01   0.07
  85   1    -0.03   0.00   0.01    -0.02  -0.00   0.04    -0.03  -0.02   0.05
  86   8    -0.00   0.02   0.04     0.02  -0.02   0.05     0.08   0.14  -0.09
  87   1    -0.01   0.01  -0.00     0.01  -0.01   0.02     0.02   0.02  -0.02
  88   1    -0.01   0.01   0.00     0.01  -0.00  -0.00     0.02   0.04  -0.04
  89   8     0.02  -0.06   0.00    -0.06   0.01  -0.16     0.12  -0.05   0.07
  90   1    -0.00  -0.01   0.00    -0.01   0.01  -0.05     0.03  -0.00   0.01
  91   1     0.01  -0.02   0.00    -0.04  -0.00  -0.04     0.01  -0.01   0.02
                     28                     29                     30
                        a                      a                      a 
 Frequencies --    94.2277                96.7333               101.6903
 Red. masses --    14.1169                14.1131                14.2301
 Frc consts  --     0.0000                 0.0000                 0.0000
 IR Inten    --     2.0396                 3.2060                 3.0892
 Raman Activ --     0.0000                 0.0000                 0.0000
 Depolar     --     0.0000                 0.0000                 0.0000
 Atom AN      X      Y      Z        X      Y      Z        X      Y      Z
   1   1     0.05  -0.02  -0.03    -0.02   0.03  -0.00     0.00   0.01   0.04
   2   6     0.10  -0.07  -0.05    -0.02   0.05  -0.08     0.03  -0.01   0.08
   3   1     0.04  -0.02   0.01    -0.01   0.03  -0.04     0.00  -0.01   0.01
   4   1     0.02  -0.02  -0.01     0.00  -0.00  -0.01     0.02  -0.01   0.03
   5   6     0.05  -0.05  -0.07     0.04  -0.01  -0.13     0.02  -0.02   0.06
   6   1     0.00  -0.02  -0.01     0.02  -0.01  -0.05     0.00  -0.01   0.02
   7   6     0.04  -0.01  -0.13     0.06  -0.06  -0.06     0.00  -0.03   0.04
   8   1     0.02  -0.01  -0.05     0.00  -0.02  -0.01     0.01  -0.01   0.01
   9   1     0.00   0.01  -0.05     0.02  -0.02  -0.02    -0.00  -0.01   0.01
  10   6     0.06  -0.08  -0.05     0.02   0.04  -0.17     0.04  -0.01   0.04
  11   1    -0.00  -0.01  -0.01    -0.01   0.01  -0.06    -0.00   0.00   0.00
  12   1     0.02  -0.04   0.00     0.01   0.00  -0.05     0.02  -0.01   0.03
  13   1     0.04  -0.02  -0.03     0.01   0.03  -0.05     0.03   0.00   0.00
  14   7     0.01   0.03  -0.11     0.12  -0.08  -0.02    -0.01  -0.03   0.02
  15   1     0.00   0.00  -0.03     0.04  -0.01  -0.01    -0.01  -0.01   0.01
  16   1     0.01   0.02  -0.03     0.04  -0.02   0.00    -0.01  -0.01   0.00
  17   8     0.08  -0.11   0.03     0.10   0.04   0.09    -0.20   0.11  -0.13
  18   1     0.02  -0.04   0.01     0.01   0.02   0.02    -0.03   0.01  -0.03
  19   1     0.02  -0.02   0.02     0.04   0.01   0.01    -0.05   0.03  -0.01
  20   8    -0.12   0.08  -0.14    -0.07   0.02  -0.05     0.06   0.04   0.15
  21   1    -0.02   0.01  -0.02    -0.00  -0.00  -0.00     0.01   0.02   0.02
  22   1    -0.03   0.01  -0.03    -0.02   0.00  -0.03     0.02   0.01   0.04
  23   8     0.18   0.09   0.19     0.09  -0.03   0.11     0.04   0.04  -0.05
  24   1     0.04   0.03   0.05     0.02  -0.01   0.03     0.02   0.01  -0.01
  25   1     0.04   0.02   0.04     0.02  -0.01   0.03     0.02   0.01  -0.01
  26   8    -0.03   0.26   0.24     0.08   0.01  -0.01    -0.11  -0.03  -0.00
  27   1     0.06   0.11  -0.00     0.01  -0.02   0.02    -0.05   0.01  -0.01
  28   1    -0.03   0.03   0.03     0.02   0.00  -0.00    -0.02   0.00   0.02
[...]
  35   8     0.00   0.00  -0.00    -0.00  -0.00  -0.00    -0.00  -0.00  -0.00
  36   1    -0.00  -0.00   0.00    -0.00  -0.00   0.00     0.00   0.00  -0.00
  37   1     0.00  -0.00   0.00     0.01   0.00   0.00     0.01   0.00   0.00
  38   8     0.00   0.00  -0.00     0.00  -0.00  -0.00    -0.00   0.00  -0.00
  39   1     0.00   0.00   0.00    -0.00  -0.00   0.00     0.00   0.00   0.00
  40   1    -0.00  -0.00   0.00    -0.00  -0.00   0.00    -0.00  -0.00   0.00
  41   8     0.00   0.00   0.00    -0.00  -0.00  -0.00    -0.00  -0.00  -0.00
  42   1    -0.02  -0.01  -0.01     0.00   0.00   0.00     0.00   0.00   0.00
  43   1     0.00   0.00  -0.00    -0.00   0.00   0.00     0.00   0.00   0.00
  44   8    -0.07   0.12  -0.18    -0.00   0.00  -0.00     0.00  -0.01  -0.01
  45   1     0.32  -0.54   0.74     0.00  -0.00   0.00     0.00  -0.01   0.01
  46   1    -0.03   0.04  -0.01     0.00  -0.00  -0.00    -0.02   0.03   0.01
  47   8    -0.00   0.00   0.00     0.00   0.01  -0.00     0.00  -0.00  -0.00
  48   1     0.00  -0.00  -0.00     0.00  -0.00   0.00    -0.00   0.00   0.00
  49   1     0.00   0.00  -0.00    -0.00  -0.03   0.01     0.00   0.00  -0.00
  50   8    -0.00   0.00  -0.00    -0.00  -0.00   0.00    -0.00  -0.00   0.00
  51   1     0.00   0.00   0.00     0.00   0.00   0.00     0.00   0.00  -0.00
  52   1    -0.00  -0.00   0.00     0.00   0.00  -0.00     0.00   0.00  -0.00
  53   8    -0.00   0.00  -0.00     0.00  -0.00   0.00     0.00  -0.00   0.00
  54   1     0.00  -0.00   0.00    -0.00   0.00  -0.00    -0.00   0.00  -0.00
  55   1    -0.00  -0.00   0.00     0.00   0.00   0.00     0.00   0.00   0.00
  56   8     0.00   0.00  -0.00    -0.00  -0.00  -0.00    -0.00  -0.00  -0.00
  57   1     0.00  -0.00   0.00     0.00  -0.00   0.00    -0.00  -0.00  -0.00
  58   1    -0.00  -0.00  -0.00     0.00   0.00   0.00     0.00   0.01   0.00
  59   8     0.00   0.00  -0.00     0.00   0.00  -0.00    -0.00   0.00   0.01
  60   1    -0.00   0.00   0.00    -0.00   0.00   0.00     0.02  -0.01  -0.04
  61   1     0.00  -0.00   0.00     0.00  -0.00   0.00     0.00  -0.00   0.00
  62   8    -0.00   0.00  -0.00    -0.00   0.00  -0.00     0.00  -0.01   0.01
  63   1     0.00  -0.00   0.00     0.00  -0.00   0.00    -0.01   0.04  -0.03
  64   1     0.00   0.00   0.00     0.00   0.00   0.00    -0.00  -0.00  -0.00
  65   8    -0.00  -0.00   0.00    -0.01   0.02  -0.04    -0.00   0.00  -0.00
  66   1     0.00   0.00  -0.00     0.01  -0.08   0.17     0.00  -0.00   0.00
  67   1     0.00   0.00  -0.00     0.02   0.01  -0.01     0.00   0.00  -0.00
  68   8    -0.00  -0.00   0.00    -0.00  -0.01   0.00     0.08   0.19  -0.08
  69   1     0.00   0.01  -0.00     0.01   0.03  -0.01    -0.36  -0.80   0.32
  70   1    -0.00  -0.00  -0.00    -0.00  -0.00  -0.00     0.03   0.02   0.01
  71   8    -0.00  -0.00  -0.00    -0.00   0.00   0.00    -0.00  -0.00  -0.00
  72   1     0.00   0.00   0.00     0.00   0.00   0.00     0.00   0.00   0.00
  73   1     0.00  -0.00  -0.00     0.00  -0.00  -0.00    -0.00   0.00  -0.00
  74   8    -0.00  -0.00  -0.00     0.00  -0.00  -0.00    -0.00  -0.00  -0.00
  75   1     0.00   0.00   0.00    -0.00   0.00   0.00    -0.00   0.00   0.00
  76   1     0.00   0.00  -0.00     0.00  -0.00   0.00     0.00   0.00  -0.00
  77   8    -0.00   0.00  -0.00     0.19  -0.06   0.12     0.00  -0.00   0.00
  78   1     0.00  -0.00   0.00    -0.77   0.22  -0.51    -0.00   0.00  -0.00
  79   1     0.00   0.00   0.00     0.02   0.01   0.04     0.00   0.00   0.00
  80   8    -0.00  -0.00  -0.00     0.00   0.00  -0.00     0.00  -0.00   0.00
  81   1     0.00   0.00  -0.00     0.00  -0.00   0.00     0.00   0.00  -0.00
  82   1    -0.00   0.00   0.00    -0.00   0.00   0.00    -0.00   0.00   0.00
  83   8    -0.00   0.00   0.00    -0.00   0.00  -0.00    -0.00   0.00  -0.00
  84   1     0.00  -0.00   0.00     0.00  -0.00   0.00     0.00  -0.01   0.01
  85   1     0.00   0.00  -0.00     0.00   0.00  -0.00     0.00   0.00  -0.00
  86   8     0.00  -0.00  -0.00    -0.00  -0.00   0.00    -0.00   0.00  -0.00
  87   1    -0.00   0.00   0.00     0.00  -0.00  -0.00     0.00  -0.00  -0.00
  88   1    -0.00   0.00   0.00     0.00   0.00   0.00     0.00  -0.00  -0.00
  89   8    -0.00   0.00  -0.00    -0.00   0.00  -0.00    -0.00  -0.00  -0.00
  90   1     0.00   0.00   0.00     0.00   0.00   0.00     0.00   0.00   0.00
  91   1     0.00  -0.00   0.00     0.00  -0.00   0.00     0.00  -0.00   0.00
                    262                    263                    264
                        a                      a                      a 
 Frequencies --  3665.8966              3668.2074              3670.9443
 Red. masses --     1.8345                 1.8353                 1.8343
 Frc consts  --     0.0000                 0.0000                 0.0000
 IR Inten    --    14.8673                 7.6093                14.8703
 Raman Activ --     0.0000                 0.0000                 0.0000
 Depolar     --     0.0000                 0.0000                 0.0000
 Atom AN      X      Y      Z        X      Y      Z        X      Y      Z
   1   1    -0.00   0.00  -0.00     0.00   0.00   0.00     0.00  -0.00   0.00
   2   6    -0.00   0.00   0.00    -0.00  -0.00  -0.00    -0.00   0.00  -0.00
   3   1     0.00  -0.00  -0.00     0.00   0.00   0.00    -0.00   0.00   0.00
   4   1     0.00  -0.00  -0.00     0.00   0.00   0.00    -0.00  -0.00  -0.00
   5   6     0.00   0.00  -0.00    -0.00  -0.00  -0.00    -0.00   0.00  -0.00
   6   1     0.00  -0.00   0.00     0.00  -0.00   0.00     0.00  -0.00   0.00
   7   6     0.00  -0.00   0.00    -0.00  -0.00  -0.00    -0.00   0.00  -0.00
   8   1     0.00   0.00  -0.00    -0.00   0.00   0.00     0.00  -0.00   0.00
   9   1     0.00  -0.00  -0.00    -0.00   0.00   0.00     0.00  -0.00  -0.00
  10   6    -0.00   0.00   0.00    -0.00  -0.00   0.00     0.00   0.00  -0.00
  11   1    -0.00  -0.00   0.00     0.00   0.00  -0.00    -0.00  -0.00   0.00
  12   1     0.00  -0.00  -0.00     0.00  -0.00   0.00     0.00   0.00  -0.00
  13   1    -0.00   0.00  -0.00     0.00   0.00   0.00     0.00  -0.00   0.00
  14   7     0.00  -0.00   0.00     0.00   0.00   0.00    -0.00   0.00  -0.00
  15   1    -0.00   0.00  -0.00     0.00  -0.00   0.00     0.00  -0.00   0.00
  16   1     0.00  -0.00  -0.00     0.00  -0.00  -0.00     0.00  -0.00  -0.00
  17   8     0.00  -0.00   0.00     0.01  -0.01   0.00     0.10  -0.17   0.09
  18   1     0.00  -0.00   0.00     0.00   0.00   0.00     0.02  -0.01   0.03
  19   1    -0.01   0.01  -0.01    -0.02   0.04  -0.02    -0.42   0.71  -0.38
  20   8    -0.00   0.00   0.00     0.00   0.00   0.00     0.00   0.01   0.00
  21   1     0.00  -0.00  -0.00     0.00  -0.00  -0.00     0.00  -0.02  -0.01
  22   1    -0.00  -0.00  -0.00    -0.00   0.00   0.00    -0.00   0.00   0.00
  23   8    -0.00  -0.00   0.00    -0.00  -0.00   0.00     0.00   0.00  -0.00
  24   1     0.00  -0.00   0.00    -0.00   0.00  -0.00     0.00  -0.00   0.00
  25   1     0.00   0.00  -0.00     0.00  -0.00  -0.00    -0.00   0.00  -0.00
  26   8    -0.00  -0.00  -0.00     0.05   0.16   0.16    -0.00  -0.01  -0.01
  27   1     0.01   0.02   0.02    -0.18  -0.67  -0.68     0.01   0.02   0.02
  28   1     0.00  -0.00  -0.00    -0.01   0.03   0.02     0.00  -0.00  -0.00
  29   8     0.00   0.01  -0.00     0.00   0.00  -0.00    -0.00  -0.00   0.00
  30   1     0.00   0.00   0.00    -0.00   0.00   0.00     0.00  -0.00  -0.00
  31   1    -0.01  -0.02   0.00    -0.01  -0.01   0.00     0.00   0.01  -0.00
  32   8     0.01  -0.06  -0.22     0.00  -0.00  -0.00     0.00   0.00   0.00
  33   1     0.03  -0.00  -0.03     0.00  -0.00  -0.00    -0.00  -0.00   0.00
  34   1    -0.04   0.23   0.90    -0.00   0.00   0.02     0.00  -0.00  -0.00
  35   8     0.01   0.00   0.00     0.00   0.00   0.00     0.00   0.00  -0.00
  36   1     0.00  -0.00   0.00     0.00   0.00  -0.00    -0.00  -0.00   0.00
  37   1    -0.04  -0.02  -0.01    -0.00  -0.00  -0.00    -0.00  -0.00  -0.00
  38   8    -0.00  -0.00   0.00    -0.00  -0.00   0.00     0.00   0.00  -0.00
  39   1    -0.00  -0.00  -0.00     0.00   0.00   0.00     0.00  -0.00   0.00
  40   1     0.00   0.00  -0.00     0.00   0.00  -0.00    -0.00  -0.00   0.00
  41   8    -0.00   0.00  -0.00    -0.00  -0.00  -0.00    -0.00   0.00   0.00
  42   1    -0.00  -0.00  -0.00     0.00   0.00   0.00     0.00   0.00   0.00
  43   1     0.00  -0.00  -0.00     0.00  -0.00  -0.00     0.00  -0.00  -0.00
  44   8     0.00  -0.00  -0.00     0.00  -0.00  -0.00    -0.00   0.00  -0.00
  45   1     0.00  -0.00   0.00     0.00  -0.00   0.00     0.00  -0.00   0.00
  46   1    -0.01   0.01   0.00    -0.00   0.00   0.00     0.00  -0.00  -0.00
  47   8     0.00   0.00  -0.00     0.00  -0.00  -0.00     0.00   0.00  -0.00
  48   1    -0.00   0.00   0.00    -0.00   0.00   0.00    -0.00  -0.00   0.00
  49   1    -0.00  -0.00   0.00    -0.00  -0.00   0.00    -0.00  -0.00   0.00
  50   8    -0.00  -0.00   0.00     0.00   0.00  -0.00    -0.00  -0.00  -0.00
  51   1     0.00   0.00  -0.00    -0.00   0.00   0.00    -0.00  -0.00   0.00
  52   1     0.00   0.00  -0.00    -0.00  -0.01   0.01     0.00   0.00  -0.00
  53   8     0.00  -0.00   0.00     0.00  -0.00   0.00    -0.00   0.00  -0.00
  54   1    -0.02   0.00  -0.01    -0.01   0.00  -0.00     0.02  -0.00   0.01
  55   1     0.00   0.00  -0.00     0.00   0.00   0.00    -0.00  -0.00  -0.00
  56   8     0.00   0.01   0.00     0.00   0.00   0.00    -0.00   0.00  -0.00
  57   1     0.00   0.00   0.00     0.00   0.00  -0.00     0.00   0.00   0.00
  58   1    -0.01  -0.03  -0.01    -0.00  -0.00  -0.00    -0.00  -0.00  -0.00
  59   8    -0.00   0.00   0.00     0.00   0.00   0.00     0.00   0.00  -0.00
  60   1     0.00  -0.00  -0.01     0.00  -0.00  -0.00    -0.00   0.00   0.00
  61   1     0.00  -0.00   0.00    -0.00   0.00   0.00     0.00  -0.00   0.00
  62   8     0.00  -0.00   0.00     0.00  -0.00   0.00    -0.00   0.00  -0.00
  63   1    -0.00   0.01  -0.01    -0.00   0.00  -0.00     0.00  -0.00   0.00
  64   1    -0.00  -0.00  -0.00     0.00   0.00   0.00     0.00   0.00   0.00
  65   8    -0.00   0.00  -0.01    -0.00   0.00  -0.01     0.01  -0.03   0.07
  66   1     0.00  -0.02   0.03     0.00  -0.02   0.04    -0.02   0.14  -0.31
  67   1     0.00   0.00  -0.00     0.00   0.00  -0.00    -0.00  -0.01   0.01
  68   8     0.02   0.05  -0.02     0.00   0.01  -0.00    -0.00  -0.01   0.00
  69   1    -0.10  -0.21   0.09    -0.01  -0.02   0.01     0.01   0.03  -0.01
  70   1     0.01   0.01   0.00     0.00   0.00   0.00    -0.00  -0.00   0.00
  71   8    -0.00   0.00   0.00    -0.00   0.00  -0.00     0.00  -0.00  -0.00
  72   1     0.00   0.00   0.00     0.00   0.00   0.00    -0.00  -0.00  -0.00
  73   1     0.00  -0.00  -0.00     0.00  -0.00  -0.00    -0.00   0.00   0.01
  74   8    -0.00  -0.00  -0.00    -0.00  -0.00  -0.00     0.00  -0.00  -0.00
  75   1     0.00  -0.00  -0.00    -0.00   0.00   0.00    -0.00   0.00   0.00
  76   1    -0.00  -0.00   0.00     0.00   0.00   0.00    -0.00  -0.00   0.00
  77   8     0.02  -0.01   0.01     0.01  -0.00   0.00     0.01  -0.00   0.01
  78   1    -0.10   0.03  -0.06    -0.02   0.01  -0.01    -0.05   0.01  -0.03
  79   1     0.00   0.00   0.00     0.00   0.00   0.00     0.00   0.00   0.00
  80   8    -0.00   0.00   0.00     0.00  -0.00  -0.00     0.00   0.00  -0.00
  81   1     0.00   0.00  -0.00     0.00  -0.00   0.00    -0.00  -0.00   0.00
  82   1     0.00  -0.00  -0.00    -0.00   0.00   0.00     0.00  -0.00   0.00
  83   8     0.00  -0.01   0.01    -0.00  -0.00   0.00     0.00   0.00  -0.00
  84   1    -0.01   0.03  -0.03    -0.00   0.00  -0.00     0.00  -0.00   0.00
  85   1    -0.00  -0.00   0.00     0.00  -0.00  -0.00    -0.00  -0.00   0.00
  86   8    -0.00   0.00   0.00    -0.00  -0.00   0.00    -0.00   0.00   0.00
  87   1     0.00  -0.00  -0.00     0.00  -0.00  -0.00     0.02  -0.01  -0.01
  88   1    -0.00  -0.00  -0.00     0.00   0.00   0.00    -0.00   0.00   0.00
  89   8     0.00  -0.00   0.00     0.00   0.00  -0.00     0.00   0.00  -0.00
  90   1    -0.00  -0.00  -0.00     0.00   0.00   0.00    -0.00  -0.00  -0.00
  91   1    -0.00   0.00  -0.00     0.00  -0.00   0.00    -0.00  -0.00   0.00
                    265                    266                    267
                        a                      a                      a 
 Frequencies --  3671.2233              3673.8360              3675.1863
 Red. masses --     1.8376                 1.8406                 1.8365
 Frc consts  --     0.0000                 0.0000                 0.0000
 IR Inten    --     5.7180                 8.5351                11.6685
 Raman Activ --     0.0000                 0.0000                 0.0000
 Depolar     --     0.0000                 0.0000                 0.0000
 Atom AN      X      Y      Z        X      Y      Z        X      Y      Z
   1   1    -0.00   0.00  -0.00     0.00  -0.00   0.00     0.00  -0.00   0.00
   2   6     0.00  -0.00   0.00     0.00   0.00   0.00    -0.00   0.00  -0.00
   3   1     0.00  -0.00  -0.00    -0.00  -0.00   0.00    -0.00   0.00   0.00
   4   1     0.00   0.00   0.00     0.00   0.00   0.00     0.00   0.00   0.00
   5   6    -0.00   0.00  -0.00     0.00   0.00  -0.00     0.00  -0.00   0.00
   6   1     0.00  -0.00   0.00    -0.00   0.00  -0.00    -0.00   0.00   0.00
   7   6    -0.00   0.00  -0.00     0.00  -0.00  -0.00    -0.00   0.00  -0.00
   8   1     0.00  -0.00   0.00     0.00  -0.00   0.00     0.00  -0.00   0.00
   9   1    -0.00   0.00   0.00     0.00   0.00   0.00     0.00   0.00   0.00
  10   6    -0.00   0.00  -0.00    -0.00  -0.00   0.00    -0.00  -0.00  -0.00
  11   1    -0.00  -0.00   0.00     0.00   0.00  -0.00     0.00   0.00  -0.00
  12   1     0.00  -0.00  -0.00    -0.00   0.00   0.00    -0.00   0.00   0.00
  13   1     0.00  -0.00   0.00     0.00  -0.00   0.00     0.00  -0.00   0.00
  14   7    -0.00   0.00  -0.00     0.00  -0.00   0.00     0.00  -0.00  -0.00
  15   1     0.01  -0.00   0.01    -0.00   0.00  -0.00    -0.00   0.00  -0.00
  16   1     0.00  -0.00  -0.00    -0.00   0.00   0.00    -0.00   0.00   0.00
  17   8    -0.04   0.07  -0.03     0.00  -0.00   0.00     0.00  -0.01   0.00
  18   1    -0.01   0.00  -0.01     0.00  -0.00   0.00     0.00  -0.00   0.00
  19   1     0.16  -0.27   0.14    -0.01   0.01  -0.01    -0.01   0.02  -0.01
  20   8    -0.00  -0.00  -0.00     0.00   0.00   0.00    -0.00  -0.00  -0.00
  21   1    -0.00   0.01   0.00    -0.00  -0.00  -0.00     0.00   0.00   0.00
  22   1     0.00  -0.00  -0.00     0.00  -0.00  -0.00    -0.00   0.00   0.00
  23   8    -0.00   0.00   0.00     0.00  -0.00   0.01    -0.00   0.00   0.00
  24   1    -0.00   0.00  -0.00    -0.00   0.02  -0.02    -0.00   0.00  -0.01
  25   1     0.00  -0.00  -0.00    -0.00   0.00   0.00     0.02  -0.02  -0.00
  26   8     0.00   0.01   0.01    -0.00  -0.00  -0.00    -0.00  -0.00  -0.00
  27   1    -0.01  -0.04  -0.04     0.00   0.01   0.01     0.00   0.01   0.01
  28   1    -0.00   0.00   0.00     0.00  -0.00  -0.00     0.00  -0.00  -0.00
  29   8     0.01   0.01  -0.00     0.10   0.21  -0.01     0.02   0.04  -0.00
  30   1    -0.00   0.00   0.00    -0.00   0.03   0.00     0.00   0.01   0.00
  31   1    -0.02  -0.04   0.00    -0.42  -0.86   0.03    -0.07  -0.15   0.00
  32   8     0.00  -0.00  -0.00    -0.00   0.00   0.01    -0.00   0.00   0.01
  33   1     0.00  -0.00  -0.00    -0.00   0.00   0.00    -0.00   0.00   0.00
  34   1    -0.00   0.00   0.01     0.00  -0.01  -0.02     0.00  -0.01  -0.02
  35   8     0.00   0.00   0.00    -0.00  -0.00  -0.00    -0.00  -0.00  -0.00
  36   1    -0.00  -0.00   0.00     0.00   0.00  -0.00     0.00   0.00  -0.00
  37   1    -0.00  -0.00  -0.00     0.00   0.00   0.00     0.00   0.00   0.00
  38   8    -0.00  -0.00  -0.00    -0.00  -0.00   0.00    -0.00  -0.00  -0.00
  39   1     0.00   0.00   0.00     0.00   0.00   0.00     0.00   0.00   0.00
  40   1     0.00   0.00  -0.00     0.00   0.00  -0.00    -0.00  -0.00   0.00
  41   8     0.00  -0.00  -0.00     0.00  -0.00  -0.00    -0.00  -0.00  -0.00
  42   1    -0.00   0.00  -0.00     0.00   0.00   0.00     0.00   0.00   0.00
  43   1    -0.00   0.00   0.00    -0.00   0.00   0.00     0.00  -0.00  -0.00
  44   8     0.00  -0.00  -0.00    -0.00   0.00   0.00    -0.00   0.00  -0.00
  45   1     0.00  -0.00   0.00    -0.00   0.00  -0.00     0.00  -0.00   0.00
  46   1    -0.00   0.00   0.00     0.00  -0.00  -0.00     0.00  -0.00  -0.00
  47   8     0.00   0.00  -0.00    -0.00  -0.00   0.00    -0.00  -0.00   0.00
  48   1     0.00   0.00   0.00     0.00   0.00  -0.00     0.00  -0.00  -0.00
  49   1    -0.00  -0.01   0.00     0.00   0.00  -0.00     0.00   0.00  -0.00
  50   8     0.00   0.00  -0.00    -0.00  -0.00   0.00    -0.00  -0.00  -0.00
  51   1     0.00   0.00  -0.00     0.00   0.00  -0.00     0.00   0.00   0.00
  52   1    -0.00  -0.00   0.00     0.00   0.00  -0.00     0.00   0.00  -0.00
  53   8     0.01  -0.00   0.00    -0.03   0.01  -0.02     0.19  -0.03   0.13
  54   1    -0.02   0.00  -0.02     0.14  -0.02   0.10    -0.78   0.12  -0.54
  55   1     0.00   0.00   0.00    -0.01  -0.00  -0.00     0.03   0.01   0.01
  56   8    -0.00   0.00   0.00    -0.00  -0.00  -0.00    -0.00  -0.00  -0.00
  57   1     0.00  -0.00  -0.00    -0.00  -0.00  -0.00     0.00  -0.00   0.00
  58   1    -0.00  -0.00  -0.00     0.00   0.00   0.00     0.00   0.00   0.00
  59   8    -0.00   0.00  -0.00     0.00  -0.00  -0.00     0.00  -0.00  -0.00
  60   1     0.00  -0.00  -0.00    -0.00   0.00   0.00    -0.00   0.00   0.00
  61   1     0.00  -0.00   0.00    -0.00   0.00  -0.00     0.00  -0.00   0.00
  62   8     0.00  -0.00   0.00     0.00  -0.00  -0.00    -0.00   0.00  -0.00
  63   1    -0.00   0.00  -0.00    -0.00  -0.00   0.00     0.00  -0.00   0.00
  64   1     0.00   0.00   0.00     0.00   0.00   0.00     0.00   0.00   0.00
  65   8     0.01  -0.09   0.20    -0.00   0.00  -0.01    -0.00   0.00  -0.01
  66   1    -0.05   0.37  -0.81     0.00  -0.01   0.03     0.00  -0.01   0.02
  67   1    -0.01  -0.02   0.02     0.00   0.00  -0.00     0.00   0.00  -0.00
  68   8     0.00   0.00  -0.00    -0.00  -0.00   0.00    -0.00  -0.00   0.00
  69   1    -0.01  -0.02   0.01     0.00   0.01  -0.00     0.00   0.01  -0.00
  70   1     0.00   0.00  -0.00    -0.00  -0.00   0.00    -0.00  -0.00   0.00
  71   8     0.00  -0.00  -0.00    -0.01  -0.00  -0.00    -0.00  -0.00  -0.00
  72   1     0.00  -0.00   0.00     0.02   0.01   0.02     0.00   0.00   0.00
  73   1    -0.01   0.01   0.02    -0.00  -0.00  -0.00     0.00  -0.00  -0.00
  74   8     0.00  -0.00  -0.00    -0.00  -0.00   0.00    -0.00  -0.00   0.00
  75   1    -0.00   0.00   0.00    -0.00   0.00   0.00     0.00  -0.00  -0.00
  76   1    -0.00  -0.00   0.00     0.00   0.00  -0.00     0.00   0.00  -0.00
  77   8     0.04  -0.01   0.02    -0.00   0.00  -0.00    -0.00   0.00  -0.00
  78   1    -0.15   0.04  -0.10     0.01  -0.00   0.01     0.01  -0.00   0.01
  79   1     0.00   0.00   0.01    -0.00   0.00  -0.00    -0.00  -0.00  -0.00
  80   8     0.00   0.00  -0.00     0.00  -0.00   0.00     0.00   0.00  -0.00
  81   1     0.00  -0.00   0.00    -0.00   0.00  -0.00    -0.00  -0.00   0.00
  82   1    -0.00   0.00   0.00    -0.00   0.00   0.00    -0.00   0.00   0.00
  83   8    -0.00  -0.00   0.00    -0.01   0.00   0.01    -0.00   0.00   0.00
  84   1    -0.00   0.00  -0.00    -0.00  -0.00   0.00     0.00  -0.00   0.00
  85   1     0.00  -0.00  -0.00     0.03   0.00  -0.03     0.01   0.00  -0.01
  86   8     0.00  -0.00  -0.00    -0.00   0.00   0.00    -0.00  -0.00   0.00
  87   1    -0.01   0.00   0.00     0.00  -0.00  -0.00     0.00  -0.00  -0.00
  88   1     0.00  -0.00  -0.00    -0.00   0.00   0.00     0.00   0.00   0.00
  89   8     0.00   0.00  -0.00     0.00  -0.00   0.00    -0.00   0.00  -0.00
  90   1    -0.00  -0.00  -0.00     0.00   0.00   0.00     0.00   0.00  -0.00
  91   1     0.00  -0.00   0.00    -0.00   0.00  -0.00     0.00  -0.01   0.02
