      -----------------------------------------------------------      
     |                   =====================                   |     
     |                           x T B                           |     
     |                   =====================                   |     
     |                         S. Grimme                         |     
     |          Mulliken Center for Theoretical Chemistry        |     
     |                    University of Bonn                     |     
      -----------------------------------------------------------      

   * xtb version 6.5.1 (579679a) compiled by 'ehlert@majestix' on 2022-07-11

   xtb is free software: you can redistribute it and/or modify it under
   the terms of the GNU Lesser General Public License as published by
   the Free Software Foundation, either version 3 of the License, or
   (at your option) any later version.
   
   xtb is distributed in the hope that it will be useful,
   but WITHOUT ANY WARRANTY; without even the implied warranty of
   MERCHANTABILITY or FITNESS FOR A PARTICULAR PURPOSE.  See the
   GNU Lesser General Public License for more details.
   
   Cite this work as:
   * C. Bannwarth, E. Caldeweyher, S. Ehlert, A. Hansen, P. Pracht,
     J. Seibert, S. Spicher, S. Grimme, WIREs Comput. Mol. Sci., 2020, 11,
     e01493. DOI: 10.1002/wcms.1493
   
   for GFN2-xTB:
   * C. Bannwarth, S. Ehlert and S. Grimme., J. Chem. Theory Comput., 2019,
     15, 1652-1671. DOI: 10.1021/acs.jctc.8b01176
   for GFN1-xTB:
   * S. Grimme, C. Bannwarth, P. Shushkov, J. Chem. Theory Comput., 2017,
     13, 1989-2009. DOI: 10.1021/acs.jctc.7b00118
   for GFN0-xTB:
   * P. Pracht, E. Caldeweyher, S. Ehlert, S. Grimme, ChemRxiv, 2019, preprint.
     DOI: 10.26434/chemrxiv.8326202.v1
   for GFN-FF:
   * S. Spicher and S. Grimme, Angew. Chem. Int. Ed., 2020, 59, 15665-15673.
     DOI: 10.1002/anie.202004239
   
   for ALPB and GBSA implicit solvation:
   * S. Ehlert, M. Stahn, S. Spicher, S. Grimme, J. Chem. Theory Comput.,
     2021, 17, 4250-4261. DOI: 10.1021/acs.jctc.1c00471
   
   for DFT-D4:
   * E. Caldeweyher, C. Bannwarth and S. Grimme, J. Chem. Phys., 2017,
     147, 034112. DOI: 10.1063/1.4993215
   * E. Caldeweyher, S. Ehlert, A. Hansen, H. Neugebauer, S. Spicher,
     C. Bannwarth and S. Grimme, J. Chem. Phys., 2019, 150, 154122.
     DOI: 10.1063/1.5090222
   * E. Caldeweyher, J.-M. Mewes, S. Ehlert and S. Grimme, Phys. Chem. Chem. Phys.
     2020, 22, 8499-8512. DOI: 10.1039/D0CP00502A
   
   for sTDA-xTB:
   * S. Grimme and C. Bannwarth, J. Chem. Phys., 2016, 145, 054103.
     DOI: 10.1063/1.4959605
   
   in the mass-spec context:
   * V. Asgeirsson, C. Bauer and S. Grimme, Chem. Sci., 2017, 8, 4879.
     DOI: 10.1039/c7sc00601b
   * J. Koopman and S. Grimme, ACS Omega 2019, 4, 12, 15120-15133.
     DOI: 10.1021/acsomega.9b02011
   
   for metadynamics refer to:
   * S. Grimme, J. Chem. Theory Comput., 2019, 155, 2847-2862
     DOI: 10.1021/acs.jctc.9b00143
   
   for SPH calculations refer to:
   * S. Spicher and S. Grimme, J. Chem. Theory Comput., 2021, 17, 1701-1714
     DOI: 10.1021/acs.jctc.0c01306
   
   with help from (in alphabetical order)
   P. Atkinson, C. Bannwarth, F. Bohle, G. Brandenburg, E. Caldeweyher
   M. Checinski, S. Dohm, S. Ehlert, S. Ehrlich, I. Gerasimov, C. Hölzer
   A. Katbashev, J. Koopman, C. Lavigne, S. Lehtola, F. März, M. Müller,
   F. Musil, H. Neugebauer, J. Pisarek, C. Plett, P. Pracht, F. Pultar,
   J. Seibert, P. Shushkov, S. Spicher, M. Stahn, M. Steiner, T. Strunk,
   J. Stückrath, T. Rose, and J. Unsleber
   
 * started run on 2022/10/12 at 01:32:46.465     

           -------------------------------------------------
          |                Calculation Setup                |
           -------------------------------------------------

          program call               : xtb cluster.xyz --gfn2 --ohess
          hostname                   : cn0943
          coordinate file            : cluster.xyz
          omp threads                :                     6

   ID    Z sym.   atoms
    1    1 H      1, 3, 4, 6, 8, 9, 11-13, 15, 16, 18, 19, 21, 22, 24, 25,
                  27, 28, 30, 31, 33, 34, 36, 37, 39, 40, 42, 43, 45, 46, 48,
                  49, 51, 52, 54, 55, 57, 58, 60, 61, 63, 64, 66, 67, 69, 70,
                  72, 73, 75, 76, 78, 79, 81, 82, 84, 85, 87, 88, 90, 91
    2    6 C      2, 5, 7, 10
    3    7 N      14
    4    8 O      17, 20, 23, 26, 29, 32, 35, 38, 41, 44, 47, 50, 53, 56, 59,
                  62, 65, 68, 71, 74, 77, 80, 83, 86, 89

molecular fragmentation (1/2 indicates fragments):
111111111111111122222222222222222222222222222222222222222222222222222222
2222222222222222222
# atoms in fragment 1/2:    16    75
 fragment masses (1/2) :       73.14      450.38
CMA distance (Bohr)    :   4.712
constraining FC (au)   :  0.0500

           -------------------------------------------------
          |                 G F N 2 - x T B                 |
           -------------------------------------------------

        Reference                      10.1021/acs.jctc.8b01176
      * Hamiltonian:
        H0-scaling (s, p, d)           1.850000    2.230000    2.230000
        zeta-weighting                 0.500000
      * Dispersion:
        s8                             2.700000
        a1                             0.520000
        a2                             5.000000
        s9                             5.000000
      * Repulsion:
        kExp                           1.500000    1.000000
        rExp                           1.000000
      * Coulomb:
        alpha                          2.000000
        third order                    shell-resolved
        anisotropic                    true
        a3                             3.000000
        a5                             4.000000
        cn-shift                       1.200000
        cn-exp                         4.000000
        max-rad                        5.000000


          ...................................................
          :                      SETUP                      :
          :.................................................:
          :  # basis functions                 181          :
          :  # atomic orbitals                 181          :
          :  # shells                          121          :
          :  # electrons                       232          :
          :  max. iterations                   250          :
          :  Hamiltonian                  GFN2-xTB          :
          :  restarted?                      false          :
          :  GBSA solvation                  false          :
          :  PC potential                    false          :
          :  electronic temp.          300.0000000     K    :
          :  accuracy                    1.0000000          :
          :  -> integral cutoff          0.2500000E+02      :
          :  -> integral neglect         0.1000000E-07      :
          :  -> SCF convergence          0.1000000E-05 Eh   :
          :  -> wf. convergence          0.1000000E-03 e    :
          :  Broyden damping             0.4000000          :
          ...................................................

 iter      E             dE          RMSdq      gap      omega  full diag
   1   -145.2392481 -0.145239E+03  0.378E+00    8.55       0.0  T
   2   -145.2639840 -0.247359E-01  0.224E+00    9.09       1.0  T
   3   -145.2679735 -0.398944E-02  0.275E-01    8.82       1.0  T
   4   -145.2690380 -0.106456E-02  0.106E-01    8.66       1.0  T
   5   -145.2691782 -0.140173E-03  0.433E-02    8.65       1.0  T
   6   -145.2691917 -0.134790E-04  0.153E-02    8.66       1.0  T
   7   -145.2691928 -0.106564E-05  0.387E-03    8.67       2.7  T
   8   -145.2691930 -0.233332E-06  0.136E-03    8.67       7.7  T
   9   -145.2691930 -0.771604E-08  0.403E-04    8.67      26.0  T
  10   -145.2691930 -0.132320E-08  0.907E-05    8.67     115.5  T

   *** convergence criteria satisfied after 10 iterations ***

         #    Occupation            Energy/Eh            Energy/eV
      -------------------------------------------------------------
         1        2.0000           -0.6937466             -18.8778
       ...           ...                  ...                  ...
       110        2.0000           -0.4234746             -11.5233
       111        2.0000           -0.4222676             -11.4905
       112        2.0000           -0.4182059             -11.3800
       113        2.0000           -0.4109190             -11.1817
       114        2.0000           -0.4100993             -11.1594
       115        2.0000           -0.4022298             -10.9452
       116        2.0000           -0.3698561             -10.0643 (HOMO)
       117                         -0.0513732              -1.3979 (LUMO)
       118                         -0.0203315              -0.5532
       119                         -0.0132668              -0.3610
       120                          0.0021309               0.0580
       121                          0.0224304               0.6104
       ...                                ...                  ...
       181                          0.3641524               9.9091
      -------------------------------------------------------------
                  HL-Gap            0.3184829 Eh            8.6664 eV
             Fermi-level           -0.2106147 Eh           -5.7311 eV

 SCC (total)                   0 d,  0 h,  0 min,  0.108 sec
 SCC setup                      ...        0 min,  0.001 sec (  0.629%)
 Dispersion                     ...        0 min,  0.002 sec (  1.418%)
 classical contributions        ...        0 min,  0.001 sec (  0.664%)
 integral evaluation            ...        0 min,  0.008 sec (  7.079%)
 iterations                     ...        0 min,  0.068 sec ( 63.227%)
 molecular gradient             ...        0 min,  0.028 sec ( 26.375%)
 printout                       ...        0 min,  0.001 sec (  0.534%)

         :::::::::::::::::::::::::::::::::::::::::::::::::::::
         ::                     SUMMARY                     ::
         :::::::::::::::::::::::::::::::::::::::::::::::::::::
         :: total energy            -144.262140127115 Eh    ::
         :: gradient norm              0.000362197041 Eh/a0 ::
         :: HOMO-LUMO gap              8.666360760263 eV    ::
         ::.................................................::
         :: SCC energy              -145.269192996532 Eh    ::
         :: -> isotropic ES            0.775202534951 Eh    ::
         :: -> anisotropic ES         -0.137269365044 Eh    ::
         :: -> anisotropic XC         -0.003163431364 Eh    ::
         :: -> dispersion             -0.069960918924 Eh    ::
         :: repulsion energy           1.000699768358 Eh    ::
         :: add. restraining           0.000000000000 Eh    ::
         :: total charge               0.000000000000 e     ::
         :::::::::::::::::::::::::::::::::::::::::::::::::::::

      ----------------------------------------------------------- 
     |                   =====================                   |
     |                        A N C O P T                        |
     |                   =====================                   |
     |               Approximate Normal Coordinate               |
     |                Rational Function Optimizer                |
      ----------------------------------------------------------- 

          ...................................................
          :                      SETUP                      :
          :.................................................:
          :   optimization level            normal          :
          :   max. optcycles                   273          :
          :   ANC micro-cycles                  20          :
          :   degrees of freedom               267          :
          :.................................................:
          :   RF solver                   davidson          :
          :   write xtbopt.log                true          :
          :   linear?                        false          :
          :   energy convergence         0.5000000E-05 Eh   :
          :   grad. convergence          0.1000000E-02 Eh/α :
          :   maximium RF displ.         1.0000000          :
          :   Hlow (freq-cutoff)         0.1000000E-01      :
          :   Hmax (freq-cutoff)         5.0000000          :
          :   S6 in model hess.         20.0000000          :
          ...................................................

generating ANC from model Hessian ...
Using Lindh-Hessian (1995)
 Shifting diagonal of input Hessian by   1.011776812751956E-002
 Lowest  eigenvalues of input Hessian
    0.010000    0.000000    0.000000    0.000000    0.000000    0.000000
    0.000000    0.010125    0.010184    0.010265    0.010340    0.010354
    0.010426    0.010455    0.010511    0.010545    0.010599    0.010650
 Highest eigenvalues
    1.413460    1.416336    1.416741    1.419940    1.421252    1.425997
 

........................................................................
.............................. CYCLE    1 ..............................
........................................................................
   1   -145.2691930 -0.145269E+03  0.241E-05    8.67       0.0  T
   2   -145.2691930 -0.554223E-11  0.128E-05    8.67     817.7  T
   3   -145.2691930 -0.795808E-12  0.376E-06    8.67    2786.6  T
     SCC iter.                  ...        0 min,  0.019 sec
     gradient                   ...        0 min,  0.029 sec
 * total energy  :  -144.2621401 Eh     change       -0.7827339E-10 Eh
   gradient norm :     0.0003621 Eh/α   predicted     0.0000000E+00 (-100.00%)
   displ. norm   :     0.0096787 α      lambda       -0.1224103E-06
   maximum displ.:     0.0046281 α      in ANC's #4, #1, #45, ...

   *** GEOMETRY OPTIMIZATION CONVERGED AFTER 1 ITERATIONS ***

------------------------------------------------------------------------
 total energy gain   :        -0.0000000 Eh       -0.0000 kcal/mol
 total RMSD          :         0.0000000 a0        0.0000 Å
 total power (kW/mol):        -0.0000002 (step)   -0.0000 (real)
------------------------------------------------------------------------

 ANCopt (total)                0 d,  0 h,  0 min,  0.269 sec
 optimizer setup                ...        0 min,  0.001 sec (  0.238%)
 model hessian                  ...        0 min,  0.201 sec ( 74.785%)
 ANC generation                 ...        0 min,  0.007 sec (  2.722%)
 coordinate transformation      ...        0 min,  0.000 sec (  0.029%)
 single point calculation       ...        0 min,  0.057 sec ( 21.302%)
 optimization log               ...        0 min,  0.002 sec (  0.729%)
 hessian update                 ...        0 min,  0.000 sec (  0.002%)
 rational function              ...        0 min,  0.000 sec (  0.082%)

================
 final structure:
================
91
 xtb: 6.5.1 (579679a)
H           -0.96067382130000        1.80793462270000       -0.18568635140000
C           -0.33775378670000        1.40123685720000        0.60129361900000
H            0.62829331510000        1.13543308660000        0.19134541620000
H           -0.19489185730000        2.16349304300000        1.35429455030000
C           -1.00985077930000        0.17869310000000        1.21132239860000
H           -0.36932905740000       -0.21849499670000        2.00229789360000
C           -2.33896567670000        0.59274220810000        1.84620626200000
H           -3.00511453820000        0.99591130250000        1.07693227940000
H           -2.14109729330000        1.38938631770000        2.57441563930000
C           -1.21401327070000       -0.89914248410000        0.15474230600000
H           -1.64571603380000       -1.78157866410000        0.60420281850000
H           -0.26701911490000       -1.17369909970000       -0.29349226250000
H           -1.87769877000000       -0.53392136910000       -0.61998865640000
N           -3.01721473780000       -0.55492518140000        2.45927598190000
H           -2.36865641070000       -1.02511031570000        3.08664630410000
H           -3.79530575640000       -0.22770147630000        3.02233347260000
O           -1.76252346540000        3.79406513610000       -1.20745811080000
H           -1.52772197360000        4.06124806010000       -0.27555862950000
H           -2.20360225930000        4.55422873250000       -1.58877929760000
O           -2.30191265420000        1.29561471700000       -2.45010579040000
H           -2.25070022090000        2.14847803820000       -1.99395673870000
H           -1.38859698410000        0.96432854150000       -2.50944048040000
O           -2.51802514810000       -2.82446205390000       -2.42569968130000
H           -2.45811294920000       -3.30322654490000       -1.58020843740000
H           -3.07971858930000       -2.04733282360000       -2.24783521220000
O           -0.54816900640000        3.17681559580000        3.53972279870000
H           -0.35012016170000        3.83365358980000        4.20862433780000
H            0.28882303400000        2.70385044940000        3.37317423070000
O           -2.49522471250000       -4.00868290630000        0.09591251730000
H           -3.19439213240000       -3.32463431060000        0.33844608560000
H           -2.93089941420000       -4.86117630540000        0.12659271060000
O           -0.11212269430000       -2.27919360670000       -3.22936336090000
H           -1.05717869300000       -2.43887647100000       -2.93953608800000
H           -0.08306005330000       -2.51901423440000       -4.15685057240000
O            2.76765262200000       -2.09300954210000       -2.61669259470000
H            2.95059112140000       -1.36799002190000       -3.26103429250000
H            1.87629376140000       -2.39458583420000       -2.82898298170000
O            2.94367790910000       -3.84303451650000       -0.37287856830000
H            2.09006463390000       -4.23783504220000       -0.62574718870000
H            3.21836578440000       -3.33347616810000       -1.14591398460000
O            2.81331468390000        0.13975126350000       -4.04280145330000
H            3.44401420820000        0.69540554410000       -3.54880164120000
H            1.93475673080000        0.43953428030000       -3.76727897240000
O            4.28530607280000        1.59733826000000       -2.25469415650000
H            4.58640837700000        1.08317209730000       -1.50166789900000
H            3.75811320450000        2.32761489790000       -1.89090453150000
O            1.86989460580000        1.91875468950000        2.97970406610000
H            2.47061959700000        1.78565415610000        2.21528925950000
H            1.68053762390000        1.01762814300000        3.28137996440000
O           -1.06642464020000        4.64339708200000        1.18297749370000
H           -0.09294642150000        4.74759578660000        1.17420758300000
H           -1.22627952440000        4.09676130590000        1.96787211770000
O           -4.04559823160000       -0.61730274210000       -1.83248777770000
H           -4.81818368200000       -0.48065953460000       -2.38151796070000
H           -3.42987268950000        0.12870422570000       -2.03312911790000
O            0.35322485020000        0.35550822510000       -2.60533065040000
H            0.88202599760000        0.20187961000000       -1.79458689630000
H            0.13334112890000       -0.54220280510000       -2.91641131710000
O            1.63371631690000        4.45331798280000        1.37485837640000
H            2.02946435870000        4.14980573610000        0.54352089710000
H            1.77563130950000        3.74617001090000        2.01496623010000
O            3.37656392960000        1.53215971530000        0.74941901650000
H            3.23688731190000        2.31747620810000        0.20710176760000
H            2.95167001390000        0.79677542320000        0.26496678770000
O           -0.82009343440000       -1.88994468470000        4.16791054540000
H           -0.74869316440000       -2.27687199170000        5.04110572290000
H            0.02610104590000       -1.42971251400000        3.99541500930000
O            2.72028462710000        3.61521841240000       -1.08721836800000
H            3.07834914070000        4.43638249600000       -1.42767963070000
H            1.88144052500000        3.44274557500000       -1.60823826200000
O           -0.47632299800000       -3.66605948710000        2.05111339430000
H           -1.22603847740000       -3.78335217580000        1.44940621170000
H           -0.77647417200000       -3.09828511300000        2.77960729380000
O            1.67933897980000       -2.23213177960000        1.31044052820000
H            2.28949675650000       -2.85446395650000        0.85011246540000
H            0.87769931740000       -2.76911877740000        1.49788043810000
O            1.65275561970000       -0.84798210530000        3.56708023050000
H            2.43770098330000       -1.08410766010000        4.06336581390000
H            1.73222698480000       -1.31335858520000        2.69750806240000
O            2.09417074530000       -0.42302292170000       -0.63359223680000
H            1.85757946730000       -1.01008026290000        0.11543646010000
H            2.51429818380000       -1.01643803650000       -1.29377475560000
O            0.34511725510000       -4.28077644580000       -1.18989105330000
H            0.18383159870000       -3.60768824200000       -1.86401315330000
H           -0.40651843310000       -4.25540471380000       -0.59100161750000
O            0.57659837090000        3.16150562830000       -2.47187835450000
H           -0.24450657050000        3.42723651230000       -2.01267300940000
H            0.49445498960000        2.21336983520000       -2.64382376000000
O           -4.20861641000000       -2.13335449200000        0.61745251870000
H           -3.78348913670000       -1.56121206520000        1.31276644520000
H           -4.24641406170000       -1.58019283690000       -0.17573258930000
 
 Bond Distances (Angstroems)
 ---------------------------
H1-C2=1.0829         C2-H1=1.0829         C2-H3=1.0826         C2-H4=1.0810         C2-C5=1.5227         H3-C2=1.0826         
H4-C2=1.0810         C5-C2=1.5227         C5-H6=1.0926         C5-C7=1.5301         C5-C10=1.5231        H6-C5=1.0926         
C7-C5=1.5301         C7-H8=1.0946         C7-H9=1.0973         C7-N14=1.4673        H8-C7=1.0946         H9-C7=1.0973         
C10-C5=1.5231        C10-H11=1.0803       C10-H12=1.0831       C10-H13=1.0835       H11-C10=1.0803       H12-C10=1.0831       
H13-C10=1.0835       N14-C7=1.4673        N14-H15=1.0175       N14-H16=1.0147       H15-N14=1.0175       H16-N14=1.0147       
O17-H18=0.9975       O17-H19=0.9580       H18-O17=0.9975       H19-O17=0.9580       O20-H21=0.9685       O20-H22=0.9734       
H21-O20=0.9685       H22-O20=0.9734       O23-H24=0.9735       O23-H25=0.9752       H24-O23=0.9735       H25-O23=0.9752       
O26-H27=0.9582       O26-H28=0.9757       H27-O26=0.9582       H28-O26=0.9757       O29-H30=1.0078       O29-H31=0.9579       
H30-O29=1.0078       H31-O29=0.9579       O32-H33=1.0013       O32-H34=0.9584       H33-O32=1.0013       H34-O32=0.9584       
O35-H36=0.9871       O35-H37=0.9646       H36-O35=0.9871       H37-O35=0.9646       O38-H39=0.9739       O38-H40=0.9658       
H39-O38=0.9739       H40-O38=0.9658       O41-H42=0.9750       O41-H43=0.9683       H42-O41=0.9750       H43-O41=0.9683       
O44-H45=0.9602       O44-H46=0.9714       H45-O44=0.9602       H46-O44=0.9714       O47-H48=0.9813       O47-H49=0.9690       
H48-O47=0.9813       H49-O47=0.9690       O50-H51=0.9791       O50-H52=0.9698       H51-O50=0.9791       H52-O50=0.9698       
O53-H54=0.9576       O53-H55=0.9879       H54-O53=0.9576       H55-O53=0.9879       O56-H57=0.9801       O56-H58=0.9752       
H57-O56=0.9801       H58-O56=0.9752       O59-H60=0.9695       O59-H61=0.9643       H60-O59=0.9695       H61-O59=0.9643       
O62-H63=0.9645       O62-H64=0.9778       H63-O62=0.9645       H64-O62=0.9778       O65-H66=0.9577       O65-H67=0.9786       
H66-O65=0.9577       H67-O65=0.9786       O68-H69=0.9583       O68-H70=1.0024       H69-O68=0.9583       H70-O68=1.0024       
O71-H72=0.9684       O71-H73=0.9712       H72-O71=0.9684       H73-O71=0.9712       O74-H75=0.9856       O74-H76=0.9829       
H75-O74=0.9856       H76-O74=0.9829       O77-H78=0.9582       O77-H79=0.9895       H78-O77=0.9582       H79-O77=0.9895       
O80-H81=0.9806       O80-H82=0.9821       H81-O80=0.9806       H82-O80=0.9821       O83-H84=0.9662       O83-H85=0.9614       
H84-O83=0.9662       H85-O83=0.9614       O86-H87=0.9776       O86-H88=0.9671       H87-O86=0.9776       H88-O86=0.9671       
O89-H90=0.9958       O89-H91=0.9678       H90-O89=0.9958       H91-O89=0.9678       
 C  H  Rav=1.0864 sigma=0.0061  Rmin=1.0803  Rmax=1.0973     9
 C  C  Rav=1.5253 sigma=0.0034  Rmin=1.5227  Rmax=1.5301     3
 N  H  Rav=1.0161 sigma=0.0014  Rmin=1.0147  Rmax=1.0175     2
 N  C  Rav=1.4673 sigma=0.0000  Rmin=1.4673  Rmax=1.4673     1
 O  H  Rav=0.9740 sigma=0.0125  Rmin=0.9576  Rmax=1.0078    50
 
 selected bond angles (degree)
 --------------------
H3-C2-H1=109.29                H4-C2-H1=108.51                H4-C2-H3=108.60                C5-C2-H1=109.80                
C5-C2-H3=110.39                C5-C2-H4=110.21                H6-C5-C2=108.85                C7-C5-C2=109.41                
C7-C5-H6=107.89                C10-C5-C2=110.45               C10-C5-H6=108.88               C10-C5-C7=111.28               
H8-C7-C5=109.68                H9-C7-C5=108.37                H9-C7-H8=107.98                N14-C7-C5=111.30               
N14-C7-H8=107.48               N14-C7-H9=111.96               H11-C10-C5=110.06              H12-C10-C5=110.44              
H12-C10-H11=108.33             H13-C10-C5=109.85              H13-C10-H11=109.15             H13-C10-H12=108.97             
 
 selected dihedral angles (degree)
 ---------------------------------
H6-C5-C2-H1=180.01            H6-C5-C2-H3= 59.45            H6-C5-C2-H4=299.48            C7-C5-C2-H1=297.69            
C7-C5-C2-H3=177.13            C7-C5-C2-H4= 57.17            C10-C5-C2-H1= 60.52           C10-C5-C2-H3=299.96           
C10-C5-C2-H4=179.99           H8-C7-C5-C2= 61.73            H8-C7-C5-H6=180.02            H8-C7-C5-C10=299.40           
H9-C7-C5-C2=304.07            H9-C7-C5-H6= 62.35            H9-C7-C5-C10=181.73           N14-C7-C5-C2=180.54           
N14-C7-C5-H6=298.82           N14-C7-C5-C10= 58.20          H11-C10-C5-C2=177.18          H11-C10-C5-H6= 57.71          
H11-C10-C5-C7=298.91          H12-C10-C5-C2= 57.61          H12-C10-C5-H6=298.14          H12-C10-C5-C7=179.35          
H13-C10-C5-C2=297.39          H13-C10-C5-H6=177.91          H13-C10-C5-C7= 59.12          
 
 CMA Distance (Angstroems)
 ---------------------------
R(CMA):  2.4936
           -------------------------------------------------
          |                Final Singlepoint                |
           -------------------------------------------------

          ...................................................
          :                      SETUP                      :
          :.................................................:
          :  # basis functions                 181          :
          :  # atomic orbitals                 181          :
          :  # shells                          121          :
          :  # electrons                       232          :
          :  max. iterations                   250          :
          :  Hamiltonian                  GFN2-xTB          :
          :  restarted?                      false          :
          :  GBSA solvation                  false          :
          :  PC potential                    false          :
          :  electronic temp.          300.0000000     K    :
          :  accuracy                    1.0000000          :
          :  -> integral cutoff          0.2500000E+02      :
          :  -> integral neglect         0.1000000E-07      :
          :  -> SCF convergence          0.1000000E-05 Eh   :
          :  -> wf. convergence          0.1000000E-03 e    :
          :  Broyden damping             0.4000000          :
          ...................................................

 iter      E             dE          RMSdq      gap      omega  full diag
   1   -145.2691930 -0.145269E+03  0.150E-06    8.67       0.0  T
   2   -145.2691930 -0.198952E-12  0.892E-07    8.67   11755.9  T
   3   -145.2691930  0.625278E-12  0.338E-07    8.67   31008.6  T

   *** convergence criteria satisfied after 3 iterations ***

         #    Occupation            Energy/Eh            Energy/eV
      -------------------------------------------------------------
         1        2.0000           -0.6937477             -18.8778
       ...           ...                  ...                  ...
       110        2.0000           -0.4234761             -11.5234
       111        2.0000           -0.4222679             -11.4905
       112        2.0000           -0.4182062             -11.3800
       113        2.0000           -0.4109199             -11.1817
       114        2.0000           -0.4101002             -11.1594
       115        2.0000           -0.4022308             -10.9453
       116        2.0000           -0.3698565             -10.0643 (HOMO)
       117                         -0.0513742              -1.3980 (LUMO)
       118                         -0.0203323              -0.5533
       119                         -0.0132679              -0.3610
       120                          0.0021302               0.0580
       121                          0.0224294               0.6103
       ...                                ...                  ...
       181                          0.3641511               9.9091
      -------------------------------------------------------------
                  HL-Gap            0.3184823 Eh            8.6663 eV
             Fermi-level           -0.2106153 Eh           -5.7311 eV

 SCC (total)                   0 d,  0 h,  0 min,  0.058 sec
 SCC setup                      ...        0 min,  0.001 sec (  0.925%)
 Dispersion                     ...        0 min,  0.001 sec (  2.112%)
 classical contributions        ...        0 min,  0.000 sec (  0.253%)
 integral evaluation            ...        0 min,  0.007 sec ( 12.521%)
 iterations                     ...        0 min,  0.020 sec ( 34.201%)
 molecular gradient             ...        0 min,  0.028 sec ( 49.012%)
 printout                       ...        0 min,  0.000 sec (  0.855%)

         :::::::::::::::::::::::::::::::::::::::::::::::::::::
         ::                     SUMMARY                     ::
         :::::::::::::::::::::::::::::::::::::::::::::::::::::
         :: total energy            -144.262140127193 Eh    ::
         :: gradient norm              0.000362072492 Eh/a0 ::
         :: HOMO-LUMO gap              8.666345302286 eV    ::
         ::.................................................::
         :: SCC energy              -145.269192996610 Eh    ::
         :: -> isotropic ES            0.775206700022 Eh    ::
         :: -> anisotropic ES         -0.137268717904 Eh    ::
         :: -> anisotropic XC         -0.003163336789 Eh    ::
         :: -> dispersion             -0.069960957975 Eh    ::
         :: repulsion energy           1.000699768358 Eh    ::
         :: add. restraining           0.000000000000 Eh    ::
         :: total charge               0.000000000000 e     ::
         :::::::::::::::::::::::::::::::::::::::::::::::::::::

           ------------------------------------------------- 
          |                Numerical Hessian                |
           ------------------------------------------------- 
step length          :   0.00500
SCC accuracy         :   0.30000
Hessian scale factor :   1.00000
frozen atoms in %    :   0.00000    0
RMS gradient         :   0.00036
estimated CPU  time      9.09 min
estimated wall time      1.52 min

writing file <hessian>.

 projected vibrational frequencies (cm⁻¹)
eigval :       -0.00    -0.00    -0.00     0.00     0.00     0.00
eigval :       22.84    29.29    31.74    35.29    43.98    45.98
eigval :       48.13    50.51    52.74    55.25    57.87    59.42
eigval :       62.24    63.31    64.22    67.26    70.11    72.00
eigval :       72.57    74.35    77.70    80.22    84.42    88.81
eigval :       89.16    90.63    91.89    94.23    96.73   101.69
eigval :      106.26   108.82   113.64   117.00   121.32   126.54
eigval :      132.63   134.52   137.11   139.77   142.58   151.14
eigval :      152.45   157.13   163.85   167.06   170.02   175.19
eigval :      176.63   181.09   190.99   197.54   200.21   205.21
eigval :      208.80   217.29   220.38   223.67   228.70   232.60
eigval :      233.09   235.85   240.96   245.36   249.68   257.41
eigval :      259.72   268.58   270.15   273.94   278.14   283.45
eigval :      294.68   296.03   304.79   309.25   311.39   314.38
eigval :      318.93   323.42   333.62   338.76   348.05   358.61
eigval :      363.56   373.99   376.25   379.39   383.96   387.90
eigval :      395.84   396.83   403.13   405.51   416.56   422.01
eigval :      430.16   434.27   446.74   448.68   451.24   454.63
eigval :      464.46   465.13   468.03   471.26   476.84   484.28
eigval :      496.04   499.61   509.24   516.82   527.20   529.35
eigval :      531.43   534.05   545.64   552.28   554.95   564.62
eigval :      570.42   576.39   582.16   590.55   603.79   607.18
eigval :      609.25   624.40   625.35   631.95   636.38   646.20
eigval :      654.64   655.87   665.87   666.63   671.03   689.20
eigval :      696.94   708.93   733.13   742.10   745.96   749.08
eigval :      755.55   773.63   793.74   808.99   812.18   837.92
eigval :      853.94   859.70   879.95   894.09   909.48   913.33
eigval :      932.28   952.03   958.90   963.91   977.36   979.32
eigval :      985.79  1040.30  1089.53  1103.65  1176.11  1193.11
eigval :     1218.48  1269.45  1310.66  1338.66  1374.02  1395.36
eigval :     1411.34  1479.98  1488.96  1490.53  1491.96  1501.66
eigval :     1506.07  1510.51  1512.99  1514.95  1518.66  1519.79
eigval :     1526.81  1528.21  1531.82  1534.40  1535.69  1537.81
eigval :     1539.74  1541.40  1543.17  1545.29  1550.28  1552.06
eigval :     1553.22  1555.20  1560.95  1563.29  1564.87  1567.21
eigval :     1577.89  1590.79  2721.93  2837.53  2849.57  2907.46
eigval :     2922.43  2932.14  2951.64  2974.92  3043.03  3080.09
eigval :     3090.99  3092.05  3093.64  3097.17  3101.66  3105.80
eigval :     3127.78  3131.36  3148.66  3190.05  3197.15  3250.79
eigval :     3267.63  3276.60  3278.79  3286.34  3308.87  3322.12
eigval :     3335.11  3343.10  3349.27  3369.30  3379.90  3383.42
eigval :     3387.58  3403.01  3404.44  3412.08  3440.77  3460.13
eigval :     3460.27  3467.09  3467.94  3475.95  3496.63  3506.70
eigval :     3510.59  3537.44  3555.89  3559.17  3563.53  3607.49
eigval :     3632.38  3665.51  3665.80  3665.90  3668.21  3670.94
eigval :     3671.22  3673.84  3675.19
           -------------------------------------------------
          |                Property Printout                |
           -------------------------------------------------

    * Orbital Energies and Occupations

         #    Occupation            Energy/Eh            Energy/eV
      -------------------------------------------------------------
         1        2.0000           -0.6937477             -18.8778
       ...           ...                  ...                  ...
       104        2.0000           -0.4311800             -11.7330
       105        2.0000           -0.4302280             -11.7071
       106        2.0000           -0.4289226             -11.6716
       107        2.0000           -0.4283440             -11.6558
       108        2.0000           -0.4280292             -11.6473
       109        2.0000           -0.4244382             -11.5496
       110        2.0000           -0.4234761             -11.5234
       111        2.0000           -0.4222679             -11.4905
       112        2.0000           -0.4182062             -11.3800
       113        2.0000           -0.4109199             -11.1817
       114        2.0000           -0.4101002             -11.1594
       115        2.0000           -0.4022308             -10.9453
       116        2.0000           -0.3698565             -10.0643 (HOMO)
       117                         -0.0513742              -1.3980 (LUMO)
       118                         -0.0203323              -0.5533
       119                         -0.0132679              -0.3610
       120                          0.0021302               0.0580
       121                          0.0224294               0.6103
       122                          0.0313058               0.8519
       123                          0.0424874               1.1561
       124                          0.0472518               1.2858
       125                          0.0557128               1.5160
       126                          0.0701085               1.9077
       127                          0.0852460               2.3197
       ...                                ...                  ...
       181                          0.3641511               9.9091
      -------------------------------------------------------------
                  HL-Gap            0.3184823 Eh            8.6663 eV
             Fermi-level           -0.2106153 Eh           -5.7311 eV

     #   Z          covCN         q      C6AA      α(0)
     1   1 H        0.925     0.055     2.262     2.352
     2   6 C        3.760    -0.162    23.688     6.938
     3   1 H        0.925     0.062     2.173     2.305
     4   1 H        0.926     0.063     2.164     2.300
     5   6 C        3.851    -0.027    21.023     6.522
     6   1 H        0.924     0.048     2.346     2.395
     7   6 C        3.736    -0.002    20.707     6.494
     8   1 H        0.924     0.036     2.509     2.477
     9   1 H        0.924     0.029     2.600     2.522
    10   6 C        3.758    -0.161    23.670     6.936
    11   1 H        0.926     0.060     2.199     2.319
    12   1 H        0.925     0.059     2.209     2.324
    13   1 H        0.925     0.057     2.235     2.338
    14   7 N        2.632    -0.361    29.306     8.040
    15   1 H        0.860     0.176     1.235     1.741
    16   1 H        0.860     0.136     1.504     1.921
    17   8 O        1.605    -0.631    25.955     6.876
    18   1 H        0.800     0.346     0.597     1.214
    19   1 H        0.806     0.281     0.782     1.389
    20   8 O        1.608    -0.637    26.090     6.894
    21   1 H        0.804     0.315     0.677     1.293
    22   1 H        0.804     0.324     0.654     1.271
    23   8 O        1.610    -0.640    26.166     6.904
    24   1 H        0.804     0.322     0.658     1.275
    25   1 H        0.804     0.323     0.656     1.273
    26   8 O        1.609    -0.612    25.465     6.811
    27   1 H        0.806     0.277     0.796     1.401
    28   1 H        0.804     0.327     0.644     1.261
    29   8 O        1.603    -0.644    26.273     6.918
    30   1 H        0.800     0.344     0.604     1.221
    31   1 H        0.806     0.281     0.780     1.387
    32   8 O        1.604    -0.641    26.202     6.908
    33   1 H        0.801     0.346     0.599     1.216
    34   1 H        0.806     0.286     0.763     1.372
    35   8 O        1.607    -0.642    26.219     6.911
    36   1 H        0.802     0.331     0.636     1.253
    37   1 H        0.805     0.308     0.697     1.311
    38   8 O        1.609    -0.620    25.682     6.840
    39   1 H        0.804     0.324     0.654     1.270
    40   1 H        0.805     0.310     0.690     1.305
    41   8 O        1.608    -0.629    25.903     6.869
    42   1 H        0.804     0.323     0.656     1.272
    43   1 H        0.804     0.308     0.699     1.313
    44   8 O        1.609    -0.616    25.566     6.824
    45   1 H        0.805     0.299     0.725     1.337
    46   1 H        0.804     0.317     0.673     1.288
    47   8 O        1.607    -0.659    26.647     6.967
    48   1 H        0.803     0.324     0.654     1.270
    49   1 H        0.804     0.307     0.700     1.314
    50   8 O        1.608    -0.633    25.979     6.879
    51   1 H        0.803     0.325     0.652     1.268
    52   1 H        0.804     0.313     0.684     1.299
    53   8 O        1.607    -0.622    25.723     6.845
    54   1 H        0.806     0.282     0.777     1.384
    55   1 H        0.802     0.341     0.611     1.228
    56   8 O        1.606    -0.666    26.831     6.991
    57   1 H        0.803     0.337     0.620     1.237
    58   1 H        0.804     0.323     0.655     1.272
    59   8 O        1.609    -0.626    25.813     6.857
    60   1 H        0.804     0.310     0.691     1.305
    61   1 H        0.805     0.316     0.674     1.290
    62   8 O        1.608    -0.644    26.262     6.917
    63   1 H        0.805     0.309     0.695     1.310
    64   1 H        0.803     0.325     0.651     1.268
    65   8 O        1.609    -0.608    25.389     6.801
    66   1 H        0.806     0.279     0.788     1.394
    67   1 H        0.803     0.331     0.635     1.252
    68   8 O        1.604    -0.640    26.172     6.904
    69   1 H        0.806     0.289     0.754     1.363
    70   1 H        0.801     0.350     0.589     1.206
    71   8 O        1.609    -0.630    25.926     6.872
    72   1 H        0.804     0.308     0.698     1.313
    73   1 H        0.804     0.314     0.682     1.297
    74   8 O        1.605    -0.668    26.880     6.997
    75   1 H        0.802     0.331     0.635     1.252
    76   1 H        0.802     0.335     0.626     1.243
    77   8 O        1.607    -0.625    25.791     6.854
    78   1 H        0.806     0.284     0.770     1.378
    79   1 H        0.802     0.347     0.597     1.213
    80   8 O        1.605    -0.671    26.950     7.006
    81   1 H        0.803     0.331     0.635     1.252
    82   1 H        0.803     0.327     0.647     1.263
    83   8 O        1.610    -0.620    25.675     6.839
    84   1 H        0.805     0.312     0.686     1.301
    85   1 H        0.805     0.309     0.695     1.310
    86   8 O        1.611    -0.633    25.997     6.882
    87   1 H        0.803     0.326     0.647     1.263
    88   1 H        0.805     0.323     0.656     1.272
    89   8 O        1.607    -0.636    26.072     6.891
    90   1 H        0.804     0.318     0.669     1.285
    91   1 H        0.805     0.313     0.684     1.299

 Mol. C6AA /au·bohr⁶  :      43360.288373
 Mol. C8AA /au·bohr⁸  :     802521.206266
 Mol. α(0) /au        :        296.704278


Wiberg/Mayer (AO) data.
largest (>0.10) Wiberg bond orders for each atom

 ---------------------------------------------------------------------------
     #   Z sym  total        # sym  WBO       # sym  WBO       # sym  WBO
 ---------------------------------------------------------------------------
     1   1 H    0.997 --     2 C    0.975
     2   6 C    3.990 --     5 C    1.008     1 H    0.975     3 H    0.973
                             4 H    0.972
     3   1 H    0.996 --     2 C    0.973
     4   1 H    0.996 --     2 C    0.972
     5   6 C    3.994 --    10 C    1.010     2 C    1.008     7 C    0.995
                             6 H    0.961
     6   1 H    0.997 --     5 C    0.961
     7   6 C    3.977 --    14 N    1.006     5 C    0.995     8 H    0.974
                             9 H    0.971
     8   1 H    0.998 --     7 C    0.974
     9   1 H    0.999 --     7 C    0.971
    10   6 C    3.992 --     5 C    1.010    13 H    0.975    12 H    0.974
                            11 H    0.971
    11   1 H    0.996 --    10 C    0.971
    12   1 H    0.996 --    10 C    0.974
    13   1 H    0.997 --    10 C    0.975
    14   7 N    3.094 --     7 C    1.006    16 H    0.969    15 H    0.940
    15   1 H    0.969 --    14 N    0.940
    16   1 H    0.981 --    14 N    0.969
    17   8 O    1.865 --    19 H    0.916    18 H    0.785
    18   1 H    0.880 --    17 O    0.785
    19   1 H    0.921 --    17 O    0.916
    20   8 O    1.858 --    21 H    0.864    22 H    0.849
    21   1 H    0.901 --    20 O    0.864
    22   1 H    0.895 --    20 O    0.849
    23   8 O    1.885 --    24 H    0.848    25 H    0.841    33 H    0.100
    24   1 H    0.896 --    23 O    0.848
    25   1 H    0.896 --    23 O    0.841
    26   8 O    1.840 --    27 H    0.921    28 H    0.845
    27   1 H    0.923 --    26 O    0.921
    28   1 H    0.893 --    26 O    0.845
    29   8 O    1.862 --    31 H    0.916    30 H    0.765
    30   1 H    0.882 --    29 O    0.765    89 O    0.110
    31   1 H    0.921 --    29 O    0.916
    32   8 O    1.863 --    34 H    0.913    33 H    0.773
    33   1 H    0.880 --    32 O    0.773    23 O    0.100
    34   1 H    0.918 --    32 O    0.913
    35   8 O    1.866 --    37 H    0.885    36 H    0.813
    36   1 H    0.891 --    35 O    0.813
    37   1 H    0.905 --    35 O    0.885
    38   8 O    1.875 --    40 H    0.882    39 H    0.857
    39   1 H    0.895 --    38 O    0.857
    40   1 H    0.904 --    38 O    0.882
    41   8 O    1.872 --    43 H    0.875    42 H    0.850
    42   1 H    0.896 --    41 O    0.850
    43   1 H    0.905 --    41 O    0.875
    44   8 O    1.850 --    45 H    0.904    46 H    0.854
    45   1 H    0.911 --    44 O    0.904
    46   1 H    0.900 --    44 O    0.854
    47   8 O    1.819 --    49 H    0.868    48 H    0.828
    48   1 H    0.895 --    47 O    0.828
    49   1 H    0.906 --    47 O    0.868
    50   8 O    1.878 --    52 H    0.868    51 H    0.839
    51   1 H    0.895 --    50 O    0.839
    52   1 H    0.902 --    50 O    0.868
    53   8 O    1.865 --    54 H    0.915    55 H    0.806
    54   1 H    0.920 --    53 O    0.915
    55   1 H    0.884 --    53 O    0.806
    56   8 O    1.854 --    58 H    0.838    57 H    0.828
    57   1 H    0.887 --    56 O    0.828
    58   1 H    0.895 --    56 O    0.838
    59   8 O    1.854 --    61 H    0.882    60 H    0.861
    60   1 H    0.904 --    59 O    0.861
    61   1 H    0.900 --    59 O    0.882
    62   8 O    1.852 --    63 H    0.875    64 H    0.835
    63   1 H    0.905 --    62 O    0.875
    64   1 H    0.894 --    62 O    0.835
    65   8 O    1.861 --    66 H    0.917    67 H    0.837
    66   1 H    0.922 --    65 O    0.917
    67   1 H    0.890 --    65 O    0.837
    68   8 O    1.878 --    69 H    0.910    70 H    0.772
    69   1 H    0.916 --    68 O    0.910
    70   1 H    0.878 --    68 O    0.772    86 O    0.102
    71   8 O    1.860 --    72 H    0.862    73 H    0.860
    72   1 H    0.905 --    71 O    0.862
    73   1 H    0.902 --    71 O    0.860
    74   8 O    1.880 --    76 H    0.818    75 H    0.811
    75   1 H    0.890 --    74 O    0.811
    76   1 H    0.888 --    74 O    0.818
    77   8 O    1.873 --    78 H    0.914    79 H    0.804
    78   1 H    0.919 --    77 O    0.914
    79   1 H    0.880 --    77 O    0.804
    80   8 O    1.868 --    81 H    0.822    82 H    0.820
    81   1 H    0.890 --    80 O    0.822
    82   1 H    0.893 --    80 O    0.820
    83   8 O    1.841 --    85 H    0.890    84 H    0.870
    84   1 H    0.903 --    83 O    0.870
    85   1 H    0.905 --    83 O    0.890
    86   8 O    1.891 --    88 H    0.864    87 H    0.834    70 H    0.102
    87   1 H    0.893 --    86 O    0.834
    88   1 H    0.896 --    86 O    0.864
    89   8 O    1.898 --    91 H    0.874    90 H    0.802    30 H    0.110
    90   1 H    0.899 --    89 O    0.802
    91   1 H    0.902 --    89 O    0.874
 ---------------------------------------------------------------------------

Topologies differ in total number of bonds
Writing topology from bond orders to xtbtopo.mol

molecular dipole:
                 x           y           z       tot (Debye)
 q only:       -1.387      -0.012       0.418
   full:       -1.873       0.136       0.892       5.285
molecular quadrupole (traceless):
                xx          xy          yy          xz          yz          zz
 q only:       -4.107       8.124      -6.831      12.501      -8.653      10.938
  q+dip:       -7.116      10.397     -11.595      17.968      -9.976      18.711
   full:       -7.275      10.708     -11.242      17.464     -10.334      18.518

           -------------------------------------------------
          |                Geometry Summary                 |
           -------------------------------------------------

      molecular mass/u    :      523.5191556
   center of mass at/Å    :        0.0728387      -0.0313441      -0.0545486
  moments of inertia/u·Å² :        0.5067290E+04   0.5952524E+04   0.6677186E+04
rotational constants/cm⁻¹ :        0.3326755E-02   0.2832014E-02   0.2524661E-02

 * 62 selected distances

     #   Z          #   Z                                           value/Å
     1   1 H        2   6 C                                       1.0829451
     2   6 C        3   1 H                                       1.0825693
     2   6 C        4   1 H                                       1.0809508
     2   6 C        5   6 C                                       1.5226500
     5   6 C        6   1 H                                       1.0925516
     5   6 C        7   6 C                                       1.5300526 (max)
     7   6 C        8   1 H                                       1.0945695
     7   6 C        9   1 H                                       1.0973071
     5   6 C       10   6 C                                       1.5230804
    10   6 C       11   1 H                                       1.0803129
    10   6 C       12   1 H                                       1.0830945
    10   6 C       13   1 H                                       1.0835466
     7   6 C       14   7 N                                       1.4673163
    14   7 N       15   1 H                                       1.0174948
    14   7 N       16   1 H                                       1.0146600
    17   8 O       18   1 H                                       0.9974745
    17   8 O       19   1 H                                       0.9580215
    20   8 O       21   1 H                                       0.9685405
    20   8 O       22   1 H                                       0.9733534
    23   8 O       24   1 H                                       0.9734786
    23   8 O       25   1 H                                       0.9752258
    26   8 O       27   1 H                                       0.9581696
    26   8 O       28   1 H                                       0.9756999
    29   8 O       31   1 H                                       0.9578616
    32   8 O       34   1 H                                       0.9584317
    35   8 O       36   1 H                                       0.9870644
    35   8 O       37   1 H                                       0.9646431
    38   8 O       39   1 H                                       0.9738921
    38   8 O       40   1 H                                       0.9657573
    41   8 O       42   1 H                                       0.9749716
    41   8 O       43   1 H                                       0.9683216
    44   8 O       45   1 H                                       0.9602490
    44   8 O       46   1 H                                       0.9713801
    47   8 O       48   1 H                                       0.9812831
    47   8 O       49   1 H                                       0.9689652
    50   8 O       51   1 H                                       0.9790783
    50   8 O       52   1 H                                       0.9697546
    53   8 O       54   1 H                                       0.9575980 (min)
    53   8 O       55   1 H                                       0.9878773
    56   8 O       57   1 H                                       0.9800704
    56   8 O       58   1 H                                       0.9751950
    59   8 O       60   1 H                                       0.9694629
    59   8 O       61   1 H                                       0.9643321
    62   8 O       63   1 H                                       0.9645412
    62   8 O       64   1 H                                       0.9777623
    65   8 O       66   1 H                                       0.9577477
    65   8 O       67   1 H                                       0.9785774
    68   8 O       69   1 H                                       0.9583500
    71   8 O       72   1 H                                       0.9684434
    71   8 O       73   1 H                                       0.9711653
    74   8 O       75   1 H                                       0.9856429
    74   8 O       76   1 H                                       0.9829115
    77   8 O       78   1 H                                       0.9582244
    77   8 O       79   1 H                                       0.9894680
    80   8 O       81   1 H                                       0.9806406
    80   8 O       82   1 H                                       0.9820844
    83   8 O       84   1 H                                       0.9661789
    83   8 O       85   1 H                                       0.9613889
    86   8 O       87   1 H                                       0.9775970
    86   8 O       88   1 H                                       0.9670959
    89   8 O       90   1 H                                       0.9957619
    89   8 O       91   1 H                                       0.9677599

 * 5 distinct bonds (by element types)

   Z      Z             #   av. dist./Å        max./Å        min./Å
   1 H    6 C           9     1.0864275     1.0973071     1.0803129
   6 C    6 C           3     1.5252610     1.5300526     1.5226500
   1 H    7 N           2     1.0160774     1.0174948     1.0146600
   6 C    7 N           1     1.4673163     1.4673163     1.4673163
   1 H    8 O          47     0.9720744     0.9974745     0.9575980

           -------------------------------------------------
          |               Frequency Printout                |
           -------------------------------------------------
 projected vibrational frequencies (cm⁻¹)
eigval :       -0.00    -0.00    -0.00     0.00     0.00     0.00
eigval :       22.84    29.29    31.74    35.29    43.98    45.98
eigval :       48.13    50.51    52.74    55.25    57.87    59.42
eigval :       62.24    63.31    64.22    67.26    70.11    72.00
eigval :       72.57    74.35    77.70    80.22    84.42    88.81
eigval :       89.16    90.63    91.89    94.23    96.73   101.69
eigval :      106.26   108.82   113.64   117.00   121.32   126.54
eigval :      132.63   134.52   137.11   139.77   142.58   151.14
eigval :      152.45   157.13   163.85   167.06   170.02   175.19
eigval :      176.63   181.09   190.99   197.54   200.21   205.21
eigval :      208.80   217.29   220.38   223.67   228.70   232.60
eigval :      233.09   235.85   240.96   245.36   249.68   257.41
eigval :      259.72   268.58   270.15   273.94   278.14   283.45
eigval :      294.68   296.03   304.79   309.25   311.39   314.38
eigval :      318.93   323.42   333.62   338.76   348.05   358.61
eigval :      363.56   373.99   376.25   379.39   383.96   387.90
eigval :      395.84   396.83   403.13   405.51   416.56   422.01
eigval :      430.16   434.27   446.74   448.68   451.24   454.63
eigval :      464.46   465.13   468.03   471.26   476.84   484.28
eigval :      496.04   499.61   509.24   516.82   527.20   529.35
eigval :      531.43   534.05   545.64   552.28   554.95   564.62
eigval :      570.42   576.39   582.16   590.55   603.79   607.18
eigval :      609.25   624.40   625.35   631.95   636.38   646.20
eigval :      654.64   655.87   665.87   666.63   671.03   689.20
eigval :      696.94   708.93   733.13   742.10   745.96   749.08
eigval :      755.55   773.63   793.74   808.99   812.18   837.92
eigval :      853.94   859.70   879.95   894.09   909.48   913.33
eigval :      932.28   952.03   958.90   963.91   977.36   979.32
eigval :      985.79  1040.30  1089.53  1103.65  1176.11  1193.11
eigval :     1218.48  1269.45  1310.66  1338.66  1374.02  1395.36
eigval :     1411.34  1479.98  1488.96  1490.53  1491.96  1501.66
eigval :     1506.07  1510.51  1512.99  1514.95  1518.66  1519.79
eigval :     1526.81  1528.21  1531.82  1534.40  1535.69  1537.81
eigval :     1539.74  1541.40  1543.17  1545.29  1550.28  1552.06
eigval :     1553.22  1555.20  1560.95  1563.29  1564.87  1567.21
eigval :     1577.89  1590.79  2721.93  2837.53  2849.57  2907.46
eigval :     2922.43  2932.14  2951.64  2974.92  3043.03  3080.09
eigval :     3090.99  3092.05  3093.64  3097.17  3101.66  3105.80
eigval :     3127.78  3131.36  3148.66  3190.05  3197.15  3250.79
eigval :     3267.63  3276.60  3278.79  3286.34  3308.87  3322.12
eigval :     3335.11  3343.10  3349.27  3369.30  3379.90  3383.42
eigval :     3387.58  3403.01  3404.44  3412.08  3440.77  3460.13
eigval :     3460.27  3467.09  3467.94  3475.95  3496.63  3506.70
eigval :     3510.59  3537.44  3555.89  3559.17  3563.53  3607.49
eigval :     3632.38  3665.51  3665.80  3665.90  3668.21  3670.94
eigval :     3671.22  3673.84  3675.19
 reduced masses (amu)
   1: 13.75   2: 13.73   3: 13.85   4: 14.16   5: 14.13   6: 14.10   7: 14.07   8: 13.38
   9: 13.78  10: 14.18  11: 14.11  12: 13.48  13: 13.87  14: 14.18  15: 13.90  16: 13.81
  17: 14.02  18: 14.05  19: 14.28  20: 14.11  21: 14.16  22: 14.08  23: 14.44  24: 14.37
  25: 14.16  26: 14.29  27: 14.44  28: 13.42  29: 14.48  30: 14.10  31: 14.54  32: 14.39
  33: 14.27  34: 14.12  35: 14.11  36: 14.23  37: 14.09  38: 14.38  39: 12.75  40: 12.39
  41: 13.62  42: 13.31  43: 12.75  44: 13.01  45: 14.21  46: 13.20  47: 12.86  48: 11.16
  49: 13.14  50: 12.29  51: 11.88  52: 12.13  53: 12.09  54: 13.06  55: 10.33  56: 13.89
  57:  9.70  58: 13.39  59: 13.78  60: 12.52  61: 13.15  62: 11.56  63: 10.95  64:  7.28
  65: 12.43  66:  7.36  67: 12.59  68: 11.96  69:  9.75  70:  9.97  71: 10.79  72:  7.58
  73: 10.42  74:  7.84  75: 10.46  76:  5.89  77:  9.33  78:  9.21  79:  9.75  80: 10.23
  81:  6.64  82: 11.16  83:  5.95  84:  5.62  85:  7.35  86:  9.27  87: 12.67  88: 10.83
  89: 10.53  90:  7.06  91: 12.64  92:  8.55  93: 11.77  94:  6.82  95: 10.07  96: 11.35
  97:  6.17  98:  9.05  99:  2.62 100:  4.81 101:  2.09 102:  2.60 103:  1.86 104:  2.01
 105:  3.04 106:  4.06 107:  2.02 108:  2.56 109:  3.27 110:  3.70 111:  2.23 112:  1.94
 113:  3.83 114:  3.43 115:  1.79 116:  1.93 117:  1.87 118:  1.69 119:  1.93 120:  1.73
 121:  1.62 122:  1.71 123:  1.70 124:  1.85 125:  1.75 126:  1.73 127:  1.78 128:  1.70
 129:  1.87 130:  1.46 131:  1.74 132:  1.61 133:  1.85 134:  1.77 135:  1.75 136:  1.97
 137:  2.21 138:  1.96 139:  1.80 140:  1.76 141:  1.86 142:  1.81 143:  1.76 144:  1.57
 145:  1.90 146:  1.72 147:  1.96 148:  1.98 149:  1.94 150:  2.04 151:  2.16 152:  2.24
 153:  2.01 154:  1.93 155:  2.13 156:  2.23 157:  4.67 158:  4.95 159:  1.97 160:  2.41
 161:  2.10 162:  3.45 163:  2.19 164:  2.50 165:  2.13 166:  2.06 167:  2.89 168:  3.86
 169:  4.41 170:  3.02 171:  4.29 172:  9.98 173:  7.06 174:  6.15 175:  6.20 176:  2.83
 177:  4.16 178:  4.76 179:  4.64 180:  3.50 181:  3.06 182:  1.67 183:  1.66 184:  1.74
 185:  1.67 186:  1.59 187:  1.99 188:  2.04 189:  2.00 190:  2.07 191:  1.97 192:  2.04
 193:  2.04 194:  2.04 195:  2.01 196:  1.98 197:  2.06 198:  1.99 199:  2.05 200:  1.99
 201:  1.98 202:  2.02 203:  2.05 204:  2.06 205:  2.04 206:  2.07 207:  2.09 208:  2.04
 209:  2.05 210:  2.07 211:  2.08 212:  1.97 213:  1.93 214:  1.88 215:  1.89 216:  1.85
 217:  1.89 218:  1.89 219:  1.60 220:  1.76 221:  1.86 222:  1.99 223:  1.63 224:  1.98
 225:  1.96 226:  1.82 227:  1.57 228:  1.86 229:  1.69 230:  1.71 231:  1.95 232:  1.91
 233:  1.97 234:  1.88 235:  1.95 236:  1.87 237:  1.96 238:  1.75 239:  2.12 240:  1.84
 241:  1.89 242:  1.92 243:  1.77 244:  1.62 245:  1.90 246:  1.83 247:  1.63 248:  1.89
 249:  1.97 250:  2.04 251:  1.92 252:  1.73 253:  1.65 254:  1.75 255:  1.74 256:  1.74
 257:  1.82 258:  1.89 259:  1.76 260:  1.77 261:  1.79 262:  1.81 263:  1.78 264:  1.80
 265:  1.82 266:  1.83 267:  1.83 268:  1.83 269:  1.84 270:  1.83 271:  1.84 272:  1.84
 273:  1.84
 IR intensities (km·mol⁻¹)
   1:  0.16   2:  0.03   3:  0.04   4:  0.01   5:  0.15   6:  0.05   7:  1.86   8:  1.02
   9:  0.69  10:  1.82  11:  1.35  12:  0.62  13:  0.48  14:  0.54  15:  0.77  16:  0.23
  17:  0.07  18:  1.92  19:  0.75  20:  1.69  21:  0.06  22:  2.75  23:  1.52  24:  3.73
  25:  0.78  26:  0.92  27:  0.78  28:  1.67  29:  1.10  30:  0.72  31:  0.75  32:  3.86
  33:  0.70  34:  2.04  35:  3.21  36:  3.09  37:  2.46  38:  1.47  39:  9.81  40:  8.67
  41:  1.03  42:  1.02  43:  8.66  44:  1.92  45:  1.74  46:  4.80  47:  0.72  48:  5.08
  49:  1.10  50:  2.40  51: 10.45  52:  2.50  53:  2.25  54:  3.28  55:  5.49  56:  0.20
  57: 18.76  58:  4.96  59:  8.46  60:  5.44  61: 14.46  62:  9.52  63: 16.82  64: 48.19
  65:  5.29  66: 19.81  67:  3.83  68: 14.71  69: 17.53  70: 50.69  71: 20.51  72: 34.59
  73: 58.95  74: 18.55  75: 39.53  76: 32.93  77: 40.74  78: 70.19  79: 18.06  80: 17.39
  81: 34.81  82: 17.02  83:133.80  84:114.60  85: 90.83  86: 18.98  87:  6.90  88: 10.44
  89: 44.47  90: 97.18  91: 53.35  92:  8.72  93:  1.02  94: 10.62  95: 34.09  96: 51.77
  97: 18.29  98: 23.05  99: 24.06 100: 35.73 101: 56.51 102: 42.54 103: 12.18 104:  2.24
 105: 32.58 106:  4.20 107: 58.21 108: 32.09 109: 14.95 110: 48.76 111: 34.58 112:106.78
 113: 12.73 114: 64.97 115: 51.11 116: 78.61 117:161.05 118: 17.66 119: 68.53 120: 33.27
 121: 20.11 122:  4.18 123: 37.94 124: 93.25 125: 48.76 126: 49.48 127: 35.75 128: 16.31
 129: 26.69 130:  7.21 131:313.88 132: 91.38 133:  0.48 134: 23.64 135: 75.22 136:228.01
 137:445.93 138:220.60 139: 92.99 140: 46.84 141: 38.78 142:122.31 143:145.80 144:277.01
 145:273.68 146: 36.61 147:166.71 148:661.12 149: 95.96 150:116.02 151:429.08 152:******
 153:669.62 154: 34.05 155:147.26 156:531.23 157:210.26 158:299.07 159:461.44 160:365.78
 161:  9.07 162: 55.97 163:286.48 164:110.72 165:131.88 166:232.94 167:244.85 168:148.50
 169: 43.41 170: 63.75 171: 55.93 172: 13.94 173:  9.77 174:  1.73 175:  1.73 176: 22.93
 177:  4.02 178:  5.77 179:  2.37 180:  9.47 181:  9.44 182: 29.07 183:  5.61 184: 17.64
 185: 13.38 186: 13.47 187:201.84 188:127.13 189:279.39 190:292.92 191: 90.51 192: 63.50
 193:186.14 194: 19.17 195:194.99 196:132.92 197: 73.84 198: 43.42 199:118.03 200:172.50
 201:409.21 202:120.79 203:215.22 204:572.82 205:310.66 206:387.42 207:219.96 208: 16.70
 209:308.63 210:182.17 211: 68.60 212: 63.68 213:****** 214:963.56 215:****** 216: 14.25
 217:****** 218:****** 219:163.70 220:104.36 221:****** 222:679.32 223:226.05 224:233.79
 225:159.69 226:****** 227:120.84 228: 47.37 229:  4.87 230: 10.96 231:562.07 232:******
 233:****** 234:838.06 235:590.87 236:655.17 237:453.32 238:170.07 239:601.38 240:******
 241:506.08 242:530.29 243:295.92 244: 57.92 245:111.63 246:525.74 247:450.32 248:405.92
 249: 65.77 250:387.57 251:172.82 252:189.32 253:155.51 254: 53.30 255:398.94 256:173.45
 257:149.10 258:298.36 259: 87.42 260:179.06 261:225.20 262:127.08 263:101.78 264: 80.39
 265: 27.12 266:  9.60 267: 12.71 268: 14.87 269:  7.61 270: 14.87 271:  5.72 272:  8.54
 273: 11.67
 Raman intensities (amu)
   1:  0.00   2:  0.00   3:  0.00   4:  0.00   5:  0.00   6:  0.00   7:  0.00   8:  0.00
   9:  0.00  10:  0.00  11:  0.00  12:  0.00  13:  0.00  14:  0.00  15:  0.00  16:  0.00
  17:  0.00  18:  0.00  19:  0.00  20:  0.00  21:  0.00  22:  0.00  23:  0.00  24:  0.00
  25:  0.00  26:  0.00  27:  0.00  28:  0.00  29:  0.00  30:  0.00  31:  0.00  32:  0.00
  33:  0.00  34:  0.00  35:  0.00  36:  0.00  37:  0.00  38:  0.00  39:  0.00  40:  0.00
  41:  0.00  42:  0.00  43:  0.00  44:  0.00  45:  0.00  46:  0.00  47:  0.00  48:  0.00
  49:  0.00  50:  0.00  51:  0.00  52:  0.00  53:  0.00  54:  0.00  55:  0.00  56:  0.00
  57:  0.00  58:  0.00  59:  0.00  60:  0.00  61:  0.00  62:  0.00  63:  0.00  64:  0.00
  65:  0.00  66:  0.00  67:  0.00  68:  0.00  69:  0.00  70:  0.00  71:  0.00  72:  0.00
  73:  0.00  74:  0.00  75:  0.00  76:  0.00  77:  0.00  78:  0.00  79:  0.00  80:  0.00
  81:  0.00  82:  0.00  83:  0.00  84:  0.00  85:  0.00  86:  0.00  87:  0.00  88:  0.00
  89:  0.00  90:  0.00  91:  0.00  92:  0.00  93:  0.00  94:  0.00  95:  0.00  96:  0.00
  97:  0.00  98:  0.00  99:  0.00 100:  0.00 101:  0.00 102:  0.00 103:  0.00 104:  0.00
 105:  0.00 106:  0.00 107:  0.00 108:  0.00 109:  0.00 110:  0.00 111:  0.00 112:  0.00
 113:  0.00 114:  0.00 115:  0.00 116:  0.00 117:  0.00 118:  0.00 119:  0.00 120:  0.00
 121:  0.00 122:  0.00 123:  0.00 124:  0.00 125:  0.00 126:  0.00 127:  0.00 128:  0.00
 129:  0.00 130:  0.00 131:  0.00 132:  0.00 133:  0.00 134:  0.00 135:  0.00 136:  0.00
 137:  0.00 138:  0.00 139:  0.00 140:  0.00 141:  0.00 142:  0.00 143:  0.00 144:  0.00
 145:  0.00 146:  0.00 147:  0.00 148:  0.00 149:  0.00 150:  0.00 151:  0.00 152:  0.00
 153:  0.00 154:  0.00 155:  0.00 156:  0.00 157:  0.00 158:  0.00 159:  0.00 160:  0.00
 161:  0.00 162:  0.00 163:  0.00 164:  0.00 165:  0.00 166:  0.00 167:  0.00 168:  0.00
 169:  0.00 170:  0.00 171:  0.00 172:  0.00 173:  0.00 174:  0.00 175:  0.00 176:  0.00
 177:  0.00 178:  0.00 179:  0.00 180:  0.00 181:  0.00 182:  0.00 183:  0.00 184:  0.00
 185:  0.00 186:  0.00 187:  0.00 188:  0.00 189:  0.00 190:  0.00 191:  0.00 192:  0.00
 193:  0.00 194:  0.00 195:  0.00 196:  0.00 197:  0.00 198:  0.00 199:  0.00 200:  0.00
 201:  0.00 202:  0.00 203:  0.00 204:  0.00 205:  0.00 206:  0.00 207:  0.00 208:  0.00
 209:  0.00 210:  0.00 211:  0.00 212:  0.00 213:  0.00 214:  0.00 215:  0.00 216:  0.00
 217:  0.00 218:  0.00 219:  0.00 220:  0.00 221:  0.00 222:  0.00 223:  0.00 224:  0.00
 225:  0.00 226:  0.00 227:  0.00 228:  0.00 229:  0.00 230:  0.00 231:  0.00 232:  0.00
 233:  0.00 234:  0.00 235:  0.00 236:  0.00 237:  0.00 238:  0.00 239:  0.00 240:  0.00
 241:  0.00 242:  0.00 243:  0.00 244:  0.00 245:  0.00 246:  0.00 247:  0.00 248:  0.00
 249:  0.00 250:  0.00 251:  0.00 252:  0.00 253:  0.00 254:  0.00 255:  0.00 256:  0.00
 257:  0.00 258:  0.00 259:  0.00 260:  0.00 261:  0.00 262:  0.00 263:  0.00 264:  0.00
 265:  0.00 266:  0.00 267:  0.00 268:  0.00 269:  0.00 270:  0.00 271:  0.00 272:  0.00
 273:  0.00
 output can be read by thermo (or use thermo option).
 writing <g98.out> molden fake output.
 recommended (thermochemical) frequency scaling factor: 1.0
           -------------------------------------------------
          |             Thermodynamic Functions             |
           -------------------------------------------------

Molecule has no symmetry elements
It seems to be the C1 point group
c1  symmetry found (for desy threshold:  0.10E+00) used in thermo

          ...................................................
          :                      SETUP                      :
          :.................................................:
          :  # frequencies                         267      :
          :  # imaginary freq.                       0      :
          :  linear?                             false      :
          :  only rotor calc.                    false      :
          :  symmetry                               c1      :
          :  rotational number                       1      :
          :  scaling factor                  1.0000000      :
          :  rotor cutoff                   50.0000000 cm⁻¹ :
          :  imag. cutoff                  -20.0000000 cm⁻¹ :
          :.................................................:

    mode    ω/cm⁻¹     T·S(HO)/kcal·mol⁻¹    T·S(FR)/kcal·mol⁻¹   T·S(vib)
   ------------------------------------------------------------------------
       1     22.84    -1.89934 (  4.17%)    -1.28860 ( 95.83%)    -1.31409
       2     29.29    -1.75216 ( 10.54%)    -1.21492 ( 89.46%)    -1.27154
       3     31.74    -1.70473 ( 13.97%)    -1.19117 ( 86.03%)    -1.26290
       4     35.29    -1.64208 ( 19.87%)    -1.15978 ( 80.13%)    -1.25563
       5     43.98    -1.51203 ( 37.44%)    -1.09456 ( 62.56%)    -1.25085
       6     45.98    -1.48579 ( 41.69%)    -1.08139 ( 58.31%)    -1.24997
       7     48.13    -1.45881 ( 46.19%)    -1.06784 ( 53.81%)    -1.24843
       8     50.51    -1.43027 ( 51.02%)    -1.05350 ( 48.98%)    -1.24574
       9     52.74    -1.40487 ( 55.31%)    -1.04074 ( 44.69%)    -1.24215
      10     55.25    -1.37751 ( 59.85%)    -1.02698 ( 40.15%)    -1.23676
      11     57.87    -1.35014 ( 64.22%)    -1.01321 ( 35.78%)    -1.22959
      12     59.42    -1.33463 ( 66.61%)    -1.00540 ( 33.39%)    -1.22469
      13     62.24    -1.30734 ( 70.60%)    -0.99166 ( 29.40%)    -1.21452
      14     63.31    -1.29733 ( 71.99%)    -0.98662 ( 28.01%)    -1.21031
      15     64.22    -1.28890 ( 73.13%)    -0.98237 ( 26.87%)    -1.20655
      16     67.26    -1.26172 ( 76.61%)    -0.96867 ( 23.39%)    -1.19318
      17     70.11    -1.23737 ( 79.45%)    -0.95638 ( 20.55%)    -1.17963
      18     72.00    -1.22180 ( 81.13%)    -0.94852 ( 18.87%)    -1.17024
      19     72.57    -1.21719 ( 81.61%)    -0.94619 ( 18.39%)    -1.16734
      20     74.35    -1.20294 ( 83.02%)    -0.93899 ( 16.98%)    -1.15812
      21     77.70    -1.17711 ( 85.36%)    -0.92593 ( 14.64%)    -1.14035
      22     80.22    -1.15843 ( 86.89%)    -0.91648 ( 13.11%)    -1.12671
      23     84.42    -1.12864 ( 89.04%)    -0.90139 ( 10.96%)    -1.10373
      24     88.81    -1.09898 ( 90.87%)    -0.88634 (  9.13%)    -1.07957
      25     89.16    -1.09674 ( 91.00%)    -0.88520 (  9.00%)    -1.07770
      26     90.63    -1.08717 ( 91.52%)    -0.88034 (  8.48%)    -1.06963
      27     91.89    -1.07913 ( 91.94%)    -0.87626 (  8.06%)    -1.06278
      28     94.23    -1.06449 ( 92.65%)    -0.86882 (  7.35%)    -1.05012
      29     96.73    -1.04922 ( 93.34%)    -0.86104 (  6.66%)    -1.03668
      30    101.69    -1.02017 ( 94.48%)    -0.84624 (  5.52%)    -1.01056
      31    106.26    -0.99464 ( 95.33%)    -0.83320 (  4.67%)    -0.98709
      32    108.82    -0.98087 ( 95.73%)    -0.82616 (  4.27%)    -0.97427
      33    113.64    -0.95580 ( 96.39%)    -0.81333 (  3.61%)    -0.95065
      34    117.00    -0.93898 ( 96.77%)    -0.80470 (  3.23%)    -0.93464
      35    121.32    -0.91807 ( 97.20%)    -0.79395 (  2.80%)    -0.91459
      36    126.54    -0.89385 ( 97.62%)    -0.78147 (  2.38%)    -0.89117
      37    132.63    -0.86689 ( 98.02%)    -0.76755 (  1.98%)    -0.86492
      38    134.52    -0.85877 ( 98.13%)    -0.76335 (  1.87%)    -0.85699
      39    137.11    -0.84788 ( 98.26%)    -0.75770 (  1.74%)    -0.84631
      40    139.77    -0.83693 ( 98.39%)    -0.75202 (  1.61%)    -0.83556
      41    142.58    -0.82558 ( 98.51%)    -0.74613 (  1.49%)    -0.82440
      42    151.14    -0.79243 ( 98.82%)    -0.72885 (  1.18%)    -0.79168
      43    152.45    -0.78752 ( 98.86%)    -0.72628 (  1.14%)    -0.78682
      44    157.13    -0.77043 ( 98.99%)    -0.71733 (  1.01%)    -0.76990
      45    163.85    -0.74682 ( 99.14%)    -0.70492 (  0.86%)    -0.74646
      46    167.06    -0.73594 ( 99.20%)    -0.69919 (  0.80%)    -0.73564
      47    170.02    -0.72608 ( 99.26%)    -0.69398 (  0.74%)    -0.72584
      48    175.19    -0.70931 ( 99.34%)    -0.68510 (  0.66%)    -0.70915
      49    176.63    -0.70476 ( 99.36%)    -0.68268 (  0.64%)    -0.70462
      50    181.09    -0.69084 ( 99.42%)    -0.67528 (  0.58%)    -0.69075
      51    190.99    -0.66136 ( 99.53%)    -0.65952 (  0.47%)    -0.66135
      52    197.54    -0.64277 ( 99.59%)    -0.64953 (  0.41%)    -0.64279
      53    200.21    -0.63542 ( 99.61%)    -0.64556 (  0.39%)    -0.63546
      54    205.21    -0.62190 ( 99.65%)    -0.63825 (  0.35%)    -0.62195
      55    208.80    -0.61244 ( 99.67%)    -0.63311 (  0.33%)    -0.61251
      56    217.29    -0.59081 ( 99.72%)    -0.62131 (  0.28%)    -0.59090
      57    220.38    -0.58317 ( 99.74%)    -0.61712 (  0.26%)    -0.58326
      58    223.67    -0.57518 ( 99.75%)    -0.61273 (  0.25%)    -0.57528
      59    228.70    -0.56324 ( 99.77%)    -0.60614 (  0.23%)    -0.56334
      60    232.60    -0.55420 ( 99.79%)    -0.60114 (  0.21%)    -0.55430
      61    233.09    -0.55308 ( 99.79%)    -0.60052 (  0.21%)    -0.55318
      62    235.85    -0.54681 ( 99.80%)    -0.59703 (  0.20%)    -0.54691
      63    240.96    -0.53542 ( 99.81%)    -0.59068 (  0.19%)    -0.53552
      64    245.36    -0.52583 ( 99.83%)    -0.58531 (  0.17%)    -0.52594
      65    249.68    -0.51665 ( 99.84%)    -0.58015 (  0.16%)    -0.51675
      66    257.41    -0.50068 ( 99.86%)    -0.57112 (  0.14%)    -0.50078
      67    259.72    -0.49601 ( 99.86%)    -0.56846 (  0.14%)    -0.49611
      68    268.58    -0.47863 ( 99.88%)    -0.55853 (  0.12%)    -0.47872
      69    270.15    -0.47563 ( 99.88%)    -0.55680 (  0.12%)    -0.47572
      70    273.94    -0.46846 ( 99.89%)    -0.55268 (  0.11%)    -0.46856
      71    278.14    -0.46067 ( 99.90%)    -0.54817 (  0.10%)    -0.46076
      72    283.45    -0.45103 ( 99.90%)    -0.54256 (  0.10%)    -0.45112
      73    294.68    -0.43140 ( 99.92%)    -0.53105 (  0.08%)    -0.43148
      74    296.03    -0.42911 ( 99.92%)    -0.52970 (  0.08%)    -0.42919
   ------------------------------------------------------------------------

   temp. (K)  partition function   enthalpy   heat capacity  entropy
                                   cal/mol     cal/K/mol   cal/K/mol   J/K/mol
 298.15  VIB  0.229E+32            42092.264    230.453    270.941
         ROT  0.343E+08              888.752      2.981     37.460
         INT  0.784E+39            42981.017    233.434    308.401
         TR   0.116E+29             1481.254      4.968     44.632
         TOT                       44462.2708   238.4023   353.0336  1477.0926

       T/K    H(0)-H(T)+PV         H(T)/Eh          T*S/Eh         G(T)/Eh
   ------------------------------------------------------------------------
    298.15    0.708551E-01    0.817914E+00    0.167738E+00    0.650177E+00
   ------------------------------------------------------------------------

         :::::::::::::::::::::::::::::::::::::::::::::::::::::
         ::                  THERMODYNAMIC                  ::
         :::::::::::::::::::::::::::::::::::::::::::::::::::::
         :: total free energy        -143.611963364412 Eh   ::
         ::.................................................::
         :: total energy             -144.262140127194 Eh   ::
         :: zero point energy           0.747059283317 Eh   ::
         :: G(RRHO) w/o ZPVE           -0.096882520535 Eh   ::
         :: G(RRHO) contrib.            0.650176762782 Eh   ::
         :::::::::::::::::::::::::::::::::::::::::::::::::::::

optimized geometry written to: xtbopt.xyz


           -------------------------------------------------
          | TOTAL ENERGY             -144.262140127194 Eh   |
          | TOTAL ENTHALPY           -143.444225705298 Eh   |
          | TOTAL FREE ENERGY        -143.611963364412 Eh   |
          | GRADIENT NORM               0.000362072023 Eh/α |
          | HOMO-LUMO GAP               8.666345228013 eV   |
           -------------------------------------------------

------------------------------------------------------------------------
 * finished run on 2022/10/12 at 01:33:02.563     
------------------------------------------------------------------------
 total:
 * wall-time:     0 d,  0 h,  0 min, 16.098 sec
 *  cpu-time:     0 d,  0 h,  1 min, 34.906 sec
 * ratio c/w:     5.896 speedup
 SCF:
 * wall-time:     0 d,  0 h,  0 min,  0.109 sec
 *  cpu-time:     0 d,  0 h,  0 min,  0.641 sec
 * ratio c/w:     5.879 speedup
 ANC optimizer:
 * wall-time:     0 d,  0 h,  0 min,  0.334 sec
 *  cpu-time:     0 d,  0 h,  0 min,  1.947 sec
 * ratio c/w:     5.834 speedup
 analytical hessian:
 * wall-time:     0 d,  0 h,  0 min, 15.482 sec
 *  cpu-time:     0 d,  0 h,  1 min, 31.345 sec
 * ratio c/w:     5.900 speedup

