91
 energy: -144.262140127193 gnorm: 0.000362072492 xtb: 6.5.1 (579679a)
H           -0.96066500313778        1.80793932866840       -0.18568615345552
C           -0.33774435092664        1.40123967509770        0.60129235235887
H            0.62829992811763        1.13543013080386        0.19134124133656
H           -0.19487580189407        2.16349642708357        1.35429145458291
C           -1.00984561532231        0.17870050169787        1.21132561175669
H           -0.36932321207202       -0.21848956826176        2.00229956413208
C           -2.33895612857390        0.59275767709067        1.84621339198606
H           -3.00510556435452        0.99592891680949        1.07694103102729
H           -2.14108103202695        1.38940202159392        2.57442068818329
C           -1.21401743841556       -0.89913585745424        0.15474811300425
H           -1.64572325300940       -1.78156899260205        0.60421167256942
H           -0.26702628484562       -1.17369821380857       -0.29348928193385
H           -1.87770372973966       -0.53391261955711       -0.61998117012152
N           -3.01720905880324       -0.55490509109076        2.45928748247471
H           -2.36865100365554       -1.02509252627075        3.08665636140216
H           -3.79529639860395       -0.22767632921028        3.02234711810734
O           -1.76250781454458        3.79407225720360       -1.20745858031615
H           -1.52770167083297        4.06125557823619       -0.27556038495724
H           -2.20358395929872        4.55423749755114       -1.58877955419356
O           -2.30191442284452        1.29562249357021       -2.45010001646462
H           -2.25069593170409        2.14848634273150       -1.99395263206052
H           -1.38860069448863        0.96433143240811       -2.50943731633383
O           -2.51804840419305       -2.82445310310841       -2.42568596209939
H           -2.45813576076741       -3.30321643215551       -1.58019409173718
H           -3.07973715548178       -2.04732062137146       -2.24782088866713
O           -0.54814001664510        3.17682464387487        3.53971916755466
H           -0.35008539784437        3.83366276832474        4.20861886893012
H            0.28884896593579        2.70385482432295        3.37316850338245
O           -2.49524536704207       -4.00866967387573        0.09592822374817
H           -3.19440835865824       -3.32461699405760        0.33846303871100
H           -2.93092442527889       -4.86116073822887        0.12661142572121
O           -0.11214590074790       -2.27919865583555       -3.22935899155010
H           -1.05720172383506       -2.43887606599276       -2.93952814108537
H           -0.08308775299448       -2.51902105445714       -4.15684588592483
O            2.76763252898145       -2.09302860040567       -2.61669860261945
H            2.95057257538402       -1.36801116265709       -3.26104220438815
H            1.87627134831597       -2.39460059586974       -2.82898535183853
O            2.94365648538830       -3.84305058029201       -0.37288213631093
H            2.09004026035658       -4.23784707781172       -0.62574708797966
H            3.21834433031132       -3.33349501934932       -1.14591940079370
O            2.81330130350313        0.13972947707089       -4.04281151750201
H            3.44400546157543        0.69538131751073       -3.54881487676210
H            1.93474588183631        0.43951757485742       -3.76728649307838
O            4.28530656596106        1.59731188702309       -2.25471190290410
H            4.58640880655488        1.08314546202793       -1.50168579906591
H            3.75811879125525        2.32759192021339       -1.89092171222978
O            1.86991505348391        1.91875009923572        2.97969419005511
H            2.47063667944204        1.78564508630750        2.21527751883939
H            1.68055440635589        1.01762507073854        3.28137232209590
O           -1.06639619805565        4.64340473037924        1.18297311195847
H           -0.09291746440526        4.74759832255140        1.17419962131747
H           -1.22625120462112        4.09677116117098        1.96786924801072
O           -4.04560786031153       -0.61728475764882       -1.83247257848764
H           -4.81819451171679       -0.48063846313135       -2.38150030313887
H           -3.42987911251715        0.12871863602688       -2.03311737000150
O            0.35321761728415        0.35550182850142       -2.60533250384639
H            0.88202079031406        0.20187185960740       -1.79459032748427
H            0.13332810971080       -0.54220859330894       -2.91641083620372
O            1.63374443353260        4.45331182816895        1.37484490113763
H            2.02948798421737        4.14979605839925        0.54350657015150
H            1.77565795791975        3.74616423040182        2.01495349366202
O            3.37657456786603        1.53214334359851        0.74940455593953
H            3.23690016902228        2.31745962121936        0.20708642397118
H            2.95167511065405        0.79676043072925        0.26495509379049
O           -0.82008878130900       -1.88993311637202        4.16791670661012
H           -0.74868748922055       -2.27685927321994        5.04111231018506
H            0.02610750661687       -1.42970567740132        3.99541741347881
O            2.72029976114548        3.61520227143379       -1.08723417332283
H            3.07836738590136        4.43636388598909       -1.42769811910288
H            1.88145293729019        3.44273291687212       -1.60825083817868
O           -0.47633503365566       -3.66605341319206        2.05112145544617
H           -1.22605322754298       -3.78334322655535        1.44941709456582
H           -0.77648069186343       -3.09827619606444        2.77961541171264
O            1.67933186667803       -2.23213828543810        1.31043856199602
H            2.28948477799381       -2.85447446052289        0.85010945552164
H            0.87769004693026       -2.76912075871354        1.49788220736401
O            1.65276363114006       -0.84798453343100        3.56707594127535
H            2.43770949074347       -1.08411333201904        4.06335919681220
H            1.73222952414834       -1.31336294710885        2.69750430800976
O            2.09416631865835       -0.42303499256142       -0.63359880851582
H            1.85757458145180       -1.01008978767544        0.11543173884619
H            2.51428834556162       -1.01645345935830       -1.29378175812745
O            0.34509068751199       -4.28078032949444       -1.18988478661307
H            0.18380620225648       -3.60769245776767       -1.86400749837532
H           -0.40654277730323       -4.25540361669126       -0.59099277139615
O            0.57660629596829        3.16149829499342       -2.47188588505744
H           -0.24449565112017        3.42723427974092       -2.01267813755187
H            0.49445735004403        2.21336263191139       -2.64382934901250
O           -4.20862542480014       -2.13333137805686        0.61747093294396
H           -3.78349272867148       -1.56118996368774        1.31278237688762
H           -4.24642294890070       -1.58017090941192       -0.17571500856052
