91
 energy: -144.262140127194 gnorm: 0.000362086471 xtb: 6.5.1 (579679a)
H           -0.96067382130000        1.80793462270000       -0.18568635140000
C           -0.33775378670000        1.40123685720000        0.60129361900000
H            0.62829331510000        1.13543308660000        0.19134541620000
H           -0.19489185730000        2.16349304300000        1.35429455030000
C           -1.00985077930000        0.17869310000000        1.21132239860000
H           -0.36932905740000       -0.21849499670000        2.00229789360000
C           -2.33896567670000        0.59274220810000        1.84620626200000
H           -3.00511453820000        0.99591130250000        1.07693227940000
H           -2.14109729330000        1.38938631770000        2.57441563930000
C           -1.21401327070000       -0.89914248410000        0.15474230600000
H           -1.64571603380000       -1.78157866410000        0.60420281850000
H           -0.26701911490000       -1.17369909970000       -0.29349226250000
H           -1.87769877000000       -0.53392136910000       -0.61998865640000
N           -3.01721473780000       -0.55492518140000        2.45927598190000
H           -2.36865641070000       -1.02511031570000        3.08664630410000
H           -3.79530575640000       -0.22770147630000        3.02233347260000
O           -1.76252346540000        3.79406513610000       -1.20745811080000
H           -1.52772197360000        4.06124806010000       -0.27555862950000
H           -2.20360225930000        4.55422873250000       -1.58877929760000
O           -2.30191265420000        1.29561471700000       -2.45010579040000
H           -2.25070022090000        2.14847803820000       -1.99395673870000
H           -1.38859698410000        0.96432854150000       -2.50944048040000
O           -2.51802514810000       -2.82446205390000       -2.42569968130000
H           -2.45811294920000       -3.30322654490000       -1.58020843740000
H           -3.07971858930000       -2.04733282360000       -2.24783521220000
O           -0.54816900640000        3.17681559580000        3.53972279870000
H           -0.35012016170000        3.83365358980000        4.20862433780000
H            0.28882303400000        2.70385044940000        3.37317423070000
O           -2.49522471250000       -4.00868290630000        0.09591251730000
H           -3.19439213240000       -3.32463431060000        0.33844608560000
H           -2.93089941420000       -4.86117630540000        0.12659271060000
O           -0.11212269430000       -2.27919360670000       -3.22936336090000
H           -1.05717869300000       -2.43887647100000       -2.93953608800000
H           -0.08306005330000       -2.51901423440000       -4.15685057240000
O            2.76765262200000       -2.09300954210000       -2.61669259470000
H            2.95059112140000       -1.36799002190000       -3.26103429250000
H            1.87629376140000       -2.39458583420000       -2.82898298170000
O            2.94367790910000       -3.84303451650000       -0.37287856830000
H            2.09006463390000       -4.23783504220000       -0.62574718870000
H            3.21836578440000       -3.33347616810000       -1.14591398460000
O            2.81331468390000        0.13975126350000       -4.04280145330000
H            3.44401420820000        0.69540554410000       -3.54880164120000
H            1.93475673080000        0.43953428030000       -3.76727897240000
O            4.28530607280000        1.59733826000000       -2.25469415650000
H            4.58640837700000        1.08317209730000       -1.50166789900000
H            3.75811320450000        2.32761489790000       -1.89090453150000
O            1.86989460580000        1.91875468950000        2.97970406610000
H            2.47061959700000        1.78565415610000        2.21528925950000
H            1.68053762390000        1.01762814300000        3.28137996440000
O           -1.06642464020000        4.64339708200000        1.18297749370000
H           -0.09294642150000        4.74759578660000        1.17420758300000
H           -1.22627952440000        4.09676130590000        1.96787211770000
O           -4.04559823160000       -0.61730274210000       -1.83248777770000
H           -4.81818368200000       -0.48065953460000       -2.38151796070000
H           -3.42987268950000        0.12870422570000       -2.03312911790000
O            0.35322485020000        0.35550822510000       -2.60533065040000
H            0.88202599760000        0.20187961000000       -1.79458689630000
H            0.13334112890000       -0.54220280510000       -2.91641131710000
O            1.63371631690000        4.45331798280000        1.37485837640000
H            2.02946435870000        4.14980573610000        0.54352089710000
H            1.77563130950000        3.74617001090000        2.01496623010000
O            3.37656392960000        1.53215971530000        0.74941901650000
H            3.23688731190000        2.31747620810000        0.20710176760000
H            2.95167001390000        0.79677542320000        0.26496678770000
O           -0.82009343440000       -1.88994468470000        4.16791054540000
H           -0.74869316440000       -2.27687199170000        5.04110572290000
H            0.02610104590000       -1.42971251400000        3.99541500930000
O            2.72028462710000        3.61521841240000       -1.08721836800000
H            3.07834914070000        4.43638249600000       -1.42767963070000
H            1.88144052500000        3.44274557500000       -1.60823826200000
O           -0.47632299800000       -3.66605948710000        2.05111339430000
H           -1.22603847740000       -3.78335217580000        1.44940621170000
H           -0.77647417200000       -3.09828511300000        2.77960729380000
O            1.67933897980000       -2.23213177960000        1.31044052820000
H            2.28949675650000       -2.85446395650000        0.85011246540000
H            0.87769931740000       -2.76911877740000        1.49788043810000
O            1.65275561970000       -0.84798210530000        3.56708023050000
H            2.43770098330000       -1.08410766010000        4.06336581390000
H            1.73222698480000       -1.31335858520000        2.69750806240000
O            2.09417074530000       -0.42302292170000       -0.63359223680000
H            1.85757946730000       -1.01008026290000        0.11543646010000
H            2.51429818380000       -1.01643803650000       -1.29377475560000
O            0.34511725510000       -4.28077644580000       -1.18989105330000
H            0.18383159870000       -3.60768824200000       -1.86401315330000
H           -0.40651843310000       -4.25540471380000       -0.59100161750000
O            0.57659837090000        3.16150562830000       -2.47187835450000
H           -0.24450657050000        3.42723651230000       -2.01267300940000
H            0.49445498960000        2.21336983520000       -2.64382376000000
O           -4.20861641000000       -2.13335449200000        0.61745251870000
H           -3.78348913670000       -1.56121206520000        1.31276644520000
H           -4.24641406170000       -1.58019283690000       -0.17573258930000
