612
 energy: -1033.450862021687 gnorm: 0.000731996927 xtb: 6.5.1 (579679a)
H           -2.42176340950000       -0.46465352510000       -1.05039114650000
C           -1.39211581600000       -0.14115394140000       -1.16625682780000
H           -0.94025089250000       -0.65923111730000       -2.00705598900000
C           -0.58589794510000       -0.45976292410000        0.08036740780000
H            0.47076336420000       -0.30513948360000       -0.09755293880000
H           -0.76713210080000       -1.49797182210000        0.33229028760000
O           -1.37859234380000        1.24658998790000       -1.47139226310000
H           -1.93941539890000        1.70377723780000       -0.80437351490000
N           -0.98515384980000        0.39755781870000        1.20864671610000
H           -0.78604932360000        1.39190713520000        0.96638898560000
H           -0.38485881680000        0.14502820850000        2.01004916410000
H           -2.01143190500000        0.28261900650000        1.40667841180000
O            1.91428934360000        7.06086037120000        2.72186780520000
H            1.35885549800000        6.83946956330000        3.51240308990000
H            2.79536370930000        7.26049371820000        3.04665627930000
O            3.40352374000000        3.20901648190000       -3.83653515800000
H            4.25167264890000        3.66105126790000       -3.93099446860000
H            2.92510152520000        3.63389387030000       -3.10527308940000
O            6.32717645930000        3.34669886700000        0.47712819490000
H            6.76327283650000        2.92157715150000       -0.26850260550000
H            6.36538521060000        2.70944355930000        1.20061664520000
O           -1.92937762550000        2.79575546860000        3.04529969270000
H           -2.39527652360000        2.06206364320000        3.47758691890000
H           -2.20100448590000        2.73039550900000        2.11053796310000
O           -5.68261902950000        2.63656328420000       -0.64129010860000
H           -6.10219084710000        2.61814642270000        0.24686740120000
H           -6.35459614860000        2.93328600500000       -1.28527148880000
O           -0.83518695870000       -3.58029627140000       -3.48385383250000
H           -0.35464150550000       -3.58781799170000       -4.34080039820000
H           -0.97853838880000       -4.52714711070000       -3.28069109440000
O            1.31160340180000       -0.44080396230000        2.26453708410000
H            2.17070534840000       -0.12681388960000        1.93848232260000
H            1.43167959780000       -0.68559995550000        3.19887913950000
O            5.64386153360000        7.22719816300000        1.14727103060000
H            6.51412075520000        6.79964683120000        1.04006286480000
H            5.20916537850000        6.76617227540000        1.88090175840000
O            0.73627496400000       -2.87742137000000        1.53264053350000
H            1.17305323970000       -3.37763509880000        2.24334978330000
H            1.08810481360000       -1.96102060470000        1.62662575970000
O            1.01426403480000       -2.38136013690000       -1.99093183270000
H            1.77334220950000       -2.97480605430000       -2.17808495340000
H            0.24480310220000       -2.83500181630000       -2.39248736770000
O            1.71902915890000        4.16630726750000       -1.95322398740000
H            1.36381862550000        4.94121682850000       -2.44078425550000
H            2.34256825520000        4.48401294210000       -1.29523114590000
O            6.33412455040000        2.40117303170000       -2.23288187320000
H            6.39054991800000        3.37767279410000       -2.23206865200000
H            5.99716154810000        2.16219385450000       -3.10761642820000
O           -3.62300449620000        0.00835390220000        1.44777955430000
H           -3.48979063080000       -0.95487924510000        1.56803498570000
H           -3.96493205980000        0.09737046220000        0.53094306000000
O           -0.37366545280000        1.65412348300000        6.51821148850000
H           -0.24173723930000        1.50372774010000        5.54259073780000
H           -1.33302887550000        1.78009596760000        6.64217385190000
O            0.07467360720000        1.29467645650000        3.97370009500000
H           -0.39273869260000        2.03787993930000        3.55747351060000
H            1.03971461910000        1.44251995240000        3.90442090940000
O            4.76825251590000       -1.52599700000000       -3.12777370900000
H            4.12952043050000       -2.26926945960000       -3.05184853820000
H            4.33763799060000       -0.72050494370000       -2.78954451590000
O           -2.44543218020000       -5.50724975290000        4.76181807340000
H           -2.26878658260000       -4.70857246200000        5.28624941460000
H           -3.41046996190000       -5.48759165760000        4.65241295190000
O            0.58130072810000       -5.75995502150000        1.53928807260000
H            1.11526392700000       -5.38836710920000        2.27085974800000
H            1.21145086710000       -6.20808813030000        0.94662675070000
O            1.83796602130000       -1.40745527510000        4.74223476560000
H            1.57980829690000       -2.33920024060000        4.69854241880000
H            2.79237896400000       -1.34592632130000        4.54524526580000
O           -0.73627010330000       -1.18533719150000        6.31977699730000
H           -0.80861087740000       -0.25099430010000        6.55187700900000
H           -0.29387197350000       -1.23030907830000        5.46340831900000
O            4.64892252040000        3.09777035610000        3.05611416630000
H            5.26859740470000        2.40325525180000        2.77014262710000
H            3.86825816360000        2.61669786460000        3.40222017910000
O           -1.22181023470000        4.08740509000000       -1.58317494230000
H           -2.19427130770000        4.20169673380000       -1.54725903700000
H           -0.83653011370000        4.95644515470000       -1.38427059860000
O           -4.58415137400000        3.51584618060000        2.42867760710000
H           -3.82732925360000        4.10511040070000        2.30169654830000
H           -4.66877174380000        3.34472798380000        3.37893105880000
O           -2.57654176890000       -2.37526196500000        1.15509972340000
H           -2.88249780430000       -2.57008662870000        0.26032287400000
H           -2.40916713740000       -3.23601333700000        1.57414074540000
O            2.70856479620000       -0.89297530780000       -0.39805870470000
H            2.49236829080000       -0.02237643100000       -0.75777288910000
H            2.11881906780000       -1.53470323240000       -0.81218368600000
O            8.57530717210000        1.46947492760000       -1.03172331470000
H            9.15345608740000        0.88195630890000       -1.55366032620000
H            7.78957278540000        1.63149410280000       -1.59088597890000
O           -2.82417746950000        2.49190478870000        0.45908221680000
H           -3.73752954560000        2.23401451090000        0.60454785880000
H           -2.82112690310000        3.47263297550000        0.43853657000000
O            1.41008010230000        1.45156595110000       -1.33886780260000
H            0.44442492370000        1.42791739500000       -1.40516134700000
H            1.66532493100000        2.37877400300000       -1.38221241240000
O            1.46545791840000       -3.20508474560000        7.25165320950000
H            0.91045401280000       -3.38226980420000        6.46339899830000
H            1.09842650990000       -2.40633443040000        7.63500444980000
O           -1.87222078000000       -4.69600501770000        2.26425579460000
H           -2.00925733840000       -5.02103565970000        3.17248508890000
H           -1.02275957410000       -5.03169741510000        1.95387034200000
O            0.83837174810000       -0.26639658910000       -7.79525779340000
H            0.07165116700000       -0.85042951540000       -7.72298791960000
H            0.47960303220000        0.62531988560000       -7.61871928430000
O            4.43166110690000        6.31598568800000       -1.02399346280000
H            3.75817535400000        5.86201819700000       -0.48848818100000
H            4.91189501470000        6.85519506430000       -0.35817492760000
O            0.00819233570000        4.44334930760000       -5.56567231240000
H           -0.13593818320000        3.87769966630000       -6.34097814200000
H            0.08340799740000        3.79968036570000       -4.81669488250000
O            5.02846859200000       -4.35563600410000       -6.37518374330000
H            4.84622515590000       -3.54469545210000       -6.86444416990000
H            5.90557458020000       -4.24760978550000       -5.98224306790000
O           -0.94578169590000       -4.07897442660000       -0.53176274280000
H           -0.46787617770000       -3.70050042300000        0.21703522900000
H           -0.27903369700000       -4.56221596210000       -1.04580307720000
O           -9.87107140980000       -2.20842154640000        2.84036255670000
H          -10.70538097780000       -2.59290606610000        2.51181400570000
H           -9.21006401070000       -2.47333646740000        2.17069997470000
O           -8.03344040170000       -2.92717058140000        1.01169625180000
H           -7.63965286620000       -3.82555461360000        0.85891790150000
H           -7.72995955410000       -2.40338436610000        0.23537715020000
O           -1.01629334160000       -1.87879888440000        3.40800593950000
H           -0.55236462180000       -2.22840524860000        2.62815830230000
H           -1.95446685510000       -2.05029758240000        3.24675360380000
O           -0.04378565180000        2.74291206520000       -3.56944162100000
H            0.85338033100000        2.62507680030000       -3.23928526460000
H           -0.52760187050000        3.21024462510000       -2.85150334050000
O           -1.66178321470000        6.72420387010000       -2.74137440960000
H           -2.17005753690000        6.88963295100000       -1.93094344220000
H           -2.15276381680000        6.08257841200000       -3.27168935430000
O           -6.47447279390000       -1.93463637560000        3.06294430170000
H           -6.91689538860000       -2.30489830440000        2.27969145180000
H           -7.04609428900000       -2.11317475160000        3.83139805610000
O            6.14925604480000        4.21862725670000        4.97918433490000
H            6.26614019390000        3.62936841360000        5.72866900920000
H            5.60410238450000        3.72266953660000        4.33185276700000
O           -3.80672514380000       -5.64994508950000       -2.81332800830000
H           -4.60218266300000       -6.17510318110000       -2.89503570910000
H           -3.63750052390000       -5.56049542820000       -1.84352926330000
O            2.28619577000000        2.76754653170000        1.39897368100000
H            2.14555723410000        3.08653490920000        2.30975782470000
H            1.39396137610000        2.64843592600000        0.99998614980000
O            3.80879975830000        0.87803970830000       -2.49219954280000
H            3.79372233550000        1.62005557570000       -1.85494339460000
H            4.18512255190000        1.25561604960000       -3.30801171260000
O            0.25898632660000       -6.42815849680000        4.48468391270000
H            0.71986528030000       -7.05825357490000        3.89773109980000
H           -0.66914663150000       -6.67286523940000        4.53989962830000
O           -5.00713924350000       -4.78663407970000        4.24305060180000
H           -5.89782867600000       -5.10362912950000        4.01573333340000
H           -5.14674077900000       -4.05323341630000        4.87100927230000
O            5.30469942240000       -4.28381813180000       -1.29266394560000
H            4.99820597540000       -5.10296787920000       -0.85638851010000
H            5.94857053320000       -4.57020639720000       -1.96611829480000
O            2.80111229680000        4.85473604850000       -6.09551619740000
H            3.12584297610000        5.29779980340000       -5.30001045790000
H            1.84977943480000        4.72728008440000       -5.97542739810000
O            3.89809719270000        3.01236649030000       -0.77891412590000
H            3.37735148660000        2.75816604530000       -0.00788778570000
H            4.77495756920000        3.24452304600000       -0.43694965670000
O            2.19472420320000       -1.67473607360000       -5.89519864200000
H            2.13966062290000       -1.24820679780000       -5.01896092870000
H            1.73681650510000       -1.09618388910000       -6.54180437190000
O           -2.64382368150000       -1.62745973560000       -3.82331641380000
H           -2.04544244380000       -2.39916695980000       -3.83575657960000
H           -2.07513989800000       -0.85277196990000       -3.95120505010000
O            0.31606039440000       -3.56768078840000       -5.87384483980000
H           -0.33692548590000       -2.95943068820000       -6.26684030990000
H            1.14683399240000       -3.05031062810000       -5.86747956390000
O            1.88982415560000        4.27498643410000        3.55135409950000
H            2.66027588580000        4.85421789080000        3.61839913750000
H            1.57734657440000        4.09699821700000        4.46189489350000
O           -0.27059140520000        2.01144777510000       -6.78453686440000
H            0.45432058930000        1.86127932130000       -6.14813578980000
H           -1.08512043780000        1.63731457490000       -6.41149191010000
O            3.78661322010000        0.52312025860000        1.74324685290000
H            4.44282620580000        0.52339441090000        1.02046445840000
H            3.31572075880000        1.36657082090000        1.66567950380000
O           -2.01123158490000        5.39448165370000        4.04464420430000
H           -1.95515111410000        4.47220822510000        3.73604444990000
H           -2.86490528770000        5.51083365710000        4.48978709360000
O            3.35537620040000        2.45919690820000        6.55213285380000
H            4.32020833580000        2.33440801730000        6.55784933880000
H            2.95999904180000        1.64941461650000        6.92629868830000
O            1.78131324160000       -0.45293983280000       -3.53263777090000
H            2.39824529970000        0.09987406970000       -2.99950972350000
H            1.49122490650000       -1.18943131100000       -2.92754094310000
O           -4.01327557400000       -1.65111085660000       -6.37664098030000
H           -4.05163573160000       -2.34552826010000       -5.67323587630000
H           -4.31149384680000       -2.07583488720000       -7.18175802880000
O           -0.66949538800000        0.20717193960000       -4.35146527740000
H            0.19409225130000       -0.12711997300000       -4.04632789480000
H           -0.64680573630000        1.15088092410000       -4.11489161180000
O           -0.85052291270000       -7.23943022130000       -0.79325180110000
H           -0.96497466600000       -7.66475497180000        0.06400981450000
H           -0.10409314480000       -6.62795988500000       -0.71770720380000
O            8.70831003370000       -6.25367106590000        2.62285435470000
H            8.23907253210000       -6.60650955610000        1.84351570910000
H            9.37427713070000       -5.64843974320000        2.27843928290000
O            2.22680144550000       -7.44552681400000        0.23008111420000
H            3.15018740100000       -7.17507205720000        0.04736710570000
H            1.90620398230000       -7.82033515970000       -0.59780773430000
O           -5.60146839010000        0.60541363350000        3.07018810170000
H           -4.79812741740000        0.50875080910000        2.51053231770000
H           -6.04533552260000       -0.26250741250000        2.99152497320000
O            8.28239062240000        4.93494608210000        3.34420574960000
H            7.57151842280000        4.74879189890000        3.98070282390000
H            8.67574529670000        4.08089531390000        3.10337948500000
O            8.69026074030000        3.64818990770000       -3.54273677970000
H            7.83965562460000        4.04052282360000       -3.79262382510000
H            8.87563184630000        3.95975323360000       -2.63615542920000
O            9.39281358960000        4.05098617020000       -0.91001889120000
H            9.09636333330000        3.13469332700000       -0.74495233110000
H            8.99116923610000        4.61909171010000       -0.23089918830000
O           -4.33070996970000        0.39778380430000       -1.08719936540000
H           -4.72652250090000       -0.18291684760000       -1.75909245210000
H           -4.87285676310000        1.20239304000000       -1.04806697320000
O            4.75045318320000        3.10047471790000       -6.69866757650000
H            4.43130933520000        2.43927387890000       -7.32729065660000
H            3.99747295790000        3.71079303000000       -6.54740923350000
O           -2.56408994070000        0.36330917210000        4.05706015430000
H           -1.66547264080000        0.01492094860000        3.99129794660000
H           -3.14785113380000       -0.40673739540000        3.87562452650000
O           -9.80733156290000       -0.22140904680000       -0.38417090580000
H           -8.87963253220000       -0.19922301840000       -0.07496144370000
H          -10.09159359240000        0.71030652960000       -0.40612023120000
O           -8.03064023280000        1.89198087540000       -5.77772486710000
H           -7.32768518540000        1.23472499590000       -5.89436846370000
H           -8.62364901420000        1.53124711810000       -5.09238254510000
O            7.19184286940000       -6.47824647080000        0.38316916450000
H            7.82360080970000       -6.23350558940000       -0.31563225460000
H            6.92435782910000       -5.61093931200000        0.75867661760000
O            6.75208085930000       -4.02687648580000        1.37573058120000
H            7.33955688610000       -3.83341692950000        2.11946642610000
H            7.06018563780000       -3.48062306380000        0.62993851860000
O           -4.77975109660000        3.32325124300000        5.16491006990000
H           -4.69859611680000        4.29008538640000        5.21586042710000
H           -5.70888967440000        3.12886108430000        5.36057077520000
O           -0.21470075770000        5.07243945570000        2.04813249640000
H            0.54703711010000        4.95891922400000        2.64296212610000
H            0.03969110550000        5.63089202050000        1.29270554830000
O           -7.33532566840000        4.75250133080000        3.20537791110000
H           -8.30775448850000        4.85642596110000        2.99262328870000
H           -6.91137702900000        5.60300216000000        3.07431074440000
O           -2.73340182650000        5.01865714400000        1.10781824350000
H           -1.90588765480000        5.15591922960000        1.58676830020000
H           -2.84142181550000        5.77326458880000        0.49955975760000
O            0.15560670350000        8.44106345930000        1.21709050180000
H            0.34736368050000        9.37767408840000        1.22644674900000
H            0.83380073270000        8.00333765200000        1.77296934600000
O            2.13842977990000       -4.43086247960000        3.24182108280000
H            2.29275532680000       -4.73107295170000        4.15128776230000
H            2.97804084510000       -4.53705920100000        2.76157052710000
O            6.09523842770000       -1.33475863290000        2.55646413770000
H            6.86919485380000       -1.88070063740000        2.72876499480000
H            5.77703739230000       -1.55755369250000        1.66509706450000
O           -1.24758274490000       -1.46233166370000       -6.51201723230000
H           -1.04770102020000       -0.82212118080000       -5.80562841850000
H           -2.20884671250000       -1.57828586830000       -6.48887054220000
O           -8.65272331600000        0.27516348260000        2.78191268970000
H           -9.16977008230000       -0.54593608220000        2.78472451710000
H           -8.31860864160000        0.40556502510000        3.69329678980000
O            5.33686421720000        1.42063784760000       -4.69132940830000
H            5.10851728550000        2.03494763770000       -5.41890199660000
H            5.49245061500000        0.53857022490000       -5.07978123000000
O           -4.35357166420000        3.27927090070000       -6.18384722170000
H           -3.74220471670000        3.88905387950000       -5.74144804140000
H           -5.20982288790000        3.37551761200000       -5.74503108890000
O            6.81385632830000       -2.29042906980000        5.45934638710000
H            6.62030327990000       -2.38799246280000        6.39226892210000
H            6.00911696120000       -2.62065816350000        4.98086490560000
O            4.15919483080000       -3.18483083520000        6.89917551500000
H            4.23190216950000       -3.39229177260000        5.95160309970000
H            3.20532819730000       -3.18701970510000        7.10430469920000
O            0.83960423740000       -6.19050496500000       -5.10310076480000
H            0.12461376140000       -6.29328169060000       -4.45147896200000
H            0.60892500320000       -5.38605884360000       -5.59043732660000
O            5.96565492880000        4.32129049360000       -4.46782565900000
H            5.62388684910000        5.20741460570000       -4.32019744430000
H            5.79359427550000        4.09132349360000       -5.38932895530000
O            7.03590781170000       -5.40926039610000       -3.03901966230000
H            7.22260942360000       -4.93472642800000       -3.86841431030000
H            7.85787870810000       -5.42429225510000       -2.53085089650000
O            4.31841141780000       -0.46638501190000        4.41806381860000
H            5.01163722700000       -0.73448178560000        3.78786249910000
H            4.66518844160000       -0.48923730260000        5.32696103140000
O            2.69622205010000       -3.92637598680000       -0.06006370720000
H            3.21658207560000       -4.48380120940000        0.53419446680000
H            1.96202306650000       -3.54221965920000        0.45402593200000
O            3.48851108070000       -2.22484258610000        2.26220747620000
H            3.70911424040000       -2.59035567410000        1.39799015520000
H            3.68296489390000       -1.27859663570000        2.19439827970000
O           10.50909915500000       -1.55504437590000       -0.19894119290000
H           10.59058195100000       -1.26045268150000       -1.11926187520000
H           10.61344506600000       -0.72255430980000        0.31023306880000
O           -5.57635758420000       -2.69850957140000        5.94638649020000
H           -6.53445345500000       -2.78452082860000        5.96166682620000
H           -5.40816975740000       -1.74222810100000        5.82961232690000
O           -2.70624631210000       -3.01098505730000        5.89841187320000
H           -3.42452082900000       -2.92870509450000        6.52857579680000
H           -2.01039020430000       -2.36769089850000        6.13842522490000
O          -10.37361084740000        3.14380981110000       -2.57542211210000
H           -9.47349816670000        3.48935078640000       -2.46845734210000
H          -10.24337186610000        2.33413545660000       -3.10139643150000
O           -3.24982381630000       -2.88035036940000       -1.45908471880000
H           -2.43538412670000       -3.40233730220000       -1.38310949150000
H           -3.14994842530000       -2.34165543160000       -2.26066513910000
O            0.39949237690000        6.40892816470000        4.80569308960000
H           -0.48052963370000        6.10643097410000        4.51188067250000
H            0.68567627160000        5.74796081830000        5.44749766780000
O           -9.85842851030000        4.80458162230000        2.66790159090000
H           -9.96525711550000        5.06336678840000        1.73713706800000
H          -10.14620769420000        3.86925586560000        2.68759206990000
O           -5.23411878660000       -1.32677358270000       -2.92184044890000
H           -6.04275782540000       -1.50032701080000       -3.42424131640000
H           -4.47993624260000       -1.49955312420000       -3.49775866810000
O           -8.85428616980000        2.44424001140000       -0.10415264390000
H           -8.19043906550000        2.37776937430000        0.60945962070000
H           -8.38270716170000        2.53490566720000       -0.94018618290000
O           -3.06836573900000        1.56800323280000        6.33468744230000
H           -2.85392890080000        1.09015281860000        5.49855799910000
H           -3.59469527280000        2.33341125700000        6.04889863740000
O            6.69081275960000       -5.42205191920000        4.13105414160000
H            7.43916520260000       -5.72872504200000        3.56350583250000
H            7.03147472140000       -5.40651553200000        5.02524635480000
O            5.66873984260000        0.70851481840000       -0.13760135150000
H            5.67931081620000        1.20301016220000       -0.96823801560000
H            5.79545274350000       -0.22135166330000       -0.37379335990000
O           -7.52681379920000       -5.29949253360000        3.29206463000000
H           -8.23727656300000       -4.66400971180000        3.39333663420000
H           -7.48428324090000       -5.54266290860000        2.35989411950000
O            2.50310898940000        5.36178098360000        0.60270468180000
H            2.52989835340000        4.44067522620000        0.93062936370000
H            2.44464497520000        5.93912509730000        1.38149701340000
O           -4.40917645180000       -3.70449061590000       -4.75383434470000
H           -3.98497220000000       -4.24146563520000       -4.06682319150000
H           -5.32939173090000       -3.99208375040000       -4.76397470980000
O          -11.43452719890000        2.01638440690000       -0.37471242730000
H          -11.11550342310000        2.47771523290000       -1.18222567050000
H          -12.30427219330000        1.66137039830000       -0.55650975120000
O           -7.88413480930000        0.56426506600000        5.33963383660000
H           -6.95491360050000        0.33447731590000        5.54168178050000
H           -7.91271905080000        1.53170636520000        5.41148757120000
O           -8.28497953570000       -2.19486736040000        5.06592203890000
H           -8.33055772610000       -1.28076778650000        5.37950609670000
H           -9.02086131350000       -2.30029927400000        4.44025537030000
O           -5.75239718040000       -4.01488774840000       -1.65871853320000
H           -4.82216699490000       -3.72639336190000       -1.60833131040000
H           -6.29547845130000       -3.20695817650000       -1.53890688680000
O           -6.98470172100000       -4.46493009240000       -3.93849841590000
H           -7.77305529800000       -4.92102019100000       -3.60877564160000
H           -6.44744815980000       -4.34374301650000       -3.11640925860000
O           10.99694816310000        2.12636767030000       -3.71153658320000
H           10.22011112350000        2.71351954460000       -3.72703781240000
H           11.63061778030000        2.49136589870000       -4.32833187540000
O            1.11395732230000       -5.41262784840000       -1.58152054730000
H            1.53773902200000       -6.12968952270000       -2.07386398440000
H            1.81331371740000       -4.90704977480000       -1.11729172860000
O           -5.38087715070000       -1.86521555180000        0.38189908420000
H           -5.12691586930000       -2.64995693510000        0.89924974600000
H           -4.88849949080000       -1.89835117900000       -0.44189695710000
O           10.86197907210000        0.86398131580000        0.95175326090000
H           11.31507223940000        1.37230171760000        0.25019738780000
H           10.21563441270000        1.48768219350000        1.31998629530000
O           -3.25607403520000       -5.46749295600000       -0.19922113940000
H           -3.28326843170000       -6.27471799170000        0.34866196600000
H           -2.33479721770000       -5.14432400400000       -0.19088366260000
O           -6.06096653850000        0.00309586480000       -5.53542039510000
H           -5.32458199400000       -0.51844939300000       -5.89074175750000
H           -6.68409912680000       -0.64420963260000       -5.16121187690000
O            0.10910418340000        6.20351847850000       -0.39224329370000
H            1.06038486900000        6.02718320490000       -0.32311121920000
H           -0.02942576940000        7.14123619450000       -0.22256535610000
O            5.15396851420000       -1.92549527330000        0.00229511130000
H            4.27310787270000       -1.56198327300000       -0.22122077020000
H            5.24112348780000       -2.75905911020000       -0.48740569970000
O           -0.17239695050000        2.91179683160000        0.58214292010000
H           -0.31701749050000        3.64459693820000        1.22113054590000
H           -0.48851494600000        3.26015149010000       -0.27748164870000
O            3.43677985880000        0.82348679210000       -7.62611957300000
H            2.73864670160000        0.56623709700000       -8.23448655460000