      -----------------------------------------------------------      
     |                   =====================                   |     
     |                           x T B                           |     
     |                   =====================                   |     
     |                         S. Grimme                         |     
     |          Mulliken Center for Theoretical Chemistry        |     
     |                    University of Bonn                     |     
      -----------------------------------------------------------      

   * xtb version 6.5.1 (579679a) compiled by 'ehlert@majestix' on 2022-07-11

   xtb is free software: you can redistribute it and/or modify it under
   the terms of the GNU Lesser General Public License as published by
   the Free Software Foundation, either version 3 of the License, or
   (at your option) any later version.
   
   xtb is distributed in the hope that it will be useful,
   but WITHOUT ANY WARRANTY; without even the implied warranty of
   MERCHANTABILITY or FITNESS FOR A PARTICULAR PURPOSE.  See the
   GNU Lesser General Public License for more details.
   
   Cite this work as:
   * C. Bannwarth, E. Caldeweyher, S. Ehlert, A. Hansen, P. Pracht,
     J. Seibert, S. Spicher, S. Grimme, WIREs Comput. Mol. Sci., 2020, 11,
     e01493. DOI: 10.1002/wcms.1493
   
   for GFN2-xTB:
   * C. Bannwarth, S. Ehlert and S. Grimme., J. Chem. Theory Comput., 2019,
     15, 1652-1671. DOI: 10.1021/acs.jctc.8b01176
   for GFN1-xTB:
   * S. Grimme, C. Bannwarth, P. Shushkov, J. Chem. Theory Comput., 2017,
     13, 1989-2009. DOI: 10.1021/acs.jctc.7b00118
   for GFN0-xTB:
   * P. Pracht, E. Caldeweyher, S. Ehlert, S. Grimme, ChemRxiv, 2019, preprint.
     DOI: 10.26434/chemrxiv.8326202.v1
   for GFN-FF:
   * S. Spicher and S. Grimme, Angew. Chem. Int. Ed., 2020, 59, 15665-15673.
     DOI: 10.1002/anie.202004239
   
   for ALPB and GBSA implicit solvation:
   * S. Ehlert, M. Stahn, S. Spicher, S. Grimme, J. Chem. Theory Comput.,
     2021, 17, 4250-4261. DOI: 10.1021/acs.jctc.1c00471
   
   for DFT-D4:
   * E. Caldeweyher, C. Bannwarth and S. Grimme, J. Chem. Phys., 2017,
     147, 034112. DOI: 10.1063/1.4993215
   * E. Caldeweyher, S. Ehlert, A. Hansen, H. Neugebauer, S. Spicher,
     C. Bannwarth and S. Grimme, J. Chem. Phys., 2019, 150, 154122.
     DOI: 10.1063/1.5090222
   * E. Caldeweyher, J.-M. Mewes, S. Ehlert and S. Grimme, Phys. Chem. Chem. Phys.
     2020, 22, 8499-8512. DOI: 10.1039/D0CP00502A
   
   for sTDA-xTB:
   * S. Grimme and C. Bannwarth, J. Chem. Phys., 2016, 145, 054103.
     DOI: 10.1063/1.4959605
   
   in the mass-spec context:
   * V. Asgeirsson, C. Bauer and S. Grimme, Chem. Sci., 2017, 8, 4879.
     DOI: 10.1039/c7sc00601b
   * J. Koopman and S. Grimme, ACS Omega 2019, 4, 12, 15120-15133.
     DOI: 10.1021/acsomega.9b02011
   
   for metadynamics refer to:
   * S. Grimme, J. Chem. Theory Comput., 2019, 155, 2847-2862
     DOI: 10.1021/acs.jctc.9b00143
   
   for SPH calculations refer to:
   * S. Spicher and S. Grimme, J. Chem. Theory Comput., 2021, 17, 1701-1714
     DOI: 10.1021/acs.jctc.0c01306
   
   with help from (in alphabetical order)
   P. Atkinson, C. Bannwarth, F. Bohle, G. Brandenburg, E. Caldeweyher
   M. Checinski, S. Dohm, S. Ehlert, S. Ehrlich, I. Gerasimov, C. Hölzer
   A. Katbashev, J. Koopman, C. Lavigne, S. Lehtola, F. März, M. Müller,
   F. Musil, H. Neugebauer, J. Pisarek, C. Plett, P. Pracht, F. Pultar,
   J. Seibert, P. Shushkov, S. Spicher, M. Stahn, M. Steiner, T. Strunk,
   J. Stückrath, T. Rose, and J. Unsleber
   
 * started run on 2022/11/24 at 12:21:40.835     

           -------------------------------------------------
          |                Calculation Setup                |
           -------------------------------------------------

          program call               : xtb solvent_cluster.coord --gfn2 --sp --lmo --chrg 0
          hostname                   : cn0430
          coordinate file            : solvent_cluster.coord
          omp threads                :                     2

   ID    Z sym.   atoms
    1    8 o      1, 4, 7, 10, 13, 16, 19, 22, 25, 28, 31, 34, 37, 40, 43,
                  46, 49, 52, 55, 58, 61, 64, 67, 70, 73, 76, 79, 82, 85, 88,
                  91, 94, 97, 100, 103, 106, 109, 112, 115, 118, 121, 124,
                  127, 130, 133, 136, 139, 142, 145, 148, 151, 154, 157, 160,
                  163, 166, 169, 172, 175, 178, 181, 184, 187, 190, 193, 196,
                  199, 202, 205, 208, 211, 214, 217, 220, 223, 226, 229, 232,
                  235, 238, 241, 244, 247, 250, 253, 256, 259, 262, 265, 268,
                  271, 274, 277, 280, 283, 286, 289, 292, 295, 298, 301, 304,
                  307, 310, 313, 316, 319, 322, 325, 328, 331, 334, 337, 340,
                  343, 346, 349, 352, 355, 358, 361, 364, 367, 370, 373, 376,
                  379, 382, 385, 388, 391, 394, 397, 400, 403, 406, 409, 412,
                  415, 418, 421, 424, 427, 430, 433, 436, 439, 442, 445, 448,
                  451, 454, 457, 460, 463, 466, 469, 472, 475, 478, 481, 484,
                  487, 490, 493, 496, 499, 502, 505, 508, 511, 514, 517, 520,
                  523, 526, 529, 532, 535, 538, 541, 544, 547, 550, 553, 556,
                  559, 562, 565, 568, 571, 574, 577, 580, 583, 586, 589, 592,
                  595, 598, 601, 604, 607, 610, 613, 616, 619, 622, 625, 628,
                  631, 634, 637, 640, 643, 646, 649, 652, 655, 658, 661, 664,
                  667, 670, 673, 676, 679, 682, 685, 688, 691, 694, 697, 700,
                  703, 706, 709, 712, 715, 718, 721, 724, 727, 730, 733, 736,
                  739, 742, 745, 748, 751, 754
    2    1 h      2, 3, 5, 6, 8, 9, 11, 12, 14, 15, 17, 18, 20, 21, 23, 24,
                  26, 27, 29, 30, 32, 33, 35, 36, 38, 39, 41, 42, 44, 45, 47,
                  48, 50, 51, 53, 54, 56, 57, 59, 60, 62, 63, 65, 66, 68, 69,
                  71, 72, 74, 75, 77, 78, 80, 81, 83, 84, 86, 87, 89, 90, 92,
                  93, 95, 96, 98, 99, 101, 102, 104, 105, 107, 108, 110, 111,
                  113, 114, 116, 117, 119, 120, 122, 123, 125, 126, 128, 129,
                  131, 132, 134, 135, 137, 138, 140, 141, 143, 144, 146, 147,
                  149, 150, 152, 153, 155, 156, 158, 159, 161, 162, 164, 165,
                  167, 168, 170, 171, 173, 174, 176, 177, 179, 180, 182, 183,
                  185, 186, 188, 189, 191, 192, 194, 195, 197, 198, 200, 201,
                  203, 204, 206, 207, 209, 210, 212, 213, 215, 216, 218, 219,
                  221, 222, 224, 225, 227, 228, 230, 231, 233, 234, 236, 237,
                  239, 240, 242, 243, 245, 246, 248, 249, 251, 252, 254, 255,
                  257, 258, 260, 261, 263, 264, 266, 267, 269, 270, 272, 273,
                  275, 276, 278, 279, 281, 282, 284, 285, 287, 288, 290, 291,
                  293, 294, 296, 297, 299, 300, 302, 303, 305, 306, 308, 309,
                  311, 312, 314, 315, 317, 318, 320, 321, 323, 324, 326, 327,
                  329, 330, 332, 333, 335, 336, 338, 339, 341, 342, 344, 345,
                  347, 348, 350, 351, 353, 354, 356, 357, 359, 360, 362, 363,
                  365, 366, 368, 369, 371, 372, 374, 375, 377, 378, 380, 381,
                  383, 384, 386, 387, 389, 390, 392, 393, 395, 396, 398, 399,
                  401, 402, 404, 405, 407, 408, 410, 411, 413, 414, 416, 417,
                  419, 420, 422, 423, 425, 426, 428, 429, 431, 432, 434, 435,
                  437, 438, 440, 441, 443, 444, 446, 447, 449, 450, 452, 453,
                  455, 456, 458, 459, 461, 462, 464, 465, 467, 468, 470, 471,
                  473, 474, 476, 477, 479, 480, 482, 483, 485, 486, 488, 489,
                  491, 492, 494, 495, 497, 498, 500, 501, 503, 504, 506, 507,
                  509, 510, 512, 513, 515, 516, 518, 519, 521, 522, 524, 525,
                  527, 528, 530, 531, 533, 534, 536, 537, 539, 540, 542, 543,
                  545, 546, 548, 549, 551, 552, 554, 555, 557, 558, 560, 561,
                  563, 564, 566, 567, 569, 570, 572, 573, 575, 576, 578, 579,
                  581, 582, 584, 585, 587, 588, 590, 591, 593, 594, 596, 597,
                  599, 600, 602, 603, 605, 606, 608, 609, 611, 612, 614, 615,
                  617, 618, 620, 621, 623, 624, 626, 627, 629, 630, 632, 633,
                  635, 636, 638, 639, 641, 642, 644, 645, 647, 648, 650, 651,
                  653, 654, 656, 657, 659, 660, 662, 663, 665, 666, 668, 669,
                  671, 672, 674, 675, 677, 678, 680, 681, 683, 684, 686, 687,
                  689, 690, 692, 693, 695, 696, 698, 699, 701, 702, 704, 705,
                  707, 708, 710, 711, 713, 714, 716, 717, 719, 720, 722, 723,
                  725, 726, 728, 729, 731, 732, 734, 735, 737, 738, 740, 741,
                  743, 744, 746, 747, 749, 750, 752, 753, 755, 756

molecular fragmentation (1/2 indicates fragments):
111222222222222222222222222222222222222222222222222222222222222222222222
222222222222222222222222222222222222222222222222222222222222222222222222
222222222222222222222222222222222222222222222222222222222222222222222222
222222222222222222222222222222222222222222222222222222222222222222222222
222222222222222222222222222222222222222222222222222222222222222222222222
222222222222222222222222222222222222222222222222222222222222222222222222
222222222222222222222222222222222222222222222222222222222222222222222222
222222222222222222222222222222222222222222222222222222222222222222222222
222222222222222222222222222222222222222222222222222222222222222222222222
222222222222222222222222222222222222222222222222222222222222222222222222
222222222222222222222222222222222222
# atoms in fragment 1/2:     3   753
 fragment masses (1/2) :       18.02     4521.84
CMA distance (Bohr)    :  16.822
constraining FC (au)   :  0.0500

           -------------------------------------------------
          |                 G F N 2 - x T B                 |
           -------------------------------------------------

        Reference                      10.1021/acs.jctc.8b01176
      * Hamiltonian:
        H0-scaling (s, p, d)           1.850000    2.230000    2.230000
        zeta-weighting                 0.500000
      * Dispersion:
        s8                             2.700000
        a1                             0.520000
        a2                             5.000000
        s9                             5.000000
      * Repulsion:
        kExp                           1.500000    1.000000
        rExp                           1.000000
      * Coulomb:
        alpha                          2.000000
        third order                    shell-resolved
        anisotropic                    true
        a3                             3.000000
        a5                             4.000000
        cn-shift                       1.200000
        cn-exp                         4.000000
        max-rad                        5.000000


          ...................................................
          :                      SETUP                      :
          :.................................................:
          :  # basis functions                1512          :
          :  # atomic orbitals                1512          :
          :  # shells                         1008          :
          :  # electrons                      2016          :
          :  max. iterations                   250          :
          :  Hamiltonian                  GFN2-xTB          :
          :  restarted?                      false          :
          :  GBSA solvation                  false          :
          :  PC potential                    false          :
          :  electronic temp.          300.0000000     K    :
          :  accuracy                    1.0000000          :
          :  -> integral cutoff          0.2500000E+02      :
          :  -> integral neglect         0.1000000E-07      :
          :  -> SCF convergence          0.1000000E-05 Eh   :
          :  -> wf. convergence          0.1000000E-03 e    :
          :  Broyden damping             0.4000000          :
          ...................................................

 iter      E             dE          RMSdq      gap      omega  full diag
   1  -1290.9879608 -0.129099E+04  0.407E+00    8.43       0.0  T
   2  -1291.0633375 -0.753768E-01  0.242E+00    7.19       1.0  T
   3  -1291.0951297 -0.317922E-01  0.210E-01    5.32       1.0  T
   4  -1291.1003715 -0.524182E-02  0.456E-02    5.83       1.0  T
   5  -1291.1004556 -0.840804E-04  0.310E-02    5.75       1.0  T
   6  -1291.1004956 -0.399969E-04  0.399E-03    5.79       1.0  T
   7  -1291.1004977 -0.209465E-05  0.741E-04    5.78       4.9  T
   8  -1291.1004977 -0.286552E-07  0.382E-04    5.78       9.5  T
   9  -1291.1004978 -0.139921E-07  0.593E-05    5.78      61.3  T

   *** convergence criteria satisfied after 9 iterations ***

         #    Occupation            Energy/Eh            Energy/eV
      -------------------------------------------------------------
         1        2.0000           -0.6933022             -18.8657
       ...           ...                  ...                  ...
      1002        2.0000           -0.3536562              -9.6235
      1003        2.0000           -0.3497600              -9.5175
      1004        2.0000           -0.3452193              -9.3939
      1005        2.0000           -0.3408136              -9.2740
      1006        2.0000           -0.3339629              -9.0876
      1007        2.0000           -0.3306670              -8.9979
      1008        2.0000           -0.3021672              -8.2224 (HOMO)
      1009                         -0.0896369              -2.4391 (LUMO)
      1010                         -0.0715380              -1.9466
      1011                         -0.0647822              -1.7628
      1012                         -0.0630562              -1.7158
      1013                         -0.0540971              -1.4721
       ...                                ...                  ...
      1512                          0.4953657              13.4796
      -------------------------------------------------------------
                  HL-Gap            0.2125302 Eh            5.7832 eV
             Fermi-level           -0.1959020 Eh           -5.3308 eV
 
 localization/xTB-IFF output generation
 averaging CT terms over            1  occ. levels
 averaging CT terms over            1  virt. levels
 dipole moment from electron density (au)
     X       Y       Z   
   3.9237   4.3936   0.7105  total (Debye):   15.081
cpu  time for init local    0.76 s
wall time for init local    0.38 s
 doing rotations ...
 initialization of trafo matrix to unity

 converged in     16 iterations, threshold :   0.99995682D-06
 doing transformations ...
 lmo centers(Z=2) and atoms on file <lmocent.coord>
 LMO Fii/eV  ncent    charge center   contributions...
    1 LP   *******   0.00  -6.32634  -3.51678  -6.34233   31O : 45.65  361O : 32.04  181O : 28.27  502O : 27.94   76O : 24.81  610O : 24.66  172O : 24.57   85O : 23.34  508O : 22.47   49O : 21.69  199O : 21.12  223O : 20.95
  436O : 20.72  607O : 19.67  490O : 18.98   13O : 18.90   55O : 18.60   67O : 17.58  304O : 16.99  184O : 16.91   25O : 16.57  349O : 16.31  646O : 16.09  235O : 15.80
  484O : 15.67  307O : 15.55  472O : 15.38  382O : 15.21   34O : 14.88  220O : 14.67  103O : 14.20   52O : 13.91  265O : 13.64  364O : 13.46  616O : 13.31  586O : 13.28
    7O : 12.95  481O : 12.91  256O : 12.87  703O : 12.85  553O : 12.60  280O : 12.35  685O : 12.33  160O : 12.27  403O : 11.89  400O : 11.74  193O : 11.62  217O : 10.70
  175O : 10.64   64O : 10.61  598O : 10.51  442O : 10.31  298O : 10.18  694O : 10.13  316O : 10.11  124O : 10.09  337O : 10.07  331O :  9.85  754O :  9.63  250O :  9.46
  109O :  9.30  115O :  9.24  628O :  9.19  529O :  9.08  562O :  9.05  475O :  8.95   91O :  8.95  697O :  8.94  202O :  8.88  517O :  8.78   37O :  8.74  556O :  8.57
  406O :  8.27  433O :  8.24  391O :  8.14  157O :  8.01   40O :  7.92   46O :  7.92  301O :  7.89  661O :  7.80  367O :  7.79  151O :  7.68  505O :  7.67    1O :  7.63
  571O :  7.52  742O :  7.50  643O :  7.42  112O :  7.39  106O :  7.35  343O :  7.34  142O :  7.28  271O :  7.23    4O :  7.16  370O :  7.07  205O :  6.85  613O :  6.79
  565O :  6.74  121O :  6.68  418O :  6.63  583O :  6.61  448O :  6.51  493O :  6.47   22O :  6.46  274O :  6.45  547O :  6.32  178O :  6.21  352O :  6.16  379O :  6.08
  745O :  6.01  658O :  6.00  100O :  5.97  388O :  5.96  166O :  5.66  355O :  5.57  709O :  5.50  595O :  5.50  514O :  5.48  748O :  5.38  532O :  5.26  580O :  5.13
  652O :  4.93  187O :  4.90  196O :  4.88  145O :  4.88  211O :  4.87  346O :  4.80  253O :  4.79   28O :  4.67  751O :  4.64  577O :  4.64  214O :  4.52  520O :  4.49
  544O :  4.39  589O :  4.35  706O :  4.33  604O :  4.27  655O :  4.24  310O :  4.18  405H :  4.16   88O :  4.16  478O :  4.13  682O :  4.07   10O :  4.03  277O :  3.86
  289O :  3.83  592O :  3.82  736O :  3.82  322O :  3.82  640O :  3.80  496O :  3.72  136O :  3.71  169O :  3.70  139O :  3.66  259O :  3.65  511O :  3.60  523O :  3.58
   19O :  3.55  154O :  3.51   15H :  3.48  313O :  3.44  319O :  3.41  688O :  3.34  673O :  3.30   69H :  3.29  232O :  3.26  700O :  3.25   86H :  3.24  727O :  3.24
  622O :  3.23  487O :  3.21  424O :  3.19  730O :  3.17  334O :  3.17  619O :  3.16  541O :  3.10  118O :  3.07  385O :  3.03  695H :  3.01  268O :  2.98   32H :  2.95
  469O :  2.89  409O :  2.85  358O :  2.82   61O :  2.76  733O :  2.64  609H :  2.63  676O :  2.60  611H :  2.49  445O :  2.47  397O :  2.47  226O :  2.45  229O :  2.43
   82O :  2.41  526O :  2.39  373O :  2.36  366H :  2.32  667O :  2.28  244O :  2.25  262O :  2.21   47H :  2.16  126H :  2.15  739O :  2.12  174H :  2.09   70O :  2.07
  568O :  2.03  306H :  2.03  550O :  2.02  412O :  1.99  104H :  1.98  473H :  1.95   53H :  1.91  182H :  1.88  163O :  1.88  427O :  1.86  325O :  1.85  460O :  1.85
  724O :  1.82  376O :  1.77  439O :  1.76   27H :  1.76  670O :  1.74  238O :  1.74  148O :  1.73  463O :  1.71  503H :  1.71  415O :  1.71   16O :  1.65  631O :  1.64
   78H :  1.63  394O :  1.58  420H :  1.55  664O :  1.55  721O :  1.48  158H :  1.47  637O :  1.46  286O :  1.44   38H :  1.39  272H :  1.38  691O :  1.38  282H :  1.35
  558H :  1.35  312H :  1.34  369H :  1.33  451O :  1.32   43O :  1.30  444H :  1.29  466O :  1.29  356H :  1.27  247O :  1.25  479H :  1.24   73O :  1.24  601O :  1.23
   94O :  1.22   79O :  1.16  295O :  1.15  504H :  1.14    8H :  1.14  421O :  1.14  360H :  1.12  476H :  1.12  660H :  1.09   50H :  1.08  584H :  1.07  559O :  1.06
  195H :  1.06  625O :  1.05  225H :  1.04  471H :  1.03  138H :  1.03  344H :  1.03  117H :  1.02  130O :  1.02  305H :  1.02  208O :  1.00   87H :  1.00  538O :  0.99
  292O :  0.99  634O :  0.98  387H :  0.94  718O :  0.93   57H :  0.93  449H :  0.92  380H :  0.91  179H :  0.90  167H :  0.89  574O :  0.89  338H :  0.88   11H :  0.88
  101H :  0.87  454O :  0.86  509H :  0.84  535O :  0.84  180H :  0.84   24H :  0.83  498H :  0.82  499O :  0.80  222H :  0.80  699H :  0.79  599H :  0.78  190O :  0.77
  749H :  0.76  283O :  0.76  203H :  0.76  690H :  0.76  649O :  0.75  430O :  0.75  241O :  0.75  715O :  0.74  644H :  0.73  318H :  0.73  513H :  0.72   58O :  0.72
  368H :  0.71  555H :  0.70  153H :  0.67   56H :  0.66  159H :  0.66  340O :  0.65   18H :  0.64  291H :  0.62  401H :  0.62  110H :  0.62   41H :  0.62  123H :  0.62
  597H :  0.61  347H :  0.61  351H :  0.61  255H :  0.60  518H :  0.60  125H :  0.60  512H :  0.59  578H :  0.59  665H :  0.59  133O :  0.59  281H :  0.59   97O :  0.55
  440H :  0.55  679O :  0.54  434H :  0.54  266H :  0.54  605H :  0.54  675H :  0.54  162H :  0.54  252H :  0.54  600H :  0.53  320H :  0.53  212H :  0.53   48H :  0.53
  279H :  0.52  734H :  0.52  566H :  0.51  127O :  0.51  407H :  0.50  674H :  0.50  206H :  0.50  371H :  0.49  300H :  0.48  582H :  0.48  546H :  0.48  321H :  0.48
  194H :  0.47  656H :  0.47  549H :  0.47  594H :  0.47  317H :  0.46  339H :  0.46  457O :  0.46  569H :  0.45  402H :  0.45  249H :  0.44  686H :  0.44  642H :  0.44
  362H :  0.42  453H :  0.42  615H :  0.42  467H :  0.42  755H :  0.42  752H :  0.41  408H :  0.39  726H :  0.39  623H :  0.39  572H :  0.39   14H :  0.38  155H :  0.38
  375H :  0.38  146H :  0.38  741H :  0.38  747H :  0.38  728H :  0.37  630H :  0.37  581H :  0.37  723H :  0.37  105H :  0.37  152H :  0.37  365H :  0.36  287H :  0.36
   54H :  0.36  267H :  0.35  641H :  0.35  192H :  0.35  564H :  0.35  299H :  0.35    6H :  0.33  333H :  0.32  602H :  0.32  426H :  0.31  573H :  0.31  657H :  0.31
   51H :  0.31  738H :  0.31  102H :  0.31  608H :  0.30  725H :  0.30  377H :  0.30  636H :  0.30  233H :  0.29  491H :  0.29  570H :  0.29  129H :  0.29  692H :  0.29
  335H :  0.29  149H :  0.28  374H :  0.28  396H :  0.28  275H :  0.28   45H :  0.28  326H :  0.28  132H :  0.28  392H :  0.28  548H :  0.27  230H :  0.27  525H :  0.27
  341H :  0.27  533H :  0.27  219H :  0.26  638H :  0.26  116H :  0.26  708H :  0.26  632H :  0.25  539H :  0.25  185H :  0.25  705H :  0.24  177H :  0.24  633H :  0.24
  666H :  0.24  486H :  0.24  108H :  0.23  143H :  0.23  458H :  0.22  482H :  0.22  236H :  0.22  323H :  0.22  519H :  0.22  204H :  0.21  585H :  0.21  261H :  0.21
   60H :  0.21  698H :  0.21  683H :  0.21  414H :  0.20  702H :  0.20  743H :  0.20  551H :  0.20  398H :  0.20  197H :  0.20  521H :  0.20  441H :  0.20  557H :  0.20
  381H :  0.20  336H :  0.20  140H :  0.20   20H :  0.19  285H :  0.19    2H :  0.19   74H :  0.19  654H :  0.19  729H :  0.19   44H :  0.19  413H :  0.18  411H :  0.18
    9H :  0.18  215H :  0.18   96H :  0.18  258H :  0.17   77H :  0.17  432H :  0.17  719H :  0.17  712O :  0.17  468H :  0.17  446H :  0.16  450H :  0.16  537H :  0.16
  328O :  0.16   71H :  0.15  461H :  0.15  257H :  0.15  429H :  0.15  531H :  0.15  176H :  0.15  596H :  0.15  330H :  0.15  240H :  0.15  228H :  0.15  659H :  0.14
  350H :  0.14  680H :  0.14   83H :  0.14  437H :  0.14  606H :  0.14  386H :  0.13   99H :  0.13   92H :  0.13  234H :  0.13  329H :  0.13   17H :  0.13   84H :  0.13
  435H :  0.13  348H :  0.13  561H :  0.13  428H :  0.12  669H :  0.12  722H :  0.12   95H :  0.11  173H :  0.11  425H :  0.11  218H :  0.11  183H :  0.11  296H :  0.11
  563H :  0.11  515H :  0.11  587H :  0.10  260H :  0.10  624H :  0.10  462H :  0.10  303H :  0.10  603H :  0.10  111H :  0.10  554H :  0.10  591H :  0.10  689H :  0.10
  383H :  0.09  543H :  0.09  542H :  0.09  627H :  0.09  746H :  0.09  506H :  0.09  269H :  0.09  711H :  0.09  507H :  0.09  735H :  0.09  141H :  0.09   63H :  0.08
  447H :  0.08   59H :  0.08   62H :  0.08  237H :  0.08  122H :  0.08  668H :  0.08  128H :  0.08  389H :  0.08  456H :  0.07  164H :  0.07  617H :  0.07    3H :  0.07
  645H :  0.07  678H :  0.07  612H :  0.07
    2 LP   *******   0.00  28.78991 -42.33337  22.78559   31O : 33.93  502O : 25.12  361O : 24.62  181O : 21.71  610O : 19.07   76O : 19.05  172O : 18.87   85O : 17.88  508O : 17.25   49O : 16.66  199O : 16.21  223O : 16.11
  436O : 15.91  607O : 15.10  490O : 14.57   13O : 14.51   55O : 14.29   67O : 13.52  304O : 13.05  184O : 12.98   25O : 12.75  349O : 12.52  646O : 12.36  235O : 12.14
  484O : 12.03  307O : 11.94  472O : 11.81  382O : 11.68   34O : 11.43  220O : 11.19  103O : 10.90   52O : 10.68  265O : 10.47  364O : 10.34  616O : 10.22  586O : 10.20
    7O :  9.98  481O :  9.91  256O :  9.88  703O :  9.87  553O :  9.67  280O :  9.49  685O :  9.47  160O :  9.43  403O :  9.13  400O :  9.02  193O :  8.93  217O :  8.22
  175O :  8.17   64O :  8.15  598O :  8.07  442O :  7.92  298O :  7.82  694O :  7.78  316O :  7.76  124O :  7.75  337O :  7.73  331O :  7.59  754O :  7.39  250O :  7.27
  109O :  7.15  115O :  7.09  628O :  7.06  529O :  6.98  562O :  6.95  202O :  6.93  475O :  6.88   91O :  6.87  697O :  6.87  517O :  6.74   37O :  6.72  556O :  6.58
  406O :  6.35  433O :  6.33  391O :  6.25  157O :  6.15   46O :  6.07  301O :  6.05   40O :  6.04  661O :  5.99  367O :  5.98  151O :  5.90  505O :  5.89    1O :  5.87
  571O :  5.78  742O :  5.76  643O :  5.70  112O :  5.68  142O :  5.65  106O :  5.65  343O :  5.64  271O :  5.55    4O :  5.50  370O :  5.43  205O :  5.26  613O :  5.22
  565O :  5.19  121O :  5.13  418O :  5.09  583O :  5.08  448O :  5.00  493O :  4.97  274O :  4.95   22O :  4.88  547O :  4.85  178O :  4.77  352O :  4.73  379O :  4.67
  745O :  4.61  658O :  4.61  100O :  4.58  388O :  4.57  166O :  4.34  355O :  4.28  709O :  4.22  595O :  4.22  514O :  4.21  748O :  4.13  532O :  4.04  580O :  3.94
  652O :  3.78  187O :  3.76  196O :  3.75  145O :  3.75  211O :  3.74  346O :  3.68  253O :  3.68   28O :  3.60  751O :  3.58  577O :  3.56  214O :  3.47  520O :  3.45
  544O :  3.37  589O :  3.34  706O :  3.33  604O :  3.28  655O :  3.26  310O :  3.21  405H :  3.20   88O :  3.19  478O :  3.15  682O :  3.12   10O :  3.10  277O :  2.96
  289O :  2.94  592O :  2.94  736O :  2.94  322O :  2.93  640O :  2.92  496O :  2.85  136O :  2.85  139O :  2.81  259O :  2.80  169O :  2.78  511O :  2.77  523O :  2.75
   19O :  2.74  154O :  2.69   15H :  2.67  313O :  2.64  319O :  2.62  688O :  2.57  673O :  2.54   32H :  2.54   69H :  2.53  232O :  2.50  700O :  2.50  727O :  2.48
  622O :  2.48   86H :  2.48  487O :  2.46  424O :  2.45  730O :  2.44  334O :  2.44  541O :  2.38  619O :  2.36  118O :  2.36  385O :  2.33  695H :  2.31  268O :  2.29
  469O :  2.22  409O :  2.21  358O :  2.17   61O :  2.12  733O :  2.03  609H :  2.02  676O :  2.00  611H :  1.92  445O :  1.90  397O :  1.89  226O :  1.88  229O :  1.86
   82O :  1.85  526O :  1.84  373O :  1.81  366H :  1.78  667O :  1.75  244O :  1.73  262O :  1.69   47H :  1.65  126H :  1.65  739O :  1.63  174H :  1.60   70O :  1.59
  568O :  1.56  306H :  1.56  550O :  1.55  412O :  1.54  104H :  1.52  473H :  1.50   53H :  1.47  182H :  1.44  163O :  1.44  427O :  1.43  325O :  1.42  460O :  1.42
  724O :  1.40  376O :  1.36   27H :  1.35  439O :  1.35  670O :  1.34  238O :  1.33  148O :  1.33  463O :  1.32  415O :  1.31   16O :  1.27  631O :  1.26   78H :  1.26
  394O :  1.21  503H :  1.21  664O :  1.20  420H :  1.19  721O :  1.14  158H :  1.13  637O :  1.12  286O :  1.10   38H :  1.07  272H :  1.06  691O :  1.06  282H :  1.04
  558H :  1.03  312H :  1.03  369H :  1.02  451O :  1.01   43O :  1.00  444H :  0.99  466O :  0.99  356H :  0.98  479H :  0.96  247O :  0.96   73O :  0.95  601O :  0.94
   94O :  0.94    8H :  0.89   79O :  0.89  295O :  0.88  421O :  0.87  360H :  0.86  476H :  0.86  660H :  0.84   50H :  0.83  584H :  0.82  195H :  0.81  559O :  0.81
  225H :  0.81  625O :  0.81  471H :  0.79  138H :  0.79  344H :  0.79  117H :  0.79  305H :  0.78  130O :  0.78   87H :  0.78  504H :  0.77  208O :  0.77  292O :  0.76
  538O :  0.76  634O :  0.75  387H :  0.72  718O :  0.71   57H :  0.71  449H :  0.71  380H :  0.70  179H :  0.69  167H :  0.68  574O :  0.68  338H :  0.68   11H :  0.67
  101H :  0.67  454O :  0.66  509H :  0.65  535O :  0.64   24H :  0.64  180H :  0.64  498H :  0.63  499O :  0.62  699H :  0.60  599H :  0.60  190O :  0.59  749H :  0.59
  283O :  0.58  690H :  0.58  649O :  0.58  430O :  0.58  241O :  0.58  715O :  0.57  203H :  0.57  644H :  0.56  318H :  0.56  513H :  0.56   58O :  0.56  368H :  0.55
  555H :  0.54  153H :  0.51   56H :  0.51  159H :  0.50  340O :  0.50   18H :  0.49  222H :  0.48  291H :  0.48  401H :  0.48  110H :  0.48   41H :  0.47  123H :  0.47
  597H :  0.47  347H :  0.47  351H :  0.47  255H :  0.46  518H :  0.46  125H :  0.46  512H :  0.46  578H :  0.46  665H :  0.45  133O :  0.45  281H :  0.45   97O :  0.42
  440H :  0.42  679O :  0.42  434H :  0.42  266H :  0.42  605H :  0.41  675H :  0.41  162H :  0.41  252H :  0.41  600H :  0.41  320H :  0.41  212H :  0.41   48H :  0.41
  279H :  0.40  734H :  0.40  566H :  0.39  127O :  0.39  407H :  0.39  674H :  0.38  206H :  0.38  371H :  0.37  300H :  0.37  582H :  0.37  546H :  0.37  321H :  0.37
  194H :  0.36  549H :  0.36  656H :  0.36  594H :  0.36  317H :  0.36  339H :  0.35  457O :  0.35  569H :  0.35  402H :  0.34  249H :  0.34  686H :  0.34  642H :  0.34
  362H :  0.33  453H :  0.33  615H :  0.32  755H :  0.32  467H :  0.32  752H :  0.31  408H :  0.30  726H :  0.30  623H :  0.30  572H :  0.30   14H :  0.29  155H :  0.29
  375H :  0.29  146H :  0.29  741H :  0.29  747H :  0.29  728H :  0.29  630H :  0.28  581H :  0.28  723H :  0.28  105H :  0.28  152H :  0.28  287H :  0.28  365H :  0.28
   54H :  0.28  267H :  0.27  641H :  0.27  192H :  0.27  564H :  0.27  299H :  0.27    6H :  0.26  333H :  0.25  602H :  0.24  426H :  0.24  573H :  0.24  657H :  0.24
   51H :  0.24  738H :  0.24  102H :  0.23  608H :  0.23  725H :  0.23  377H :  0.23  636H :  0.23  233H :  0.23  491H :  0.23  570H :  0.22  129H :  0.22  692H :  0.22
  335H :  0.22  149H :  0.22  275H :  0.22  374H :  0.22  396H :  0.22   45H :  0.21  326H :  0.21  132H :  0.21  392H :  0.21  548H :  0.21  230H :  0.21  525H :  0.21
  341H :  0.21  533H :  0.20  219H :  0.20  638H :  0.20  116H :  0.20  708H :  0.20  632H :  0.19  539H :  0.19  185H :  0.19  177H :  0.19  705H :  0.19  633H :  0.19
  666H :  0.18  486H :  0.18  204H :  0.18  143H :  0.18  108H :  0.17  458H :  0.17  482H :  0.17  236H :  0.17  323H :  0.17  519H :  0.17  585H :  0.16  261H :  0.16
   60H :  0.16  698H :  0.16  683H :  0.16  414H :  0.16  702H :  0.16  743H :  0.16  551H :  0.16  398H :  0.15  197H :  0.15  521H :  0.15  441H :  0.15  557H :  0.15
  381H :  0.15   20H :  0.15  336H :  0.15  140H :  0.15  411H :  0.15  285H :  0.15    9H :  0.15    2H :  0.15   74H :  0.15  654H :  0.15  729H :  0.14   44H :  0.14
  413H :  0.14  215H :  0.14  258H :  0.13   77H :  0.13   96H :  0.13  432H :  0.13  719H :  0.13  712O :  0.13  468H :  0.13  446H :  0.13  450H :  0.13  328O :  0.12
  537H :  0.12   71H :  0.12  461H :  0.12  257H :  0.12  429H :  0.12  531H :  0.12  176H :  0.12  596H :  0.11  330H :  0.11  240H :  0.11  228H :  0.11  659H :  0.11
  350H :  0.11  680H :  0.11   83H :  0.11  437H :  0.11  606H :  0.11  386H :  0.10   99H :  0.10   92H :  0.10  234H :  0.10  329H :  0.10   17H :  0.10   84H :  0.10
  435H :  0.10  348H :  0.10  561H :  0.10  428H :  0.10  669H :  0.09  722H :  0.09   95H :  0.09  173H :  0.09  425H :  0.08  218H :  0.08  183H :  0.08  296H :  0.08
  563H :  0.08  515H :  0.08  587H :  0.08  260H :  0.08  624H :  0.08  462H :  0.08  303H :  0.08  603H :  0.08  111H :  0.07  554H :  0.07  591H :  0.07  689H :  0.07
  383H :  0.07  543H :  0.07  542H :  0.07
    3 LP   *******   0.00   0.61380  11.28265  48.50306   31O : 32.77  361O : 23.78  181O : 23.61  502O : 20.73   76O : 18.41  610O : 18.29  172O : 18.23   85O : 17.27  508O : 16.67   49O : 16.11  199O : 15.66  223O : 15.54
  436O : 15.41  607O : 14.59  490O : 14.08   13O : 14.05   55O : 13.79   67O : 13.04  304O : 12.61  184O : 12.54   25O : 12.30  349O : 12.10  646O : 11.93  235O : 11.72
  484O : 11.62  307O : 11.53  472O : 11.41  382O : 11.28   34O : 11.04  220O : 10.80  103O : 10.52   52O : 10.31  265O : 10.12  364O :  9.99  616O :  9.87  586O :  9.85
    7O :  9.64  481O :  9.57  256O :  9.54  703O :  9.53  553O :  9.34  280O :  9.16  685O :  9.15  160O :  9.11  403O :  8.81  400O :  8.71  193O :  8.62  217O :  7.94
  175O :  7.89   64O :  7.87  598O :  7.79  442O :  7.65  124O :  7.57  298O :  7.55  694O :  7.52  316O :  7.50  337O :  7.47  331O :  7.30  754O :  7.14  250O :  7.02
  109O :  6.90  115O :  6.85  628O :  6.82  529O :  6.74  562O :  6.72  202O :  6.69  475O :  6.64   91O :  6.64  697O :  6.63  517O :  6.51   37O :  6.49  556O :  6.36
  406O :  6.13  433O :  6.11  391O :  6.04  157O :  5.94   46O :  5.87  301O :  5.84   40O :  5.83  661O :  5.79  367O :  5.78  151O :  5.70  505O :  5.69    1O :  5.66
  571O :  5.58  742O :  5.56  643O :  5.51  112O :  5.48  106O :  5.45  343O :  5.45  142O :  5.40  271O :  5.37    4O :  5.34  370O :  5.25  205O :  5.08  613O :  5.04
  565O :  5.02  121O :  4.96  418O :  4.92  583O :  4.90  448O :  4.83  493O :  4.80   22O :  4.79  274O :  4.78  547O :  4.69  178O :  4.60  352O :  4.59  379O :  4.51
  745O :  4.46  658O :  4.45  100O :  4.43  388O :  4.42  166O :  4.17  355O :  4.13  595O :  4.08  709O :  4.08  514O :  4.07  748O :  3.99  532O :  3.90  580O :  3.81
  652O :  3.65  187O :  3.63  196O :  3.62  145O :  3.62  211O :  3.61  346O :  3.55  253O :  3.55   28O :  3.48  751O :  3.45  577O :  3.44  214O :  3.35  520O :  3.33
  544O :  3.26  706O :  3.21  604O :  3.17  655O :  3.15  589O :  3.13  310O :  3.10  405H :  3.09   88O :  3.08  478O :  3.04  682O :  3.02   10O :  2.99  277O :  2.86
  289O :  2.84  592O :  2.84  736O :  2.84  322O :  2.83  640O :  2.82  496O :  2.76  136O :  2.75  169O :  2.75  139O :  2.71  259O :  2.71  511O :  2.67  523O :  2.66
   19O :  2.64  154O :  2.60   15H :  2.58  313O :  2.55  319O :  2.53  688O :  2.48  673O :  2.45   32H :  2.45   69H :  2.44  232O :  2.41  700O :  2.41  727O :  2.40
  622O :  2.40   86H :  2.39  487O :  2.38  424O :  2.36  730O :  2.35  334O :  2.35  619O :  2.34  541O :  2.30  118O :  2.28  385O :  2.25  695H :  2.23  268O :  2.21
  469O :  2.14  409O :  2.14  358O :  2.09   61O :  2.05  733O :  1.96  609H :  1.95  676O :  1.93  611H :  1.85  445O :  1.83  397O :  1.82  226O :  1.81  229O :  1.80
   82O :  1.79  526O :  1.77  373O :  1.75  366H :  1.72  667O :  1.69  244O :  1.67  262O :  1.64  126H :  1.60   47H :  1.60  739O :  1.57  174H :  1.55   70O :  1.54
  568O :  1.51  306H :  1.51  550O :  1.50  412O :  1.48  104H :  1.47  473H :  1.45   53H :  1.42  163O :  1.39  427O :  1.38  325O :  1.37  460O :  1.37  724O :  1.35
  376O :  1.32  439O :  1.31   27H :  1.31  670O :  1.29  238O :  1.29  148O :  1.29  463O :  1.27  503H :  1.27  182H :  1.27  415O :  1.27   16O :  1.23  631O :  1.22
   78H :  1.21  394O :  1.17  420H :  1.15  664O :  1.15  721O :  1.10  637O :  1.09  158H :  1.09  286O :  1.07   38H :  1.03  272H :  1.03  691O :  1.02  282H :  1.00
  558H :  1.00  312H :  1.00  369H :  0.99  451O :  0.98   43O :  0.96  444H :  0.96  466O :  0.96  356H :  0.94  479H :  0.93  247O :  0.92   73O :  0.91  601O :  0.91
   94O :  0.91    8H :  0.86   79O :  0.86  295O :  0.85  504H :  0.85  421O :  0.84  360H :  0.83  476H :  0.83  660H :  0.81   50H :  0.81  584H :  0.79  195H :  0.78
  559O :  0.78  625O :  0.78  225H :  0.77  138H :  0.76  471H :  0.76  344H :  0.76  117H :  0.76  305H :  0.75  130O :  0.75   87H :  0.75  208O :  0.74  292O :  0.73
  538O :  0.73  634O :  0.72  387H :  0.70  718O :  0.69   57H :  0.69  449H :  0.69  380H :  0.67  179H :  0.67  574O :  0.66  338H :  0.65   11H :  0.65  101H :  0.65
  167H :  0.64  454O :  0.64  509H :  0.62  535O :  0.62  180H :  0.62   24H :  0.62  498H :  0.61  499O :  0.60  699H :  0.58  599H :  0.58  190O :  0.57  749H :  0.57
  283O :  0.56  690H :  0.56  649O :  0.56  430O :  0.56  241O :  0.56  715O :  0.55  203H :  0.55  644H :  0.54  318H :  0.54  513H :  0.54  368H :  0.53   58O :  0.52
  555H :  0.52  153H :  0.50   56H :  0.49  159H :  0.49  340O :  0.48   18H :  0.47  222H :  0.47  291H :  0.46  401H :  0.46  110H :  0.46   41H :  0.46  123H :  0.46
  597H :  0.45  125H :  0.45  351H :  0.45  347H :  0.45  255H :  0.45  518H :  0.45  512H :  0.44  578H :  0.44  665H :  0.44  133O :  0.44  281H :  0.44  440H :  0.41
  679O :  0.40  434H :  0.40  266H :  0.40  605H :  0.40  675H :  0.40  162H :  0.40  252H :  0.40   97O :  0.40  600H :  0.39  320H :  0.39  212H :  0.39   48H :  0.39
  279H :  0.39  734H :  0.39  566H :  0.38  127O :  0.38  407H :  0.37  674H :  0.37  206H :  0.37  371H :  0.36  300H :  0.36  582H :  0.36  546H :  0.35  321H :  0.35
  194H :  0.35  549H :  0.35  656H :  0.35  594H :  0.35  317H :  0.34  339H :  0.34  457O :  0.34  569H :  0.33  402H :  0.33  249H :  0.33  686H :  0.33  642H :  0.33
  362H :  0.32  453H :  0.31  615H :  0.31  755H :  0.31  467H :  0.31  752H :  0.30  408H :  0.29  726H :  0.29  623H :  0.29  572H :  0.29  155H :  0.28   14H :  0.28
  375H :  0.28  146H :  0.28  741H :  0.28  747H :  0.28  728H :  0.28  630H :  0.28  581H :  0.27  723H :  0.27  105H :  0.27  152H :  0.27  287H :  0.27  365H :  0.27
   54H :  0.27  267H :  0.26  641H :  0.26  192H :  0.26  564H :  0.26  299H :  0.26    6H :  0.25  333H :  0.24  602H :  0.23  426H :  0.23  573H :  0.23   51H :  0.23
  657H :  0.23  738H :  0.23  102H :  0.23  608H :  0.23  725H :  0.23  377H :  0.22  636H :  0.22  233H :  0.22  491H :  0.22  570H :  0.22  129H :  0.21  692H :  0.21
  335H :  0.21  149H :  0.21  374H :  0.21  396H :  0.21  275H :  0.21  326H :  0.21   45H :  0.21  392H :  0.21  132H :  0.21  548H :  0.20  230H :  0.20  525H :  0.20
  341H :  0.20  533H :  0.20  219H :  0.20  638H :  0.19  116H :  0.19  708H :  0.19  632H :  0.19  539H :  0.19  185H :  0.18  177H :  0.18  705H :  0.18  633H :  0.18
  666H :  0.18  486H :  0.18  204H :  0.17  108H :  0.17  143H :  0.17  458H :  0.17  482H :  0.17  236H :  0.16   60H :  0.16  323H :  0.16  519H :  0.16  585H :  0.16
  261H :  0.16  698H :  0.15  683H :  0.15  414H :  0.15  702H :  0.15  743H :  0.15  551H :  0.15  398H :  0.15  197H :  0.15  521H :  0.15  441H :  0.15  557H :  0.15
  381H :  0.15   20H :  0.15  336H :  0.15  140H :  0.15  411H :  0.14  285H :  0.14    2H :  0.14    9H :  0.14  654H :  0.14  729H :  0.14   44H :  0.14   74H :  0.14
  413H :  0.14  215H :  0.13  258H :  0.13   77H :  0.13   96H :  0.13  432H :  0.13  719H :  0.13  712O :  0.12  468H :  0.12  446H :  0.12   59H :  0.12  450H :  0.12
  328O :  0.12  537H :  0.12   71H :  0.12  461H :  0.11  257H :  0.11  429H :  0.11  531H :  0.11  176H :  0.11  596H :  0.11  330H :  0.11  240H :  0.11  228H :  0.11
   99H :  0.11  659H :  0.11  350H :  0.11  680H :  0.10   83H :  0.10  606H :  0.10  437H :  0.10  386H :  0.10   92H :  0.10  234H :  0.10  329H :  0.09   17H :  0.09
   84H :  0.09  435H :  0.09  348H :  0.09  561H :  0.09  428H :  0.09  669H :  0.09  722H :  0.09   95H :  0.09  173H :  0.08  425H :  0.08  218H :  0.08  296H :  0.08
  563H :  0.08  515H :  0.08  587H :  0.08  260H :  0.08  624H :  0.08  462H :  0.07  303H :  0.07  603H :  0.07  111H :  0.07  554H :  0.07  689H :  0.07  383H :  0.07
    4 LP   *******   0.00  -3.30227  28.12367 -18.08689   31O : 30.71  361O : 25.52  181O : 19.66  502O : 19.43   76O : 17.26  610O : 17.15  172O : 17.09   85O : 16.19  508O : 15.63   49O : 15.09  199O : 14.68  223O : 14.57
  436O : 14.41  607O : 13.68  490O : 13.20   13O : 13.14   55O : 12.93   67O : 12.23  304O : 11.82  184O : 11.76   25O : 11.54  349O : 11.34  646O : 11.19  235O : 10.99
  484O : 10.90  307O : 10.81  472O : 10.70  382O : 10.58   34O : 10.33  220O : 10.13  103O :  9.87   52O :  9.67  265O :  9.49  364O :  9.36  616O :  9.26  586O :  9.24
    7O :  9.04  256O :  8.99  481O :  8.97  703O :  8.93  553O :  8.76  280O :  8.59  685O :  8.57  160O :  8.56  403O :  8.27  400O :  8.17  193O :  8.08  217O :  7.44
  175O :  7.39   64O :  7.38  598O :  7.31  442O :  7.17  298O :  7.08  694O :  7.05  316O :  7.03  124O :  7.02  337O :  7.00  331O :  6.85  754O :  6.70  250O :  6.58
  115O :  6.42  628O :  6.39  529O :  6.32  109O :  6.30  562O :  6.30  202O :  6.25  475O :  6.23   91O :  6.22  697O :  6.22  517O :  6.11   37O :  6.08  556O :  5.96
  406O :  5.75  433O :  5.73  391O :  5.66  157O :  5.57   46O :  5.50  301O :  5.48   40O :  5.45  661O :  5.43  367O :  5.42  151O :  5.34  505O :  5.33    1O :  5.31
  571O :  5.23  742O :  5.21  643O :  5.16  112O :  5.14  106O :  5.11  343O :  5.11  142O :  5.06  271O :  5.03    4O :  4.98  370O :  4.92  205O :  4.76  613O :  4.72
  565O :  4.71  121O :  4.64  418O :  4.61  583O :  4.60  448O :  4.53  493O :  4.50   22O :  4.49  274O :  4.48  547O :  4.39  178O :  4.32  352O :  4.29  379O :  4.23
  745O :  4.18  658O :  4.17  100O :  4.15  388O :  4.14  166O :  3.93  355O :  3.87  709O :  3.83  595O :  3.82  514O :  3.81  748O :  3.74  532O :  3.66  580O :  3.57
  652O :  3.43  187O :  3.40  196O :  3.40  145O :  3.39  211O :  3.39  346O :  3.34  253O :  3.33   28O :  3.27  751O :  3.24  577O :  3.22  214O :  3.14  520O :  3.12
  544O :  3.06  589O :  3.02  706O :  3.01  604O :  2.97  655O :  2.95  310O :  2.91  405H :  2.89   88O :  2.89  478O :  2.85  682O :  2.83   10O :  2.81  277O :  2.68
  289O :  2.66  592O :  2.66  736O :  2.66  322O :  2.66  640O :  2.64  496O :  2.58  136O :  2.58  169O :  2.58  139O :  2.54  259O :  2.54  523O :  2.49   19O :  2.48
  154O :  2.44  511O :  2.43   15H :  2.42  313O :  2.39  319O :  2.37  688O :  2.32  673O :  2.30   32H :  2.29   69H :  2.29  232O :  2.26  700O :  2.26  727O :  2.25
  622O :  2.25   86H :  2.24  487O :  2.23  424O :  2.22  730O :  2.21  334O :  2.21  619O :  2.20  541O :  2.15  118O :  2.14  385O :  2.11  695H :  2.09  268O :  2.06
  469O :  2.01  409O :  2.00  358O :  1.96   61O :  1.92  733O :  1.83  609H :  1.83  676O :  1.81  611H :  1.73  445O :  1.72  397O :  1.71  229O :  1.69  226O :  1.68
   82O :  1.68  526O :  1.66  373O :  1.64  366H :  1.61  667O :  1.59  244O :  1.57  262O :  1.53   47H :  1.50  126H :  1.50  739O :  1.47  174H :  1.45   70O :  1.44
  568O :  1.41  306H :  1.41  550O :  1.40  412O :  1.39  104H :  1.38  473H :  1.36   53H :  1.33  182H :  1.31  163O :  1.31  427O :  1.29  325O :  1.29  460O :  1.29
  724O :  1.27  376O :  1.23  439O :  1.23   27H :  1.22  670O :  1.21  238O :  1.21  148O :  1.21  463O :  1.19  503H :  1.19  415O :  1.19   16O :  1.15  631O :  1.14
   78H :  1.14  394O :  1.10  420H :  1.08  664O :  1.08  721O :  1.03  158H :  1.02  637O :  1.02  286O :  1.00   38H :  0.97  272H :  0.96  691O :  0.96  282H :  0.94
  558H :  0.94  312H :  0.93  369H :  0.93  451O :  0.92  444H :  0.90   43O :  0.90  466O :  0.90  356H :  0.88  479H :  0.87  247O :  0.86   73O :  0.86  601O :  0.86
   94O :  0.85    8H :  0.81   79O :  0.81  504H :  0.80  295O :  0.79  421O :  0.79  360H :  0.78  476H :  0.78  660H :  0.76   50H :  0.75  584H :  0.74  195H :  0.74
  559O :  0.73  625O :  0.73  225H :  0.73  471H :  0.72  138H :  0.72  344H :  0.71  117H :  0.71  305H :  0.71  130O :  0.71   87H :  0.70  208O :  0.70  538O :  0.69
  292O :  0.69  634O :  0.68  387H :  0.65  718O :  0.65   57H :  0.64  449H :  0.64  380H :  0.63  179H :  0.63  167H :  0.62  574O :  0.62  338H :  0.61   11H :  0.61
  101H :  0.61  454O :  0.60  509H :  0.59  535O :  0.58  180H :  0.58   24H :  0.58  498H :  0.57  512H :  0.57  499O :  0.56  699H :  0.55  599H :  0.54  190O :  0.53
  749H :  0.53  283O :  0.53  690H :  0.53  649O :  0.52  430O :  0.52  241O :  0.52  715O :  0.52  203H :  0.52  644H :  0.51  318H :  0.51  513H :  0.51   58O :  0.50
  368H :  0.50  555H :  0.48  153H :  0.47   56H :  0.46  159H :  0.46  340O :  0.45   18H :  0.44  222H :  0.44  291H :  0.43  401H :  0.43   41H :  0.43  123H :  0.43
  597H :  0.42  347H :  0.42  351H :  0.42  255H :  0.42  518H :  0.42  125H :  0.42  578H :  0.41  665H :  0.41  133O :  0.41  281H :  0.41   97O :  0.38  440H :  0.38
  679O :  0.38  434H :  0.38  266H :  0.38  605H :  0.38  675H :  0.37  252H :  0.37  600H :  0.37  320H :  0.37  212H :  0.37   48H :  0.37  279H :  0.36  162H :  0.36
  734H :  0.36  566H :  0.36  127O :  0.35  407H :  0.35  674H :  0.35  206H :  0.34  371H :  0.34  300H :  0.34  582H :  0.33  546H :  0.33  321H :  0.33  194H :  0.33
  549H :  0.33  656H :  0.33  594H :  0.32  317H :  0.32  339H :  0.32  457O :  0.32  110H :  0.31  569H :  0.31  402H :  0.31  249H :  0.31  686H :  0.31  642H :  0.31
  453H :  0.30  615H :  0.29  755H :  0.29  467H :  0.29  752H :  0.28  408H :  0.27  726H :  0.27  623H :  0.27  572H :  0.27  155H :  0.26   14H :  0.26  375H :  0.26
  146H :  0.26  741H :  0.26  747H :  0.26  728H :  0.26  630H :  0.26  581H :  0.26  723H :  0.26  105H :  0.26  152H :  0.25  287H :  0.25  365H :  0.25   54H :  0.25
  267H :  0.25  641H :  0.24  192H :  0.24  564H :  0.24  362H :  0.24  299H :  0.24    6H :  0.23  333H :  0.22  602H :  0.22  426H :  0.22  573H :  0.22  657H :  0.22
   51H :  0.22  738H :  0.21  102H :  0.21  608H :  0.21  725H :  0.21  377H :  0.21  636H :  0.21  233H :  0.20  491H :  0.20  570H :  0.20  129H :  0.20  692H :  0.20
  335H :  0.20  149H :  0.20  374H :  0.20  396H :  0.20  275H :  0.20  326H :  0.19   45H :  0.19  132H :  0.19  392H :  0.19  548H :  0.19  230H :  0.19  525H :  0.19
  341H :  0.19  533H :  0.18  219H :  0.18  638H :  0.18  116H :  0.18  708H :  0.18  632H :  0.18  539H :  0.17  185H :  0.17  177H :  0.17  705H :  0.17  633H :  0.17
  666H :  0.17  486H :  0.17  108H :  0.16  143H :  0.16  458H :  0.16  482H :  0.16  236H :  0.15  323H :  0.15  519H :  0.15  204H :  0.15  585H :  0.15  261H :  0.15
   60H :  0.15  698H :  0.14  683H :  0.14  414H :  0.14  702H :  0.14  743H :  0.14  551H :  0.14  398H :  0.14  197H :  0.14  521H :  0.14  441H :  0.14  557H :  0.14
  381H :  0.14   20H :  0.14  336H :  0.14  140H :  0.14  411H :  0.14  285H :  0.13    2H :  0.13    9H :  0.13   74H :  0.13  654H :  0.13  729H :  0.13   44H :  0.13
  413H :  0.13  258H :  0.12  215H :  0.12   77H :  0.12   96H :  0.12  432H :  0.12  719H :  0.12  712O :  0.12  468H :  0.12  446H :  0.11  450H :  0.11  328O :  0.11
  537H :  0.11   71H :  0.11  228H :  0.11  461H :  0.11  429H :  0.11  531H :  0.11  257H :  0.10  176H :  0.10  596H :  0.10  330H :  0.10  240H :  0.10  659H :  0.10
  350H :  0.10  680H :  0.10   83H :  0.10  437H :  0.10  606H :  0.10  386H :  0.09   99H :  0.09   92H :  0.09  234H :  0.09  329H :  0.09   17H :  0.09   84H :  0.09
  435H :  0.09  348H :  0.09  561H :  0.09  428H :  0.09  669H :  0.09  722H :  0.08   95H :  0.08  173H :  0.08  425H :  0.08  218H :  0.08  183H :  0.08  296H :  0.08
  563H :  0.07  515H :  0.07  587H :  0.07  260H :  0.07  624H :  0.07  462H :  0.07
    5 LP   *******   0.00  -7.79581 -33.97939  27.81894   31O : 29.76  361O : 21.59  172O : 19.66  181O : 19.04  502O : 18.81   76O : 16.71  610O : 16.59   85O : 15.68  508O : 15.13   49O : 14.61  199O : 14.22  223O : 14.11
  436O : 13.95  607O : 13.24  490O : 12.78   13O : 12.73   55O : 12.52   67O : 11.84  304O : 11.44  184O : 11.39   25O : 11.19  349O : 10.98  646O : 10.83  235O : 10.64
  484O : 10.55  307O : 10.47  472O : 10.36  382O : 10.24   34O : 10.02  220O :  9.81  103O :  9.56   52O :  9.37  265O :  9.18  364O :  9.06  616O :  8.94  586O :  8.79
    7O :  8.75  481O :  8.69  256O :  8.67  703O :  8.65  553O :  8.48  280O :  8.31  685O :  8.30  160O :  8.27  403O :  8.01  400O :  7.91  193O :  7.83  217O :  7.21
  175O :  7.16   64O :  7.15  598O :  7.08  442O :  6.94  298O :  6.86  694O :  6.82  316O :  6.81  124O :  6.79  337O :  6.78  331O :  6.63  754O :  6.48  250O :  6.37
  109O :  6.27  115O :  6.22  628O :  6.19  529O :  6.12  562O :  6.10  202O :  6.08  475O :  6.03   91O :  6.02  697O :  6.02  517O :  5.91   37O :  5.89  556O :  5.77
  406O :  5.57  433O :  5.55  391O :  5.48  157O :  5.39   46O :  5.33  301O :  5.30   40O :  5.29  661O :  5.25  367O :  5.25  151O :  5.17  505O :  5.16    1O :  5.14
  571O :  5.06  742O :  5.05  643O :  5.00  112O :  4.98  106O :  4.95  343O :  4.94  142O :  4.90  271O :  4.87    4O :  4.82  370O :  4.76  205O :  4.61  613O :  4.57
  565O :  4.55  121O :  4.50  418O :  4.47  583O :  4.45  448O :  4.38   22O :  4.36  493O :  4.35  274O :  4.35  547O :  4.25  178O :  4.18  352O :  4.15  379O :  4.09
  745O :  4.05  658O :  4.04  100O :  4.02  388O :  4.01  166O :  3.81  355O :  3.75  709O :  3.70  595O :  3.70  514O :  3.69  748O :  3.62  532O :  3.54  580O :  3.46
  652O :  3.32  187O :  3.30  196O :  3.29  145O :  3.28  211O :  3.28  346O :  3.23  253O :  3.22   28O :  3.16  751O :  3.14  577O :  3.13  214O :  3.04  520O :  3.02
  544O :  2.96  589O :  2.93  706O :  2.92  604O :  2.87  655O :  2.86  310O :  2.81  405H :  2.81   88O :  2.80  478O :  2.76  682O :  2.74   10O :  2.72  277O :  2.60
  289O :  2.58  592O :  2.58  736O :  2.57  322O :  2.57  640O :  2.56  496O :  2.50  136O :  2.50  169O :  2.49  139O :  2.46  259O :  2.46  511O :  2.43  523O :  2.41
   19O :  2.40  154O :  2.36   15H :  2.34  313O :  2.32  319O :  2.30  688O :  2.25   32H :  2.22  673O :  2.22   69H :  2.22  232O :  2.19  700O :  2.18  487O :  2.18
  727O :  2.18  622O :  2.18   86H :  2.17  424O :  2.15  730O :  2.14  334O :  2.14  619O :  2.13  541O :  2.08  118O :  2.07  385O :  2.04  695H :  2.03  268O :  2.01
  469O :  1.94  409O :  1.94  358O :  1.90   61O :  1.85  733O :  1.78  609H :  1.77  676O :  1.75  611H :  1.68  445O :  1.66  397O :  1.66  226O :  1.65  229O :  1.64
   82O :  1.63  526O :  1.61  373O :  1.59  366H :  1.56  667O :  1.53  244O :  1.52  262O :  1.49   47H :  1.45  126H :  1.45  739O :  1.43   70O :  1.40  568O :  1.37
  306H :  1.37  550O :  1.36  412O :  1.34  104H :  1.33  473H :  1.31   53H :  1.29  174H :  1.27  182H :  1.27  163O :  1.26  427O :  1.25  325O :  1.25  460O :  1.25
  724O :  1.23  376O :  1.20   27H :  1.19  439O :  1.19  670O :  1.17  148O :  1.17  238O :  1.17  463O :  1.15  503H :  1.15  415O :  1.15  664O :  1.14  631O :  1.10
   78H :  1.10   16O :  1.08  394O :  1.06  420H :  1.05  721O :  1.00  158H :  0.99  637O :  0.99  286O :  0.97   38H :  0.93  272H :  0.93  691O :  0.93  282H :  0.91
  558H :  0.91  312H :  0.90  369H :  0.90  451O :  0.89   43O :  0.87  444H :  0.87  466O :  0.87  356H :  0.86  479H :  0.84  247O :  0.84   73O :  0.83  601O :  0.83
   94O :  0.83    8H :  0.78   79O :  0.78  295O :  0.77  504H :  0.77  421O :  0.76  360H :  0.75  476H :  0.75  660H :  0.74   50H :  0.73  584H :  0.72  559O :  0.71
  195H :  0.71  625O :  0.71  225H :  0.70  471H :  0.69  138H :  0.69  344H :  0.69  117H :  0.69  130O :  0.69  305H :  0.69   87H :  0.68  208O :  0.68  292O :  0.66
  538O :  0.66  634O :  0.66  387H :  0.63  718O :  0.63  449H :  0.62   57H :  0.62  380H :  0.61  179H :  0.61  167H :  0.60  574O :  0.60  338H :  0.59   11H :  0.59
  101H :  0.59  454O :  0.58  509H :  0.57  535O :  0.56   24H :  0.56  180H :  0.56  498H :  0.55  499O :  0.54  699H :  0.53  599H :  0.52  190O :  0.52  749H :  0.51
  283O :  0.51  690H :  0.51  649O :  0.51  430O :  0.51  241O :  0.50  715O :  0.50  203H :  0.50  644H :  0.49  318H :  0.49  513H :  0.49   58O :  0.49  368H :  0.48
  555H :  0.47  153H :  0.45   56H :  0.45  159H :  0.44  340O :  0.44  222H :  0.42   18H :  0.42  291H :  0.42  401H :  0.42  110H :  0.42   41H :  0.42  123H :  0.42
  597H :  0.41  347H :  0.41  351H :  0.41  665H :  0.41  255H :  0.40  518H :  0.40  125H :  0.40  512H :  0.40  578H :  0.40  133O :  0.40  281H :  0.39   97O :  0.37
  440H :  0.37  679O :  0.37  434H :  0.37  266H :  0.36  605H :  0.36  675H :  0.36  162H :  0.36  252H :  0.36  600H :  0.36  320H :  0.36  212H :  0.36   48H :  0.36
  279H :  0.35  734H :  0.35  566H :  0.35  127O :  0.34  407H :  0.34  674H :  0.34  206H :  0.33  371H :  0.33  300H :  0.33  582H :  0.32  546H :  0.32  321H :  0.32
  194H :  0.32  549H :  0.32  656H :  0.31  594H :  0.31  317H :  0.31  339H :  0.31  457O :  0.31  569H :  0.30  402H :  0.30  249H :  0.30  686H :  0.30  642H :  0.30
  362H :  0.29  453H :  0.29  615H :  0.28  755H :  0.28  467H :  0.28  752H :  0.27  408H :  0.26  726H :  0.26  623H :  0.26  572H :  0.26   14H :  0.26  155H :  0.26
  375H :  0.25  146H :  0.25  741H :  0.25  747H :  0.25  728H :  0.25  630H :  0.25  581H :  0.25  723H :  0.25  105H :  0.25  152H :  0.25  365H :  0.24  287H :  0.24
   54H :  0.24  267H :  0.24  641H :  0.24  192H :  0.23  564H :  0.23  299H :  0.23    6H :  0.23  333H :  0.22  602H :  0.21  426H :  0.21  573H :  0.21  657H :  0.21
   51H :  0.21  738H :  0.21  102H :  0.21  608H :  0.21  725H :  0.21  377H :  0.20  636H :  0.20  233H :  0.20  491H :  0.20  570H :  0.20  129H :  0.19  692H :  0.19
  335H :  0.19  149H :  0.19  374H :  0.19  396H :  0.19  275H :  0.19   45H :  0.19  326H :  0.19  132H :  0.19  392H :  0.19  548H :  0.18  230H :  0.18  525H :  0.18
  341H :  0.18  533H :  0.18  219H :  0.18  638H :  0.18  116H :  0.18  708H :  0.17  632H :  0.17  539H :  0.17  185H :  0.17  666H :  0.17  177H :  0.16  705H :  0.16
  633H :  0.16  486H :  0.16  204H :  0.15  108H :  0.15  587H :  0.15  143H :  0.15  458H :  0.15  482H :  0.15  236H :  0.15  323H :  0.15  519H :  0.15  585H :  0.14
  261H :  0.14   60H :  0.14  698H :  0.14  683H :  0.14  414H :  0.14  702H :  0.14  743H :  0.14  551H :  0.14  398H :  0.14  197H :  0.13  521H :  0.13  441H :  0.13
  557H :  0.13  381H :  0.13   20H :  0.13  336H :  0.13  140H :  0.13  411H :  0.13  285H :  0.13    2H :  0.13    9H :  0.13   74H :  0.13  654H :  0.13  729H :  0.13
   44H :  0.13  413H :  0.12  215H :  0.12  258H :  0.12   77H :  0.12   96H :  0.12  432H :  0.12  719H :  0.11  712O :  0.11  468H :  0.11  446H :  0.11  450H :  0.11
  328O :  0.11  537H :  0.11   71H :  0.10  461H :  0.10  257H :  0.10  429H :  0.10  531H :  0.10  176H :  0.10  596H :  0.10  330H :  0.10  240H :  0.10  228H :  0.10
  659H :  0.10  350H :  0.10  680H :  0.09   83H :  0.09  437H :  0.09  606H :  0.09  386H :  0.09   99H :  0.09   92H :  0.09  234H :  0.09  329H :  0.09   84H :  0.09
   17H :  0.08  435H :  0.08  348H :  0.08  561H :  0.08  669H :  0.08  428H :  0.08  722H :  0.08   95H :  0.08  425H :  0.07  218H :  0.07  183H :  0.07  296H :  0.07
  563H :  0.07  515H :  0.07
    6 LP   *******   0.00 -25.45126   1.00554  37.10647   31O : 23.52  361O : 17.06  181O : 15.06  502O : 14.87   76O : 14.75  610O : 13.12  172O : 13.08   85O : 12.39  508O : 11.96   49O : 11.62  199O : 11.24  223O : 11.15
  436O : 11.03  607O : 10.47  490O : 10.10   13O : 10.05   55O :  9.90   67O :  9.36  304O :  9.05  184O :  9.00   25O :  8.83  349O :  8.68  646O :  8.56  235O :  8.41
  484O :  8.34  307O :  8.28  472O :  8.19  382O :  8.10   34O :  7.92  220O :  7.75  103O :  7.56   52O :  7.39  265O :  7.26  364O :  7.17  616O :  7.08  586O :  7.06
    7O :  6.92  481O :  6.87  256O :  6.85  703O :  6.84  553O :  6.71  280O :  6.58  685O :  6.56  160O :  6.54  400O :  6.25  403O :  6.24  193O :  6.19  217O :  5.70
  175O :  5.66   64O :  5.65  598O :  5.61  442O :  5.49  298O :  5.42  316O :  5.38  694O :  5.38  124O :  5.37  337O :  5.35  331O :  5.24  754O :  5.12  250O :  5.04
  109O :  4.96  115O :  4.92  628O :  4.89  529O :  4.84  562O :  4.82  202O :  4.80  475O :  4.77   91O :  4.76  697O :  4.76  517O :  4.67   37O :  4.65  556O :  4.56
  406O :  4.40  433O :  4.39  391O :  4.33  157O :  4.26   46O :  4.21  661O :  4.19  301O :  4.19   40O :  4.18  367O :  4.15  151O :  4.09  505O :  4.08    1O :  4.06
  571O :  4.00  742O :  3.99  643O :  3.95  112O :  3.93  106O :  3.91  343O :  3.90  271O :  3.89  142O :  3.88    4O :  3.81  370O :  3.76  205O :  3.65  613O :  3.62
  565O :  3.60  121O :  3.55  418O :  3.53  583O :  3.52  448O :  3.46  493O :  3.46   22O :  3.44  274O :  3.43  547O :  3.36  178O :  3.30  379O :  3.24  352O :  3.21
  745O :  3.20  658O :  3.19  100O :  3.18  388O :  3.17  166O :  3.01  355O :  2.97  709O :  2.93  595O :  2.93  514O :  2.92  748O :  2.86  532O :  2.80  580O :  2.73
  652O :  2.62  187O :  2.61  196O :  2.60  145O :  2.60  211O :  2.59  346O :  2.58  253O :  2.55   28O :  2.50  751O :  2.48  577O :  2.47  214O :  2.40  520O :  2.39
  544O :  2.34  589O :  2.32  706O :  2.30  604O :  2.27  655O :  2.26  310O :  2.22   88O :  2.21  405H :  2.20  478O :  2.18  682O :  2.17   10O :  2.15  277O :  2.05
  289O :  2.04  592O :  2.04  736O :  2.03  322O :  2.03  640O :  2.02  496O :  1.98  136O :  1.97  169O :  1.97  139O :  1.95  259O :  1.94  511O :  1.92  523O :  1.91
   19O :  1.90  154O :  1.87   15H :  1.85  313O :  1.83  319O :  1.82  688O :  1.78  673O :  1.76   32H :  1.76   69H :  1.75  700O :  1.73  232O :  1.73  727O :  1.72
  622O :  1.72   86H :  1.72  487O :  1.71  424O :  1.70  730O :  1.69  334O :  1.69  619O :  1.68  541O :  1.65  118O :  1.63  385O :  1.61  695H :  1.59  268O :  1.59
  469O :  1.54  409O :  1.53  358O :  1.50   61O :  1.47  733O :  1.40  609H :  1.40  676O :  1.39  611H :  1.33  445O :  1.31  397O :  1.31  226O :  1.30  229O :  1.29
   82O :  1.29  526O :  1.27  373O :  1.26  366H :  1.23  667O :  1.21  244O :  1.20  262O :  1.17   47H :  1.15  126H :  1.15  739O :  1.13  174H :  1.11   70O :  1.10
  568O :  1.08  306H :  1.08  550O :  1.07  412O :  1.06  104H :  1.05  473H :  1.04   53H :  1.02  182H :  1.00  163O :  1.00  427O :  0.99  325O :  0.98  460O :  0.98
  724O :  0.97  376O :  0.94  439O :  0.94   27H :  0.94  238O :  0.93  148O :  0.92  670O :  0.92  463O :  0.91  503H :  0.91  415O :  0.91   16O :  0.87  631O :  0.87
  394O :  0.84  420H :  0.83  664O :  0.83  721O :  0.79  158H :  0.78  637O :  0.78  272H :  0.77  286O :  0.76   78H :  0.76   38H :  0.74  691O :  0.73  282H :  0.72
  558H :  0.72  312H :  0.72  369H :  0.71  451O :  0.70   43O :  0.69  444H :  0.69  466O :  0.69  356H :  0.68  479H :  0.66  247O :  0.66   73O :  0.66  601O :  0.65
   94O :  0.65    8H :  0.62   79O :  0.62  295O :  0.61  504H :  0.61  421O :  0.60  360H :  0.60  476H :  0.60  660H :  0.58  584H :  0.57   50H :  0.57  195H :  0.56
  559O :  0.56  625O :  0.56  225H :  0.56  138H :  0.55  471H :  0.55  344H :  0.55  117H :  0.55  305H :  0.54  130O :  0.54   87H :  0.54  208O :  0.53  292O :  0.53
  538O :  0.53  634O :  0.52  387H :  0.50  718O :  0.50   57H :  0.49  449H :  0.49  380H :  0.48  179H :  0.48  167H :  0.47  574O :  0.47   11H :  0.47  338H :  0.47
  101H :  0.47  454O :  0.46  509H :  0.45  535O :  0.45  180H :  0.44   24H :  0.44  498H :  0.44  499O :  0.43  699H :  0.42  599H :  0.42  190O :  0.41  749H :  0.41
  283O :  0.41  690H :  0.40  649O :  0.40  430O :  0.40  241O :  0.40  715O :  0.39  203H :  0.39  644H :  0.39   58O :  0.39  318H :  0.39  513H :  0.39  368H :  0.38
  555H :  0.37  153H :  0.36   56H :  0.35  159H :  0.35  340O :  0.35   18H :  0.34  222H :  0.33  291H :  0.33  401H :  0.33  110H :  0.33   41H :  0.33  123H :  0.33
  347H :  0.33  597H :  0.33  351H :  0.32  255H :  0.32  518H :  0.32  125H :  0.32  133O :  0.32  512H :  0.32  578H :  0.32  665H :  0.31  281H :  0.31   97O :  0.29
  440H :  0.29  679O :  0.29  434H :  0.29  266H :  0.29  605H :  0.29  675H :  0.29  162H :  0.29  252H :  0.29  600H :  0.28  320H :  0.28  212H :  0.28   48H :  0.28
  279H :  0.28  734H :  0.28  566H :  0.27  127O :  0.27  407H :  0.27  674H :  0.27  206H :  0.26  371H :  0.26  300H :  0.26  582H :  0.26  546H :  0.25  321H :  0.25
  194H :  0.25  549H :  0.25  656H :  0.25  594H :  0.25  317H :  0.25  339H :  0.25  457O :  0.24  569H :  0.24  402H :  0.24  249H :  0.24  686H :  0.24  642H :  0.23
  362H :  0.23  453H :  0.23  615H :  0.22  755H :  0.22  467H :  0.22  752H :  0.22  408H :  0.21  726H :  0.21  623H :  0.21  572H :  0.21   14H :  0.20  155H :  0.20
  375H :  0.20  146H :  0.20  741H :  0.20  747H :  0.20  728H :  0.20  630H :  0.20  581H :  0.20  723H :  0.20  105H :  0.20   51H :  0.20  152H :  0.19  365H :  0.19
  287H :  0.19   54H :  0.19  267H :  0.19  641H :  0.19  192H :  0.19  564H :  0.18  299H :  0.18    6H :  0.18  333H :  0.17  602H :  0.17  426H :  0.17  573H :  0.17
  657H :  0.17  738H :  0.16  102H :  0.16  608H :  0.16  725H :  0.16  377H :  0.16  636H :  0.16  233H :  0.16  491H :  0.16  570H :  0.15  129H :  0.15  692H :  0.15
  335H :  0.15  149H :  0.15  374H :  0.15  396H :  0.15  275H :  0.15   45H :  0.15  326H :  0.15  132H :  0.15  392H :  0.15  548H :  0.15  230H :  0.15  525H :  0.14
  341H :  0.14  533H :  0.14  219H :  0.14  638H :  0.14  116H :  0.14  708H :  0.14  632H :  0.13  539H :  0.13  185H :  0.13  177H :  0.13  705H :  0.13  633H :  0.13
  666H :  0.13  486H :  0.13  204H :  0.12  108H :  0.12  143H :  0.12  458H :  0.12  482H :  0.12  236H :  0.12  323H :  0.12  519H :  0.12  585H :  0.11  261H :  0.11
  698H :  0.11  683H :  0.11  414H :  0.11  702H :  0.11  743H :  0.11  551H :  0.11  398H :  0.11   60H :  0.11  197H :  0.11  521H :  0.11  441H :  0.11  557H :  0.11
  381H :  0.10   20H :  0.10  140H :  0.10  336H :  0.10  411H :  0.10  285H :  0.10    2H :  0.10    9H :  0.10   74H :  0.10  654H :  0.10  729H :  0.10   44H :  0.10
  413H :  0.10  215H :  0.09  258H :  0.09   96H :  0.09  432H :  0.09  719H :  0.09  712O :  0.09  468H :  0.09  446H :  0.09  450H :  0.09  328O :  0.09  537H :  0.09
   71H :  0.08  461H :  0.08  257H :  0.08  429H :  0.08  531H :  0.08  176H :  0.08  596H :  0.08  330H :  0.08  240H :  0.08  228H :  0.08  659H :  0.08  350H :  0.08
  680H :  0.08   83H :  0.07  437H :  0.07  606H :  0.07  386H :  0.07
    7 LP   *******   0.00 -11.69996   6.10282  29.65043   31O : 21.84  361O : 15.84  181O : 13.99  502O : 13.81   76O : 12.37  610O : 12.19  172O : 12.14   49O : 11.74   85O : 11.50  508O : 11.10  199O : 10.44  223O : 10.35
  436O : 10.24  607O :  9.72   13O :  9.52  490O :  9.38   55O :  9.19   67O :  8.69  304O :  8.40  184O :  8.36   25O :  8.20  349O :  8.06  646O :  7.95  235O :  7.81
  484O :  7.74  307O :  7.68  472O :  7.60  382O :  7.52   34O :  7.36  220O :  7.20  103O :  7.02   52O :  6.87  265O :  6.74  364O :  6.65  616O :  6.58  586O :  6.56
    7O :  6.42  481O :  6.38  256O :  6.36  703O :  6.35  553O :  6.23  280O :  6.10  685O :  6.09  160O :  6.07  400O :  5.80  403O :  5.77  193O :  5.74  217O :  5.29
  175O :  5.26   64O :  5.25  598O :  5.19  442O :  5.10  298O :  5.03  694O :  5.01  316O :  5.00  337O :  4.97  124O :  4.92  331O :  4.87  754O :  4.76  250O :  4.68
  109O :  4.60  115O :  4.56  628O :  4.54  529O :  4.49  562O :  4.48  202O :  4.46  475O :  4.42   91O :  4.42  697O :  4.42  517O :  4.34   37O :  4.32  556O :  4.24
  406O :  4.08  433O :  4.07  391O :  4.02  157O :  3.96   46O :  3.91  301O :  3.89   40O :  3.88  367O :  3.85  151O :  3.80  505O :  3.79    1O :  3.77  571O :  3.72
  661O :  3.71  742O :  3.71  643O :  3.67  112O :  3.65  271O :  3.64  106O :  3.63  343O :  3.63  142O :  3.60    4O :  3.54  370O :  3.50  205O :  3.38  613O :  3.36
  565O :  3.34  121O :  3.30  418O :  3.28  583O :  3.27  493O :  3.22  448O :  3.22   22O :  3.19  274O :  3.19  547O :  3.12  178O :  3.07  352O :  3.05  379O :  3.00
  745O :  2.97  658O :  2.96  100O :  2.95  388O :  2.94  166O :  2.78  355O :  2.75  595O :  2.72  709O :  2.72  514O :  2.71  748O :  2.66  532O :  2.60  580O :  2.54
  652O :  2.43  187O :  2.42  196O :  2.41  145O :  2.41  211O :  2.41  346O :  2.38  253O :  2.37   28O :  2.32  751O :  2.30  577O :  2.29  214O :  2.23  520O :  2.22
  544O :  2.17  589O :  2.15  706O :  2.14  604O :  2.11  655O :  2.10  310O :  2.07   88O :  2.05  405H :  2.03  478O :  2.03  682O :  2.01   10O :  2.00  277O :  1.91
  289O :  1.89  592O :  1.89  736O :  1.89  322O :  1.89  640O :  1.88  496O :  1.84  136O :  1.84  169O :  1.83  139O :  1.81  259O :  1.80   15H :  1.80  511O :  1.78
  523O :  1.77   19O :  1.76  154O :  1.73  313O :  1.70  319O :  1.69  688O :  1.65   32H :  1.63  673O :  1.63   69H :  1.63  232O :  1.61  700O :  1.61  727O :  1.60
  622O :  1.60   86H :  1.59  487O :  1.58  424O :  1.57  730O :  1.57  334O :  1.57  619O :  1.56  541O :  1.53  118O :  1.52  385O :  1.50  695H :  1.49  268O :  1.47
  469O :  1.43  409O :  1.42  358O :  1.39   61O :  1.31  733O :  1.30  609H :  1.30  676O :  1.29  611H :  1.23  445O :  1.22  397O :  1.22  226O :  1.21  229O :  1.20
   82O :  1.19  526O :  1.18  373O :  1.17  366H :  1.15  667O :  1.13  244O :  1.11  262O :  1.09   47H :  1.06  126H :  1.05  739O :  1.05  174H :  1.03   70O :  1.03
  568O :  1.00  306H :  1.00  550O :  1.00  412O :  0.98  104H :  0.98  473H :  0.96   53H :  0.94  182H :  0.93  163O :  0.93  427O :  0.92  325O :  0.91  460O :  0.91
  724O :  0.90  376O :  0.88  439O :  0.87   27H :  0.87  238O :  0.86  670O :  0.86  148O :  0.86  463O :  0.85  503H :  0.84  415O :  0.84   16O :  0.81  631O :  0.81
   78H :  0.81  394O :  0.78  420H :  0.77  664O :  0.77  721O :  0.73  158H :  0.72  637O :  0.72  286O :  0.71  272H :  0.69   38H :  0.69  691O :  0.68  282H :  0.67
  558H :  0.67  312H :  0.66  369H :  0.66  451O :  0.65   43O :  0.64  444H :  0.64  466O :  0.64  356H :  0.63  479H :  0.62  247O :  0.62   73O :  0.61  601O :  0.61
   94O :  0.61    8H :  0.57   79O :  0.57  295O :  0.57  504H :  0.57  421O :  0.56  360H :  0.55  476H :  0.55  660H :  0.54  584H :  0.53  559O :  0.52  195H :  0.52
  625O :  0.52  225H :  0.52  471H :  0.51  138H :  0.51  344H :  0.51  117H :  0.51  305H :  0.50  130O :  0.50   87H :  0.50  208O :  0.50  292O :  0.49  538O :  0.49
  634O :  0.48  387H :  0.46  718O :  0.46   57H :  0.46  449H :  0.46  380H :  0.45  167H :  0.45  179H :  0.45   50H :  0.44  574O :  0.44  338H :  0.44   11H :  0.43
  101H :  0.43  454O :  0.42  509H :  0.42  535O :  0.41  180H :  0.41   24H :  0.41  498H :  0.41  499O :  0.40  699H :  0.39  599H :  0.39  190O :  0.38  749H :  0.38
  283O :  0.38  690H :  0.37  649O :  0.37  430O :  0.37  241O :  0.37  715O :  0.37  203H :  0.36  644H :  0.36   58O :  0.36  318H :  0.36  513H :  0.36  368H :  0.35
  555H :  0.34  153H :  0.33   56H :  0.33  159H :  0.32  340O :  0.32   18H :  0.31  222H :  0.31  291H :  0.31  401H :  0.31  110H :  0.31  123H :  0.31   41H :  0.31
  347H :  0.30  597H :  0.30  351H :  0.30  255H :  0.30  518H :  0.30  125H :  0.30  512H :  0.29  578H :  0.29  665H :  0.29  281H :  0.29  133O :  0.29   97O :  0.27
  440H :  0.27  679O :  0.27  434H :  0.27  266H :  0.27  605H :  0.27  675H :  0.27  162H :  0.27  252H :  0.26  600H :  0.26  320H :  0.26  212H :  0.26   48H :  0.26
  279H :  0.26  734H :  0.26  566H :  0.25  127O :  0.25  407H :  0.25  674H :  0.25  206H :  0.24  371H :  0.24  300H :  0.24  582H :  0.24  546H :  0.24  321H :  0.24
  194H :  0.23  549H :  0.23  656H :  0.23  594H :  0.23  317H :  0.23  339H :  0.23  457O :  0.23  569H :  0.22  249H :  0.22  402H :  0.22  686H :  0.22  642H :  0.22
  362H :  0.21  453H :  0.21  615H :  0.21  467H :  0.21  755H :  0.21  752H :  0.20  408H :  0.19  726H :  0.19  623H :  0.19  572H :  0.19   14H :  0.19  155H :  0.19
  375H :  0.19  146H :  0.19  741H :  0.19  747H :  0.19  728H :  0.19  630H :  0.18  581H :  0.18  723H :  0.18  105H :  0.18  152H :  0.18  365H :  0.18  287H :  0.18
   54H :  0.18  267H :  0.17  641H :  0.17  192H :  0.17  564H :  0.17  299H :  0.17    6H :  0.17  333H :  0.16  602H :  0.16  426H :  0.16  573H :  0.15  657H :  0.15
  738H :  0.15  102H :  0.15  608H :  0.15  725H :  0.15  377H :  0.15  636H :  0.15  233H :  0.15  491H :  0.15  570H :  0.14  129H :  0.14  692H :  0.14  335H :  0.14
  149H :  0.14  374H :  0.14  396H :  0.14  275H :  0.14   45H :  0.14  326H :  0.14  132H :  0.14  392H :  0.14  548H :  0.14  230H :  0.13  525H :  0.13  341H :  0.13
  533H :  0.13  219H :  0.13  638H :  0.13  116H :  0.13  708H :  0.13  632H :  0.13  539H :  0.12  185H :  0.12  177H :  0.12  705H :  0.12  633H :  0.12  666H :  0.12
  486H :  0.12  204H :  0.11  108H :  0.11  143H :  0.11  458H :  0.11  482H :  0.11  236H :  0.11  323H :  0.11   60H :  0.11  519H :  0.11  585H :  0.10  261H :  0.10
  698H :  0.10  683H :  0.10  414H :  0.10  702H :  0.10  743H :  0.10  551H :  0.10  398H :  0.10  197H :  0.10  521H :  0.10  441H :  0.10  557H :  0.10  381H :  0.10
   20H :  0.10  140H :  0.10  336H :  0.10  411H :  0.10  285H :  0.10    2H :  0.10    9H :  0.09   74H :  0.09  654H :  0.09  729H :  0.09   44H :  0.09   51H :  0.09
  413H :  0.09  215H :  0.09   77H :  0.09  258H :  0.09   96H :  0.09  432H :  0.09  719H :  0.08  712O :  0.08  468H :  0.08  446H :  0.08  450H :  0.08  328O :  0.08
  537H :  0.08   71H :  0.08  461H :  0.08  257H :  0.08  429H :  0.08  531H :  0.07  176H :  0.07  596H :  0.07  330H :  0.07  240H :  0.07  228H :  0.07  659H :  0.07
  350H :  0.07
    8 LP   *******   0.00  44.52917 -34.82358  21.84440   31O : 21.77  361O : 15.80  181O : 13.93  502O : 13.82  223O : 13.00   76O : 12.23  610O : 12.15  172O : 12.11   85O : 11.47  508O : 11.08   49O : 10.69  199O : 10.40
  436O : 10.21  607O :  9.69  490O :  9.35   13O :  9.31   55O :  9.16   67O :  8.68  304O :  8.38  184O :  8.33   25O :  8.17  349O :  8.04  646O :  7.93  235O :  7.79
  484O :  7.72  307O :  7.66  472O :  7.58  382O :  7.49   34O :  7.34  220O :  7.18  103O :  7.00   52O :  6.85  265O :  6.72  364O :  6.63  616O :  6.56  586O :  6.55
    7O :  6.41  481O :  6.36  256O :  6.34  703O :  6.33  553O :  6.21  280O :  6.09  685O :  6.08  160O :  6.05  403O :  5.86  400O :  5.79  193O :  5.73  217O :  5.27
  175O :  5.24   64O :  5.23  598O :  5.18  442O :  5.08  298O :  5.02  694O :  4.99  316O :  4.98  124O :  4.97  337O :  4.96  331O :  4.85  754O :  4.74  250O :  4.66
  109O :  4.59  115O :  4.55  628O :  4.53  529O :  4.48  562O :  4.46  202O :  4.45  475O :  4.41   91O :  4.41  697O :  4.41  517O :  4.33   37O :  4.31  556O :  4.22
  406O :  4.07  433O :  4.06  391O :  4.01  157O :  3.95   46O :  3.90  301O :  3.88   40O :  3.87  661O :  3.85  367O :  3.84  151O :  3.78  505O :  3.78    1O :  3.76
  571O :  3.71  742O :  3.69  643O :  3.66  112O :  3.64  106O :  3.62  343O :  3.62  142O :  3.59  271O :  3.56    4O :  3.53  370O :  3.49  205O :  3.37  613O :  3.35
  565O :  3.33  121O :  3.29  418O :  3.27  583O :  3.26  448O :  3.21  493O :  3.19   22O :  3.19  274O :  3.18  547O :  3.11  178O :  3.06  352O :  3.04  379O :  3.00
  745O :  2.96  658O :  2.96  100O :  2.94  388O :  2.94  166O :  2.79  355O :  2.75  709O :  2.71  595O :  2.71  514O :  2.70  748O :  2.65  532O :  2.59  580O :  2.53
  652O :  2.43  187O :  2.41  196O :  2.41  145O :  2.40  211O :  2.40  346O :  2.36  253O :  2.36   28O :  2.31  751O :  2.30  577O :  2.29  214O :  2.23  520O :  2.21
  544O :  2.17  589O :  2.14  706O :  2.13  604O :  2.12  655O :  2.09  310O :  2.06  405H :  2.05   88O :  2.05  478O :  2.02  682O :  2.00   10O :  1.99  277O :  1.90
  289O :  1.89  736O :  1.88  592O :  1.88  322O :  1.88  640O :  1.87  496O :  1.83  136O :  1.83  139O :  1.80  259O :  1.80  511O :  1.78  523O :  1.77   19O :  1.76
  154O :  1.73   15H :  1.72  313O :  1.69  319O :  1.68  688O :  1.65  169O :  1.64  673O :  1.63   32H :  1.63   69H :  1.62  232O :  1.60  700O :  1.60  727O :  1.59
  622O :  1.59   86H :  1.59  487O :  1.58  424O :  1.57  730O :  1.56  334O :  1.56  619O :  1.56  541O :  1.52  118O :  1.51  385O :  1.49  695H :  1.48  268O :  1.47
  469O :  1.42  409O :  1.42  358O :  1.39   61O :  1.36  733O :  1.30  609H :  1.29  676O :  1.28  611H :  1.23  445O :  1.22  397O :  1.21  226O :  1.20  229O :  1.20
   82O :  1.19  526O :  1.18  373O :  1.16  366H :  1.14  667O :  1.12  244O :  1.11  262O :  1.09   47H :  1.06  126H :  1.06  739O :  1.05  174H :  1.03   70O :  1.02
  568O :  1.00  306H :  1.00  550O :  0.99  412O :  0.99  104H :  0.97  473H :  0.96   53H :  0.94  182H :  0.93  163O :  0.92  427O :  0.92  325O :  0.91  460O :  0.91
  724O :  0.90  439O :  0.89  376O :  0.87   27H :  0.87  670O :  0.86  238O :  0.86  148O :  0.85  463O :  0.84  415O :  0.84  503H :  0.84   16O :  0.82  631O :  0.81
   78H :  0.81  394O :  0.78  664O :  0.77  420H :  0.77  721O :  0.73  158H :  0.72  637O :  0.72  286O :  0.71   38H :  0.68  272H :  0.68  691O :  0.68  282H :  0.67
  558H :  0.66  312H :  0.66  369H :  0.66  451O :  0.65   43O :  0.64  444H :  0.64  466O :  0.64  504H :  0.63  356H :  0.63  479H :  0.61  247O :  0.61   73O :  0.61
  601O :  0.61   94O :  0.61    8H :  0.57   79O :  0.57  295O :  0.57  421O :  0.56  476H :  0.55  360H :  0.55  660H :  0.54   50H :  0.53  195H :  0.53  584H :  0.53
  559O :  0.52  625O :  0.52  471H :  0.51  138H :  0.51  344H :  0.51  117H :  0.50  305H :  0.50  130O :  0.50   87H :  0.50  208O :  0.50  538O :  0.49  292O :  0.49
  634O :  0.48  387H :  0.46  718O :  0.46   57H :  0.46  449H :  0.46  380H :  0.45  225H :  0.44  179H :  0.44  167H :  0.44  574O :  0.44  338H :  0.43   11H :  0.43
  101H :  0.43  454O :  0.42  509H :  0.42  535O :  0.41  180H :  0.41   24H :  0.41  498H :  0.40  499O :  0.40  699H :  0.39  599H :  0.38  190O :  0.38  749H :  0.38
  283O :  0.38  690H :  0.37  649O :  0.37  430O :  0.37  241O :  0.37  715O :  0.37  203H :  0.36  644H :  0.36  318H :  0.36  513H :  0.36   58O :  0.36  368H :  0.35
  555H :  0.34  153H :  0.33   56H :  0.33  159H :  0.32  340O :  0.32   18H :  0.32  222H :  0.31  291H :  0.31  401H :  0.31  110H :  0.31   41H :  0.30  123H :  0.30
  597H :  0.30  347H :  0.30  351H :  0.30  255H :  0.30  518H :  0.30  125H :  0.30  512H :  0.29  578H :  0.29  665H :  0.29  133O :  0.29  281H :  0.29  440H :  0.28
   97O :  0.27  679O :  0.27  434H :  0.27  605H :  0.27  266H :  0.27  675H :  0.27  162H :  0.26  252H :  0.26  600H :  0.26  320H :  0.26  212H :  0.26   48H :  0.26
  279H :  0.26  734H :  0.26  566H :  0.25  127O :  0.25  407H :  0.25  674H :  0.25  206H :  0.24  371H :  0.24  300H :  0.24  582H :  0.24  194H :  0.24  546H :  0.24
  321H :  0.23  549H :  0.23  656H :  0.23  594H :  0.23  317H :  0.23  339H :  0.23  457O :  0.23  569H :  0.22  402H :  0.22  249H :  0.22  686H :  0.22  642H :  0.22
  362H :  0.21  453H :  0.21  615H :  0.21  755H :  0.21  467H :  0.21  752H :  0.20  408H :  0.19  726H :  0.19  623H :  0.19  572H :  0.19   14H :  0.19  155H :  0.19
  375H :  0.19  146H :  0.19  741H :  0.19  747H :  0.19  728H :  0.18  630H :  0.18  581H :  0.18  723H :  0.18  105H :  0.18  152H :  0.18  365H :  0.18  287H :  0.18
   54H :  0.18  267H :  0.17  641H :  0.17  192H :  0.17  564H :  0.17  299H :  0.17    6H :  0.16  333H :  0.16  602H :  0.16  426H :  0.15  573H :  0.15  657H :  0.15
   51H :  0.15  738H :  0.15  102H :  0.15  608H :  0.15  725H :  0.15  377H :  0.15  636H :  0.15  233H :  0.15  491H :  0.14  570H :  0.14  129H :  0.14  692H :  0.14
  335H :  0.14  149H :  0.14  374H :  0.14  396H :  0.14  275H :  0.14   45H :  0.14  326H :  0.14  132H :  0.14  392H :  0.14  548H :  0.14  230H :  0.13  525H :  0.13
  341H :  0.13  533H :  0.13  219H :  0.13  638H :  0.13  116H :  0.13  708H :  0.13  632H :  0.12  539H :  0.12  185H :  0.12  177H :  0.12  705H :  0.12  633H :  0.12
  666H :  0.12  486H :  0.12  204H :  0.11  108H :  0.11  143H :  0.11  458H :  0.11  482H :  0.11  236H :  0.11  323H :  0.11  519H :  0.11  585H :  0.10  261H :  0.10
   60H :  0.10  381H :  0.10  698H :  0.10  683H :  0.10  414H :  0.10  702H :  0.10  743H :  0.10  551H :  0.10  398H :  0.10  197H :  0.10  521H :  0.10  557H :  0.10
  441H :  0.10   20H :  0.10  336H :  0.10  140H :  0.10  411H :  0.10  285H :  0.10    9H :  0.09    2H :  0.09   74H :  0.09  654H :  0.09  729H :  0.09   44H :  0.09
  413H :  0.09  215H :  0.09  258H :  0.09   77H :  0.09   96H :  0.08  432H :  0.08  719H :  0.08  712O :  0.08  468H :  0.08  446H :  0.08  450H :  0.08  328O :  0.08
  537H :  0.08   71H :  0.08  461H :  0.08  257H :  0.08  429H :  0.07  531H :  0.07  176H :  0.07  596H :  0.07  330H :  0.07  240H :  0.07  228H :  0.07  659H :  0.07
  350H :  0.07
    9 LP   *******   0.00  14.62826 -32.79884  31.83510   31O : 21.41  361O : 15.53  610O : 14.77  181O : 13.69  502O : 13.61   76O : 12.02  172O : 11.90   85O : 11.28  508O : 10.88   49O : 10.51  199O : 10.23  223O : 10.15
  436O : 10.04  607O :  9.53  490O :  9.19   13O :  9.16   67O :  8.51   55O :  8.31  304O :  8.23  184O :  8.19   25O :  8.01  349O :  7.90  646O :  7.79  235O :  7.66
  484O :  7.59  307O :  7.53  472O :  7.45  382O :  7.37   34O :  7.21  220O :  7.06  103O :  6.88   52O :  6.74  265O :  6.61  364O :  6.52  616O :  6.45  586O :  6.44
    7O :  6.31  481O :  6.25  256O :  6.23  703O :  6.22  553O :  6.10  280O :  5.98  685O :  5.97  160O :  5.95  403O :  5.76  400O :  5.69  193O :  5.63  217O :  5.19
  175O :  5.15   64O :  5.14  598O :  5.09  442O :  4.99  298O :  4.93  694O :  4.91  316O :  4.90  124O :  4.89  337O :  4.88  331O :  4.75  754O :  4.66  250O :  4.58
  109O :  4.51  115O :  4.48  628O :  4.45  529O :  4.40  562O :  4.39  202O :  4.37  475O :  4.34   91O :  4.33  697O :  4.33  517O :  4.25   37O :  4.24  556O :  4.15
  406O :  4.00  433O :  3.99  391O :  3.94  157O :  3.88   46O :  3.83  301O :  3.82   40O :  3.81  661O :  3.78  367O :  3.77  151O :  3.72  505O :  3.72    1O :  3.70
  571O :  3.64  742O :  3.63  643O :  3.60  112O :  3.58  142O :  3.57  106O :  3.56  343O :  3.56  271O :  3.50    4O :  3.47  370O :  3.43  205O :  3.32  613O :  3.29
  565O :  3.28  121O :  3.23  418O :  3.21  583O :  3.20   22O :  3.18  448O :  3.15  493O :  3.14  274O :  3.12  547O :  3.06  178O :  3.01  352O :  2.99  379O :  2.95
  745O :  2.91  658O :  2.91  100O :  2.89  388O :  2.89  166O :  2.74  355O :  2.70  709O :  2.66  595O :  2.66  514O :  2.66  748O :  2.61  532O :  2.55  580O :  2.49
  652O :  2.39  187O :  2.37  196O :  2.37  145O :  2.36  211O :  2.36  346O :  2.32  253O :  2.32  611H :  2.31   28O :  2.27  751O :  2.26  577O :  2.25  214O :  2.19
  520O :  2.18  544O :  2.13  589O :  2.11  706O :  2.10  604O :  2.07  655O :  2.05  310O :  2.02  405H :  2.02   88O :  2.01  478O :  1.99  682O :  1.97   10O :  1.95
  277O :  1.87  289O :  1.86  736O :  1.85  592O :  1.85  322O :  1.85  640O :  1.84  496O :  1.80  136O :  1.80  169O :  1.79  139O :  1.77  259O :  1.77  511O :  1.75
  523O :  1.74   19O :  1.73  154O :  1.70   15H :  1.69  313O :  1.67  319O :  1.65  688O :  1.62  673O :  1.60   32H :  1.60   69H :  1.59  232O :  1.58  700O :  1.58
  727O :  1.57  622O :  1.57   86H :  1.56  487O :  1.55  424O :  1.54  730O :  1.54  334O :  1.54  619O :  1.53  541O :  1.50  118O :  1.48  385O :  1.47  695H :  1.46
  268O :  1.44  469O :  1.40  409O :  1.40  358O :  1.36   61O :  1.33  733O :  1.28  609H :  1.27  676O :  1.26  445O :  1.20  397O :  1.19  226O :  1.18  229O :  1.18
   82O :  1.17  526O :  1.16  373O :  1.14  366H :  1.12  667O :  1.11  244O :  1.09  262O :  1.07   47H :  1.04  126H :  1.04  739O :  1.03  174H :  1.01   70O :  1.00
  568O :  0.99  306H :  0.98  550O :  0.98  412O :  0.97  104H :  0.96  473H :  0.95   53H :  0.93  182H :  0.91  163O :  0.91  427O :  0.90  325O :  0.90  460O :  0.90
  724O :  0.88  503H :  0.87  376O :  0.86  439O :  0.85   27H :  0.85  670O :  0.84  238O :  0.84  148O :  0.84  463O :  0.83  415O :  0.83   16O :  0.80  631O :  0.79
   78H :  0.79  394O :  0.76  420H :  0.75  664O :  0.75  721O :  0.72  158H :  0.71  637O :  0.71  286O :  0.70   38H :  0.67  272H :  0.67  691O :  0.67  282H :  0.65
  558H :  0.65  312H :  0.65  369H :  0.64  451O :  0.64   43O :  0.63  444H :  0.63  466O :  0.63  356H :  0.62  479H :  0.60  247O :  0.60   73O :  0.60  601O :  0.60
   94O :  0.60    8H :  0.56   79O :  0.56  295O :  0.56  421O :  0.55  504H :  0.55  476H :  0.54  360H :  0.54  660H :  0.53   50H :  0.53  584H :  0.52  195H :  0.51
  559O :  0.51  625O :  0.51  225H :  0.51  471H :  0.50  138H :  0.50  344H :  0.50  117H :  0.50  130O :  0.49  305H :  0.49   87H :  0.49  208O :  0.49  292O :  0.48
  538O :  0.48  634O :  0.47  387H :  0.45  718O :  0.45   57H :  0.45  449H :  0.45  380H :  0.44  179H :  0.44  167H :  0.43   24H :  0.43  574O :  0.43  338H :  0.43
  101H :  0.42   11H :  0.42  454O :  0.42  509H :  0.41  535O :  0.41  180H :  0.40  498H :  0.40  499O :  0.39  699H :  0.38  599H :  0.38  190O :  0.37  749H :  0.37
  283O :  0.37  690H :  0.37  649O :  0.36  430O :  0.36  241O :  0.36  715O :  0.36  203H :  0.36  644H :  0.35  318H :  0.35  513H :  0.35   58O :  0.35  368H :  0.35
  555H :  0.34   56H :  0.33  153H :  0.32  159H :  0.32  340O :  0.31   18H :  0.31  222H :  0.30  291H :  0.30  401H :  0.30  110H :  0.30   41H :  0.30  123H :  0.30
  597H :  0.30  665H :  0.30  347H :  0.30  351H :  0.30  255H :  0.29  518H :  0.29  125H :  0.29  512H :  0.29  578H :  0.29  133O :  0.28  281H :  0.28   97O :  0.27
[...]
   370   8 o    1.849 --   371 h    0.880   372 h    0.834
   371   1 h    0.902 --   370 o    0.880
   372   1 h    0.890 --   370 o    0.834
   373   8 o    1.847 --   374 h    0.907   375 h    0.769
   374   1 h    0.917 --   373 o    0.907
   375   1 h    0.868 --   373 o    0.769
   376   8 o    1.865 --   378 h    0.838   377 h    0.823
   377   1 h    0.885 --   376 o    0.823
   378   1 h    0.893 --   376 o    0.838
   379   8 o    1.859 --   380 h    0.821   381 h    0.817
   380   1 h    0.873 --   379 o    0.821
   381   1 h    0.882 --   379 o    0.817
   382   8 o    1.877 --   384 h    0.808   383 h    0.808
   383   1 h    0.875 --   382 o    0.808
   384   1 h    0.882 --   382 o    0.808
   385   8 o    1.830 --   387 h    0.879   386 h    0.835
   386   1 h    0.892 --   385 o    0.835
   387   1 h    0.903 --   385 o    0.879
   388   8 o    1.869 --   390 h    0.830   389 h    0.799
   389   1 h    0.869 --   388 o    0.799
   390   1 h    0.881 --   388 o    0.830
   391   8 o    1.851 --   392 h    0.846   393 h    0.814
   392   1 h    0.895 --   391 o    0.846
   393   1 h    0.887 --   391 o    0.814
   394   8 o    1.881 --   395 h    0.915   396 h    0.792
   395   1 h    0.918 --   394 o    0.915
   396   1 h    0.880 --   394 o    0.792
   397   8 o    1.850 --   399 h    0.887   398 h    0.791
   398   1 h    0.865 --   397 o    0.791
   399   1 h    0.906 --   397 o    0.887
   400   8 o    1.864 --   401 h    0.878   402 h    0.817
   401   1 h    0.897 --   400 o    0.878
   402   1 h    0.884 --   400 o    0.817
   403   8 o    1.838 --   405 h    0.840   404 h    0.810
   404   1 h    0.874 --   403 o    0.810
   405   1 h    0.897 --   403 o    0.840
   406   8 o    1.860 --   408 h    0.840   407 h    0.816
   407   1 h    0.878 --   406 o    0.816
   408   1 h    0.891 --   406 o    0.840
   409   8 o    1.847 --   410 h    0.861   411 h    0.817
   410   1 h    0.896 --   409 o    0.861
   411   1 h    0.879 --   409 o    0.817
   412   8 o    1.842 --   414 h    0.797   413 h    0.792
   413   1 h    0.877 --   412 o    0.792
   414   1 h    0.877 --   412 o    0.797
   415   8 o    1.872 --   417 h    0.866   416 h    0.814
   416   1 h    0.890 --   415 o    0.814
   417   1 h    0.897 --   415 o    0.866
   418   8 o    1.858 --   420 h    0.862   419 h    0.799
   419   1 h    0.880 --   418 o    0.799
   420   1 h    0.899 --   418 o    0.862
   421   8 o    1.883 --   423 h    0.805   422 h    0.791
   422   1 h    0.876 --   421 o    0.791
   423   1 h    0.883 --   421 o    0.805
   424   8 o    1.868 --   425 h    0.837   426 h    0.796
   425   1 h    0.892 --   424 o    0.837
   426   1 h    0.878 --   424 o    0.796
   427   8 o    1.842 --   429 h    0.849   428 h    0.811
   428   1 h    0.879 --   427 o    0.811
   429   1 h    0.898 --   427 o    0.849
   430   8 o    1.847 --   432 h    0.863   431 h    0.801
   431   1 h    0.874 --   430 o    0.801
   432   1 h    0.895 --   430 o    0.863
   433   8 o    1.841 --   434 h    0.844   435 h    0.827
   434   1 h    0.891 --   433 o    0.844
   435   1 h    0.881 --   433 o    0.827
   436   8 o    1.868 --   437 h    0.886   438 h    0.789
   437   1 h    0.899 --   436 o    0.886
   438   1 h    0.865 --   436 o    0.789
   439   8 o    1.824 --   440 h    0.864   441 h    0.861
   440   1 h    0.897 --   439 o    0.864
   441   1 h    0.894 --   439 o    0.861
   442   8 o    1.861 --   444 h    0.840   443 h    0.807
   443   1 h    0.875 --   442 o    0.807
   444   1 h    0.891 --   442 o    0.840
   445   8 o    1.875 --   447 h    0.881   446 h    0.835
   446   1 h    0.886 --   445 o    0.835
   447   1 h    0.899 --   445 o    0.881
   448   8 o    1.829 --   450 h    0.846   449 h    0.842
   449   1 h    0.889 --   448 o    0.842
   450   1 h    0.892 --   448 o    0.846
   451   8 o    1.882 --   452 h    0.823   453 h    0.817
   452   1 h    0.891 --   451 o    0.823
   453   1 h    0.886 --   451 o    0.817
   454   8 o    1.846 --   456 h    0.861   455 h    0.743
   455   1 h    0.861 --   454 o    0.743    43 o    0.105
   456   1 h    0.893 --   454 o    0.861
   457   8 o    1.857 --   458 h    0.822   459 h    0.802
   458   1 h    0.885 --   457 o    0.822
   459   1 h    0.875 --   457 o    0.802
   460   8 o    1.838 --   461 h    0.829   462 h    0.800
   461   1 h    0.888 --   460 o    0.829
   462   1 h    0.873 --   460 o    0.800
   463   8 o    1.826 --   464 h    0.902   465 h    0.832
   464   1 h    0.911 --   463 o    0.902
   465   1 h    0.882 --   463 o    0.832
   466   8 o    1.855 --   468 h    0.854   467 h    0.810
   467   1 h    0.883 --   466 o    0.810
   468   1 h    0.894 --   466 o    0.854
   469   8 o    1.838 --   470 h    0.853   471 h    0.813
   470   1 h    0.900 --   469 o    0.853
   471   1 h    0.879 --   469 o    0.813
   472   8 o    1.872 --   474 h    0.861   473 h    0.842
   473   1 h    0.890 --   472 o    0.842
   474   1 h    0.892 --   472 o    0.861
   475   8 o    1.881 --   476 h    0.866   477 h    0.788
   476   1 h    0.891 --   475 o    0.866
   477   1 h    0.873 --   475 o    0.788
   478   8 o    1.832 --   480 h    0.876   479 h    0.775
   479   1 h    0.867 --   478 o    0.775
   480   1 h    0.902 --   478 o    0.876
   481   8 o    1.840 --   483 h    0.864   482 h    0.843
   482   1 h    0.890 --   481 o    0.843
   483   1 h    0.895 --   481 o    0.864
   484   8 o    1.861 --   485 h    0.916   486 h    0.779
   485   1 h    0.920 --   484 o    0.916
   486   1 h    0.873 --   484 o    0.779
   487   8 o    1.829 --   488 h    0.889   489 h    0.833
   488   1 h    0.902 --   487 o    0.889
   489   1 h    0.889 --   487 o    0.833
   490   8 o    1.849 --   491 h    0.837   492 h    0.821
   491   1 h    0.894 --   490 o    0.837
   492   1 h    0.877 --   490 o    0.821
   493   8 o    1.847 --   494 h    0.856   495 h    0.797
   494   1 h    0.893 --   493 o    0.856
   495   1 h    0.876 --   493 o    0.797
   496   8 o    1.868 --   498 h    0.895   497 h    0.857
   497   1 h    0.889 --   496 o    0.857
   498   1 h    0.902 --   496 o    0.895
   499   8 o    1.840 --   500 h    0.864   501 h    0.790
   500   1 h    0.901 --   499 o    0.864
   501   1 h    0.876 --   499 o    0.790
   502   8 o    1.842 --   504 h    0.873   503 h    0.853
   503   1 h    0.892 --   502 o    0.853
   504   1 h    0.898 --   502 o    0.873
   505   8 o    1.803 --   507 h    0.852   506 h    0.825
   506   1 h    0.888 --   505 o    0.825
   507   1 h    0.901 --   505 o    0.852
   508   8 o    1.857 --   510 h    0.838   509 h    0.794
   509   1 h    0.877 --   508 o    0.794
   510   1 h    0.882 --   508 o    0.838
   511   8 o    1.831 --   513 h    0.886   512 h    0.835
   512   1 h    0.891 --   511 o    0.835
   513   1 h    0.904 --   511 o    0.886
   514   8 o    1.856 --   516 h    0.892   515 h    0.812
   515   1 h    0.875 --   514 o    0.812
   516   1 h    0.907 --   514 o    0.892
   517   8 o    1.859 --   518 h    0.881   519 h    0.816
   518   1 h    0.900 --   517 o    0.881
   519   1 h    0.882 --   517 o    0.816
   520   8 o    1.868 --   521 h    0.844   522 h    0.834
   521   1 h    0.890 --   520 o    0.844
   522   1 h    0.889 --   520 o    0.834
   523   8 o    1.861 --   524 h    0.866   525 h    0.851
   524   1 h    0.898 --   523 o    0.866
   525   1 h    0.888 --   523 o    0.851
   526   8 o    1.870 --   528 h    0.887   527 h    0.854
   527   1 h    0.888 --   526 o    0.854
   528   1 h    0.901 --   526 o    0.887
   529   8 o    1.858 --   531 h    0.851   530 h    0.847
   530   1 h    0.887 --   529 o    0.847
   531   1 h    0.883 --   529 o    0.851
   532   8 o    1.833 --   534 h    0.841   533 h    0.799
   533   1 h    0.879 --   532 o    0.799
   534   1 h    0.898 --   532 o    0.841
   535   8 o    1.809 --   537 h    0.858   536 h    0.853
   536   1 h    0.894 --   535 o    0.853
   537   1 h    0.899 --   535 o    0.858
   538   8 o    1.823 --   540 h    0.877   539 h    0.829
   539   1 h    0.888 --   538 o    0.829
   540   1 h    0.900 --   538 o    0.877
   541   8 o    1.828 --   542 h    0.863   543 h    0.814
   542   1 h    0.898 --   541 o    0.863
   543   1 h    0.886 --   541 o    0.814
   544   8 o    1.823 --   545 h    0.858   546 h    0.834
   545   1 h    0.893 --   544 o    0.858
   546   1 h    0.891 --   544 o    0.834
   547   8 o    1.861 --   549 h    0.846   548 h    0.807
   548   1 h    0.873 --   547 o    0.807
   549   1 h    0.890 --   547 o    0.846
   550   8 o    1.861 --   551 h    0.836   552 h    0.779
   551   1 h    0.897 --   550 o    0.836
   552   1 h    0.876 --   550 o    0.779
   553   8 o    1.849 --   555 h    0.876   554 h    0.864
   554   1 h    0.894 --   553 o    0.864
   555   1 h    0.902 --   553 o    0.876
   556   8 o    1.883 --   558 h    0.828   557 h    0.792
   557   1 h    0.874 --   556 o    0.792
   558   1 h    0.880 --   556 o    0.828
   559   8 o    1.849 --   560 h    0.861   561 h    0.784
   560   1 h    0.900 --   559 o    0.861
   561   1 h    0.873 --   559 o    0.784
   562   8 o    1.863 --   563 h    0.860   564 h    0.810
   563   1 h    0.893 --   562 o    0.860
   564   1 h    0.867 --   562 o    0.810
   565   8 o    1.851 --   566 h    0.842   567 h    0.832
   566   1 h    0.893 --   565 o    0.842
   567   1 h    0.882 --   565 o    0.832
   568   8 o    1.828 --   569 h    0.884   570 h    0.838
   569   1 h    0.901 --   568 o    0.884
   570   1 h    0.882 --   568 o    0.838
   571   8 o    1.846 --   572 h    0.822   573 h    0.815
   572   1 h    0.885 --   571 o    0.822
   573   1 h    0.882 --   571 o    0.815
   574   8 o    1.839 --   575 h    0.841   576 h    0.822
   575   1 h    0.899 --   574 o    0.841
   576   1 h    0.879 --   574 o    0.822
   577   8 o    1.838 --   579 h    0.873   578 h    0.816
   578   1 h    0.880 --   577 o    0.816
   579   1 h    0.900 --   577 o    0.873
   580   8 o    1.890 --   581 h    0.838   582 h    0.822   636 h    0.123
   581   1 h    0.893 --   580 o    0.838
   582   1 h    0.884 --   580 o    0.822
   583   8 o    1.833 --   584 h    0.827   585 h    0.810
   584   1 h    0.891 --   583 o    0.827
   585   1 h    0.878 --   583 o    0.810
   586   8 o    1.842 --   588 h    0.885   587 h    0.815
   587   1 h    0.881 --   586 o    0.815
   588   1 h    0.905 --   586 o    0.885
   589   8 o    1.835 --   590 h    0.889   591 h    0.803
   590   1 h    0.905 --   589 o    0.889
   591   1 h    0.871 --   589 o    0.803
   592   8 o    1.843 --   594 h    0.874   593 h    0.848
   593   1 h    0.891 --   592 o    0.848
   594   1 h    0.898 --   592 o    0.874
   595   8 o    1.881 --   596 h    0.853   597 h    0.786
   596   1 h    0.900 --   595 o    0.853
   597   1 h    0.871 --   595 o    0.786
   598   8 o    1.843 --   600 h    0.860   599 h    0.851
   599   1 h    0.894 --   598 o    0.851
   600   1 h    0.902 --   598 o    0.860
   601   8 o    1.878 --   603 h    0.854   602 h    0.813
   602   1 h    0.880 --   601 o    0.813
   603   1 h    0.888 --   601 o    0.854
   604   8 o    1.843 --   605 h    0.887   606 h    0.824
   605   1 h    0.904 --   604 o    0.887
   606   1 h    0.883 --   604 o    0.824
   607   8 o    1.829 --   608 h    0.812   609 h    0.804
   608   1 h    0.878 --   607 o    0.812
   609   1 h    0.886 --   607 o    0.804
   610   8 o    1.826 --   612 h    0.831   611 h    0.791
   611   1 h    0.874 --   610 o    0.791
   612   1 h    0.897 --   610 o    0.831
   613   8 o    1.847 --   614 h    0.921   615 h    0.781
   614   1 h    0.923 --   613 o    0.921
   615   1 h    0.871 --   613 o    0.781
   616   8 o    1.857 --   618 h    0.847   617 h    0.827
   617   1 h    0.877 --   616 o    0.827
   618   1 h    0.899 --   616 o    0.847
   619   8 o    1.843 --   621 h    0.857   620 h    0.821
   620   1 h    0.887 --   619 o    0.821
   621   1 h    0.894 --   619 o    0.857
   622   8 o    1.851 --   623 h    0.894   624 h    0.800
   623   1 h    0.907 --   622 o    0.894
   624   1 h    0.880 --   622 o    0.800
   625   8 o    1.859 --   627 h    0.901   626 h    0.791
   626   1 h    0.874 --   625 o    0.791
   627   1 h    0.912 --   625 o    0.901
   628   8 o    1.839 --   630 h    0.796   629 h    0.768
   629   1 h    0.869 --   628 o    0.768
   630   1 h    0.880 --   628 o    0.796
   631   8 o    1.841 --   632 h    0.847   633 h    0.814
   632   1 h    0.896 --   631 o    0.847
   633   1 h    0.879 --   631 o    0.814
   634   8 o    1.853 --   635 h    0.912   636 h    0.748
   635   1 h    0.921 --   634 o    0.912
   636   1 h    0.874 --   634 o    0.748   580 o    0.123
   637   8 o    1.846 --   638 h    0.872   639 h    0.823
   638   1 h    0.897 --   637 o    0.872
   639   1 h    0.888 --   637 o    0.823
   640   8 o    1.896 --   641 h    0.831   642 h    0.807
   641   1 h    0.882 --   640 o    0.831
   642   1 h    0.881 --   640 o    0.807
   643   8 o    1.870 --   644 h    0.914   645 h    0.784
   644   1 h    0.919 --   643 o    0.914
   645   1 h    0.876 --   643 o    0.784
   646   8 o    1.867 --   648 h    0.860   647 h    0.857
   647   1 h    0.897 --   646 o    0.857
   648   1 h    0.899 --   646 o    0.860
   649   8 o    1.847 --   651 h    0.914   650 h    0.841
   650   1 h    0.893 --   649 o    0.841
   651   1 h    0.917 --   649 o    0.914
   652   8 o    1.859 --   653 h    0.791   654 h    0.782
   653   1 h    0.884 --   652 o    0.791
   654   1 h    0.883 --   652 o    0.782
   655   8 o    1.844 --   656 h    0.847   657 h    0.823
   656   1 h    0.884 --   655 o    0.847
   657   1 h    0.888 --   655 o    0.823
   658   8 o    1.844 --   660 h    0.910   659 h    0.791
   659   1 h    0.876 --   658 o    0.791
   660   1 h    0.919 --   658 o    0.910
   661   8 o    1.861 --   662 h    0.846   663 h    0.823
   662   1 h    0.885 --   661 o    0.846
   663   1 h    0.872 --   661 o    0.823
   664   8 o    1.847 --   666 h    0.881   665 h    0.823
   665   1 h    0.885 --   664 o    0.823
   666   1 h    0.905 --   664 o    0.881
   667   8 o    1.843 --   668 h    0.858   669 h    0.837
   668   1 h    0.900 --   667 o    0.858
   669   1 h    0.882 --   667 o    0.837
   670   8 o    1.848 --   671 h    0.891   672 h    0.769
   671   1 h    0.902 --   670 o    0.891
   672   1 h    0.867 --   670 o    0.769
   673   8 o    1.891 --   675 h    0.830   674 h    0.813
   674   1 h    0.873 --   673 o    0.813
   675   1 h    0.889 --   673 o    0.830
   676   8 o    1.844 --   678 h    0.912   677 h    0.792
   677   1 h    0.876 --   676 o    0.792
   678   1 h    0.920 --   676 o    0.912
   679   8 o    1.862 --   680 h    0.919   681 h    0.818
   680   1 h    0.922 --   679 o    0.919
   681   1 h    0.881 --   679 o    0.818
   682   8 o    1.861 --   684 h    0.801   683 h    0.781
   683   1 h    0.870 --   682 o    0.781
   684   1 h    0.887 --   682 o    0.801
   685   8 o    1.843 --   686 h    0.862   687 h    0.812
   686   1 h    0.895 --   685 o    0.862
   687   1 h    0.889 --   685 o    0.812
   688   8 o    1.868 --   689 h    0.862   690 h    0.847
   689   1 h    0.891 --   688 o    0.862
   690   1 h    0.893 --   688 o    0.847
   691   8 o    1.832 --   692 h    0.913   693 h    0.784
   692   1 h    0.919 --   691 o    0.913
   693   1 h    0.877 --   691 o    0.784
   694   8 o    1.855 --   696 h    0.830   695 h    0.811
   695   1 h    0.890 --   694 o    0.811
   696   1 h    0.884 --   694 o    0.830
   697   8 o    1.835 --   699 h    0.840   698 h    0.820
   698   1 h    0.892 --   697 o    0.820
   699   1 h    0.895 --   697 o    0.840
   700   8 o    1.813 --   702 h    0.845   701 h    0.823
   701   1 h    0.890 --   700 o    0.823
   702   1 h    0.894 --   700 o    0.845
   703   8 o    1.876 --   704 h    0.812   705 h    0.800
   704   1 h    0.871 --   703 o    0.812
   705   1 h    0.879 --   703 o    0.800
   706   8 o    1.819 --   708 h    0.828   707 h    0.818
   707   1 h    0.883 --   706 o    0.818
   708   1 h    0.893 --   706 o    0.828
   709   8 o    1.852 --   710 h    0.911   711 h    0.828
   710   1 h    0.916 --   709 o    0.911
   711   1 h    0.879 --   709 o    0.828
   712   8 o    1.853 --   714 h    0.861   713 h    0.820
   713   1 h    0.871 --   712 o    0.820
   714   1 h    0.898 --   712 o    0.861
   715   8 o    1.851 --   717 h    0.846   716 h    0.836
   716   1 h    0.882 --   715 o    0.836
   717   1 h    0.890 --   715 o    0.846
   718   8 o    1.825 --   720 h    0.870   719 h    0.845
   719   1 h    0.887 --   718 o    0.845
   720   1 h    0.899 --   718 o    0.870
   721   8 o    1.810 --   722 h    0.866   723 h    0.841
   722   1 h    0.897 --   721 o    0.866
   723   1 h    0.891 --   721 o    0.841
   724   8 o    1.864 --   726 h    0.879   725 h    0.826
   725   1 h    0.877 --   724 o    0.826
   726   1 h    0.900 --   724 o    0.879
   727   8 o    1.799 --   729 h    0.878   728 h    0.826
   728   1 h    0.889 --   727 o    0.826
   729   1 h    0.907 --   727 o    0.878
   730   8 o    1.860 --   731 h    0.918   732 h    0.836
   731   1 h    0.921 --   730 o    0.918
   732   1 h    0.882 --   730 o    0.836
   733   8 o    1.868 --   734 h    0.864   735 h    0.831
   734   1 h    0.895 --   733 o    0.864
   735   1 h    0.891 --   733 o    0.831
   736   8 o    1.871 --   738 h    0.851   737 h    0.823
   737   1 h    0.883 --   736 o    0.823
   738   1 h    0.893 --   736 o    0.851
   739   8 o    1.855 --   740 h    0.852   741 h    0.827
   740   1 h    0.897 --   739 o    0.852
   741   1 h    0.885 --   739 o    0.827
   742   8 o    1.827 --   743 h    0.856   744 h    0.838
   743   1 h    0.891 --   742 o    0.856
   744   1 h    0.893 --   742 o    0.838
   745   8 o    1.841 --   747 h    0.814   746 h    0.809
   746   1 h    0.884 --   745 o    0.809
   747   1 h    0.884 --   745 o    0.814
   748   8 o    1.848 --   750 h    0.833   749 h    0.810
   749   1 h    0.878 --   748 o    0.810
   750   1 h    0.869 --   748 o    0.833
   751   8 o    1.816 --   753 h    0.885   752 h    0.849
   752   1 h    0.877 --   751 o    0.849
   753   1 h    0.898 --   751 o    0.885
   754   8 o    1.803 --   755 h    0.880   756 h    0.869
   755   1 h    0.897 --   754 o    0.880
   756   1 h    0.894 --   754 o    0.869
 ---------------------------------------------------------------------------

Topologies differ in total number of bonds
Writing topology from bond orders to xtbtopo.mol

molecular dipole:
                 x           y           z       tot (Debye)
 q only:        2.909       3.048       1.306
   full:        3.924       4.394       0.711      15.081
molecular quadrupole (traceless):
                xx          xy          yy          xz          yz          zz
 q only:      171.645      65.246    -107.482      14.244      -2.080     -64.163
  q+dip:      251.228     110.911    -157.752      21.627       5.606     -93.476
   full:      254.210     111.290    -160.159      22.090       4.996     -94.051


           -------------------------------------------------
          | TOTAL ENERGY            -1283.292356359368 Eh   |
          | GRADIENT NORM               0.103882219481 Eh/α |
          | HOMO-LUMO GAP               5.783242064332 eV   |
           -------------------------------------------------

------------------------------------------------------------------------
 * finished run on 2022/11/24 at 12:22:35.209     
------------------------------------------------------------------------
 total:
 * wall-time:     0 d,  0 h,  0 min, 54.374 sec
 *  cpu-time:     0 d,  0 h,  1 min,  9.068 sec
 * ratio c/w:     1.270 speedup
 SCF:
 * wall-time:     0 d,  0 h,  0 min, 53.347 sec
 *  cpu-time:     0 d,  0 h,  1 min,  7.325 sec
 * ratio c/w:     1.262 speedup

