      -----------------------------------------------------------      
     |                   =====================                   |     
     |                           x T B                           |     
     |                   =====================                   |     
     |                         S. Grimme                         |     
     |          Mulliken Center for Theoretical Chemistry        |     
     |                    University of Bonn                     |     
      -----------------------------------------------------------      

   * xtb version 6.5.1 (579679a) compiled by 'ehlert@majestix' on 2022-07-11

   xtb is free software: you can redistribute it and/or modify it under
   the terms of the GNU Lesser General Public License as published by
   the Free Software Foundation, either version 3 of the License, or
   (at your option) any later version.
   
   xtb is distributed in the hope that it will be useful,
   but WITHOUT ANY WARRANTY; without even the implied warranty of
   MERCHANTABILITY or FITNESS FOR A PARTICULAR PURPOSE.  See the
   GNU Lesser General Public License for more details.
   
   Cite this work as:
   * C. Bannwarth, E. Caldeweyher, S. Ehlert, A. Hansen, P. Pracht,
     J. Seibert, S. Spicher, S. Grimme, WIREs Comput. Mol. Sci., 2020, 11,
     e01493. DOI: 10.1002/wcms.1493
   
   for GFN2-xTB:
   * C. Bannwarth, S. Ehlert and S. Grimme., J. Chem. Theory Comput., 2019,
     15, 1652-1671. DOI: 10.1021/acs.jctc.8b01176
   for GFN1-xTB:
   * S. Grimme, C. Bannwarth, P. Shushkov, J. Chem. Theory Comput., 2017,
     13, 1989-2009. DOI: 10.1021/acs.jctc.7b00118
   for GFN0-xTB:
   * P. Pracht, E. Caldeweyher, S. Ehlert, S. Grimme, ChemRxiv, 2019, preprint.
     DOI: 10.26434/chemrxiv.8326202.v1
   for GFN-FF:
   * S. Spicher and S. Grimme, Angew. Chem. Int. Ed., 2020, 59, 15665-15673.
     DOI: 10.1002/anie.202004239
   
   for ALPB and GBSA implicit solvation:
   * S. Ehlert, M. Stahn, S. Spicher, S. Grimme, J. Chem. Theory Comput.,
     2021, 17, 4250-4261. DOI: 10.1021/acs.jctc.1c00471
   
   for DFT-D4:
   * E. Caldeweyher, C. Bannwarth and S. Grimme, J. Chem. Phys., 2017,
     147, 034112. DOI: 10.1063/1.4993215
   * E. Caldeweyher, S. Ehlert, A. Hansen, H. Neugebauer, S. Spicher,
     C. Bannwarth and S. Grimme, J. Chem. Phys., 2019, 150, 154122.
     DOI: 10.1063/1.5090222
   * E. Caldeweyher, J.-M. Mewes, S. Ehlert and S. Grimme, Phys. Chem. Chem. Phys.
     2020, 22, 8499-8512. DOI: 10.1039/D0CP00502A
   
   for sTDA-xTB:
   * S. Grimme and C. Bannwarth, J. Chem. Phys., 2016, 145, 054103.
     DOI: 10.1063/1.4959605
   
   in the mass-spec context:
   * V. Asgeirsson, C. Bauer and S. Grimme, Chem. Sci., 2017, 8, 4879.
     DOI: 10.1039/c7sc00601b
   * J. Koopman and S. Grimme, ACS Omega 2019, 4, 12, 15120-15133.
     DOI: 10.1021/acsomega.9b02011
   
   for metadynamics refer to:
   * S. Grimme, J. Chem. Theory Comput., 2019, 155, 2847-2862
     DOI: 10.1021/acs.jctc.9b00143
   
   for SPH calculations refer to:
   * S. Spicher and S. Grimme, J. Chem. Theory Comput., 2021, 17, 1701-1714
     DOI: 10.1021/acs.jctc.0c01306
   
   with help from (in alphabetical order)
   P. Atkinson, C. Bannwarth, F. Bohle, G. Brandenburg, E. Caldeweyher
   M. Checinski, S. Dohm, S. Ehlert, S. Ehrlich, I. Gerasimov, C. Hölzer
   A. Katbashev, J. Koopman, C. Lavigne, S. Lehtola, F. März, M. Müller,
   F. Musil, H. Neugebauer, J. Pisarek, C. Plett, P. Pracht, F. Pultar,
   J. Seibert, P. Shushkov, S. Spicher, M. Stahn, M. Steiner, T. Strunk,
   J. Stückrath, T. Rose, and J. Unsleber
   
 * started run on 2022/11/24 at 12:21:16.689     

           -------------------------------------------------
          |                Calculation Setup                |
           -------------------------------------------------

          program call               : xtb xtbopt.coord --gfn2 --sp --gbsa water
          hostname                   : cn0430
          coordinate file            : xtbopt.coord
          omp threads                :                     2

   ID    Z sym.   atoms
    1    8 o      1, 4, 7, 10, 13, 16, 19, 22, 25, 28, 31, 34, 37, 40, 43,
                  46, 49, 52, 55, 58, 61, 64, 67, 70, 73, 76, 79, 82, 85, 88,
                  91, 94, 97, 100, 103, 106, 109, 112, 115, 118, 121, 124,
                  127, 130, 133, 136, 139, 142, 145, 148, 151, 154, 157, 160,
                  163, 166, 169, 172, 175, 178, 181, 184, 187, 190, 193, 196,
                  199, 202, 205, 208, 211, 214, 217, 220, 223, 226, 229, 232,
                  235, 238, 241, 244, 247, 250, 253, 256, 259, 262, 265, 268,
                  271, 274, 277, 280, 283, 286, 289, 292, 295, 298, 301, 304,
                  307, 310, 313, 316, 319, 322, 325, 328, 331, 334, 337, 340,
                  343, 346, 349, 352, 355, 358, 361, 364, 367, 370, 373, 376,
                  379, 382, 385, 388, 391, 394, 397, 400, 403, 406, 409, 412,
                  415, 418, 421, 424, 427, 430, 433, 436, 439, 442, 445, 448,
                  451, 454, 457, 460, 463, 466, 469, 472, 475, 478, 481, 484,
                  487, 490, 493, 496, 499, 502, 505, 508, 511, 514, 517, 520,
                  523, 526, 529, 532, 535, 538, 541, 544, 547, 550, 553, 556,
                  559, 562, 565, 568, 571, 574, 577, 580, 583, 586, 589, 592,
                  595, 598, 601, 604, 607, 610, 613, 616, 619, 622, 625, 628,
                  631, 634, 637, 640, 643, 646, 649, 652, 655, 658, 661, 664,
                  667, 670, 673, 676, 679, 682, 685, 688, 691, 694, 697, 700,
                  703, 706, 709, 712, 715, 718, 721, 724, 727, 730, 733, 736,
                  739, 742, 745, 748, 751, 754
    2    1 h      2, 3, 5, 6, 8, 9, 11, 12, 14, 15, 17, 18, 20, 21, 23, 24,
                  26, 27, 29, 30, 32, 33, 35, 36, 38, 39, 41, 42, 44, 45, 47,
                  48, 50, 51, 53, 54, 56, 57, 59, 60, 62, 63, 65, 66, 68, 69,
                  71, 72, 74, 75, 77, 78, 80, 81, 83, 84, 86, 87, 89, 90, 92,
                  93, 95, 96, 98, 99, 101, 102, 104, 105, 107, 108, 110, 111,
                  113, 114, 116, 117, 119, 120, 122, 123, 125, 126, 128, 129,
                  131, 132, 134, 135, 137, 138, 140, 141, 143, 144, 146, 147,
                  149, 150, 152, 153, 155, 156, 158, 159, 161, 162, 164, 165,
                  167, 168, 170, 171, 173, 174, 176, 177, 179, 180, 182, 183,
                  185, 186, 188, 189, 191, 192, 194, 195, 197, 198, 200, 201,
                  203, 204, 206, 207, 209, 210, 212, 213, 215, 216, 218, 219,
                  221, 222, 224, 225, 227, 228, 230, 231, 233, 234, 236, 237,
                  239, 240, 242, 243, 245, 246, 248, 249, 251, 252, 254, 255,
                  257, 258, 260, 261, 263, 264, 266, 267, 269, 270, 272, 273,
                  275, 276, 278, 279, 281, 282, 284, 285, 287, 288, 290, 291,
                  293, 294, 296, 297, 299, 300, 302, 303, 305, 306, 308, 309,
                  311, 312, 314, 315, 317, 318, 320, 321, 323, 324, 326, 327,
                  329, 330, 332, 333, 335, 336, 338, 339, 341, 342, 344, 345,
                  347, 348, 350, 351, 353, 354, 356, 357, 359, 360, 362, 363,
                  365, 366, 368, 369, 371, 372, 374, 375, 377, 378, 380, 381,
                  383, 384, 386, 387, 389, 390, 392, 393, 395, 396, 398, 399,
                  401, 402, 404, 405, 407, 408, 410, 411, 413, 414, 416, 417,
                  419, 420, 422, 423, 425, 426, 428, 429, 431, 432, 434, 435,
                  437, 438, 440, 441, 443, 444, 446, 447, 449, 450, 452, 453,
                  455, 456, 458, 459, 461, 462, 464, 465, 467, 468, 470, 471,
                  473, 474, 476, 477, 479, 480, 482, 483, 485, 486, 488, 489,
                  491, 492, 494, 495, 497, 498, 500, 501, 503, 504, 506, 507,
                  509, 510, 512, 513, 515, 516, 518, 519, 521, 522, 524, 525,
                  527, 528, 530, 531, 533, 534, 536, 537, 539, 540, 542, 543,
                  545, 546, 548, 549, 551, 552, 554, 555, 557, 558, 560, 561,
                  563, 564, 566, 567, 569, 570, 572, 573, 575, 576, 578, 579,
                  581, 582, 584, 585, 587, 588, 590, 591, 593, 594, 596, 597,
                  599, 600, 602, 603, 605, 606, 608, 609, 611, 612, 614, 615,
                  617, 618, 620, 621, 623, 624, 626, 627, 629, 630, 632, 633,
                  635, 636, 638, 639, 641, 642, 644, 645, 647, 648, 650, 651,
                  653, 654, 656, 657, 659, 660, 662, 663, 665, 666, 668, 669,
                  671, 672, 674, 675, 677, 678, 680, 681, 683, 684, 686, 687,
                  689, 690, 692, 693, 695, 696, 698, 699, 701, 702, 704, 705,
                  707, 708, 710, 711, 713, 714, 716, 717, 719, 720, 722, 723,
                  725, 726, 728, 729, 731, 732, 734, 735, 737, 738, 740, 741,
                  743, 744, 746, 747, 749, 750, 752, 753, 755, 756

molecular fragmentation (1/2 indicates fragments):
111222222222222222222222222222222222222222222222222222222222222222222222
222222222222222222222222222222222222222222222222222222222222222222222222
222222222222222222222222222222222222222222222222222222222222222222222222
222222222222222222222222222222222222222222222222222222222222222222222222
222222222222222222222222222222222222222222222222222222222222222222222222
222222222222222222222222222222222222222222222222222222222222222222222222
222222222222222222222222222222222222222222222222222222222222222222222222
222222222222222222222222222222222222222222222222222222222222222222222222
222222222222222222222222222222222222222222222222222222222222222222222222
222222222222222222222222222222222222222222222222222222222222222222222222
222222222222222222222222222222222222
# atoms in fragment 1/2:     3   753
 fragment masses (1/2) :       18.02     4521.84
CMA distance (Bohr)    :  16.822
constraining FC (au)   :  0.0500

           -------------------------------------------------
          |                 G F N 2 - x T B                 |
           -------------------------------------------------

        Reference                      10.1021/acs.jctc.8b01176
      * Hamiltonian:
        H0-scaling (s, p, d)           1.850000    2.230000    2.230000
        zeta-weighting                 0.500000
      * Dispersion:
        s8                             2.700000
        a1                             0.520000
        a2                             5.000000
        s9                             5.000000
      * Repulsion:
        kExp                           1.500000    1.000000
        rExp                           1.000000
      * Coulomb:
        alpha                          2.000000
        third order                    shell-resolved
        anisotropic                    true
        a3                             3.000000
        a5                             4.000000
        cn-shift                       1.200000
        cn-exp                         4.000000
        max-rad                        5.000000

      * Solvation model:               GBSA
        Solvent                        water
        Parameter file                 internal GFN2-xTB/GBSA
        Dielectric constant                8.0200E+01
        Reference state                gsolv [1 M gas/solution]
        Free energy shift                  1.8574E-03 Eh       1.1656E+00 kcal/mol
        Temperature                        2.9815E+02 K
        Density                            1.0000E+00 kg/L
        Solvent mass                       1.8000E+01 g/mol
        Interaction kernel             Still
        Born radius scaling (c1)           1.5524E+00
        Born radii integrator          GBOBC
        Born offset                        2.4628E-02 a0       4.6540E-02 AA
        H-bond correction              true
        Ion screening                  false
        Surface tension                    1.0000E-05 Eh       1.5569E+01 dyn/cm
        Grid points                               230 per atom

          ...................................................
          :                      SETUP                      :
          :.................................................:
          :  # basis functions                1512          :
          :  # atomic orbitals                1512          :
          :  # shells                         1008          :
          :  # electrons                      2016          :
          :  max. iterations                   250          :
          :  Hamiltonian                  GFN2-xTB          :
          :  restarted?                      false          :
          :  GBSA solvation                   true          :
          :  PC potential                    false          :
          :  electronic temp.          300.0000000     K    :
          :  accuracy                    1.0000000          :
          :  -> integral cutoff          0.2500000E+02      :
          :  -> integral neglect         0.1000000E-07      :
          :  -> SCF convergence          0.1000000E-05 Eh   :
          :  -> wf. convergence          0.1000000E-03 e    :
          :  Broyden damping             0.4000000          :
          ...................................................

 iter      E             dE          RMSdq      gap      omega  full diag
   1  -1291.2227440 -0.129122E+04  0.409E+00    8.33       0.0  T
   2  -1291.3049840 -0.822399E-01  0.242E+00    7.95       1.0  T
   3  -1291.3408150 -0.358310E-01  0.224E-01    6.68       1.0  T
   4  -1291.3461561 -0.534118E-02  0.485E-02    6.96       1.0  T
   5  -1291.3463245 -0.168395E-03  0.311E-02    6.90       1.0  T
   6  -1291.3463736 -0.490727E-04  0.354E-03    6.90       1.0  T
   7  -1291.3463751 -0.147944E-05  0.963E-04    6.90       3.8  T
   8  -1291.3463752 -0.107537E-06  0.475E-04    6.90       7.7  T
   9  -1291.3463752 -0.369068E-07  0.142E-04    6.90      25.6  T

   *** convergence criteria satisfied after 9 iterations ***

         #    Occupation            Energy/Eh            Energy/eV
      -------------------------------------------------------------
         1        2.0000           -0.6594281             -17.9440
       ...           ...                  ...                  ...
      1002        2.0000           -0.3300469              -8.9810
      1003        2.0000           -0.3296427              -8.9700
      1004        2.0000           -0.3284383              -8.9373
      1005        2.0000           -0.3273143              -8.9067
      1006        2.0000           -0.3266082              -8.8875
      1007        2.0000           -0.3233717              -8.7994
      1008        2.0000           -0.3047396              -8.2924 (HOMO)
      1009                         -0.0512101              -1.3935 (LUMO)
      1010                         -0.0423749              -1.1531
      1011                         -0.0331991              -0.9034
      1012                         -0.0309652              -0.8426
      1013                         -0.0247255              -0.6728
       ...                                ...                  ...
      1512                          0.5026718              13.6784
      -------------------------------------------------------------
                  HL-Gap            0.2535296 Eh            6.8989 eV
             Fermi-level           -0.1779749 Eh           -4.8429 eV

 SCC (total)                   0 d,  0 h,  0 min, 19.978 sec
 SCC setup                      ...        0 min,  0.115 sec (  0.576%)
 Dispersion                     ...        0 min,  0.110 sec (  0.551%)
 classical contributions        ...        0 min,  0.023 sec (  0.117%)
 integral evaluation            ...        0 min,  0.596 sec (  2.981%)
 iterations                     ...        0 min,  6.653 sec ( 33.301%)
 molecular gradient             ...        0 min, 12.416 sec ( 62.148%)
 printout                       ...        0 min,  0.065 sec (  0.326%)

         :::::::::::::::::::::::::::::::::::::::::::::::::::::
         ::                     SUMMARY                     ::
         :::::::::::::::::::::::::::::::::::::::::::::::::::::
         :: total energy           -1283.538233843123 Eh    ::
         :: total w/o Gsasa/hb     -1283.305218302483 Eh    ::
         :: gradient norm              0.126638755269 Eh/a0 ::
         :: HOMO-LUMO gap              6.898890806678 eV    ::
         ::.................................................::
         :: SCC energy             -1291.346375236165 Eh    ::
         :: -> isotropic ES            7.343023181540 Eh    ::
         :: -> anisotropic ES         -1.628263650391 Eh    ::
         :: -> anisotropic XC         -0.120666480640 Eh    ::
         :: -> dispersion             -0.797283502968 Eh    ::
         :: -> Gsolv                  -0.263004839355 Eh    ::
         ::    -> Gelec               -0.029989298714 Eh    ::
         ::    -> Gsasa                0.005225052552 Eh    ::
         ::    -> Ghb                 -0.240098036320 Eh    ::
         ::    -> Gshift               0.001857443127 Eh    ::
         :: repulsion energy           7.651030760047 Eh    ::
         :: add. restraining           0.000000000000 Eh    ::
         :: total charge              -0.000000000000 e     ::
         :::::::::::::::::::::::::::::::::::::::::::::::::::::

           -------------------------------------------------
          |                Property Printout                |
           -------------------------------------------------

    * Orbital Energies and Occupations

         #    Occupation            Energy/Eh            Energy/eV
      -------------------------------------------------------------
         1        2.0000           -0.6594281             -17.9440
       ...           ...                  ...                  ...
       996        2.0000           -0.3403652              -9.2618
       997        2.0000           -0.3374989              -9.1838
       998        2.0000           -0.3368355              -9.1658
       999        2.0000           -0.3360653              -9.1448
      1000        2.0000           -0.3358104              -9.1379
      1001        2.0000           -0.3331697              -9.0660
      1002        2.0000           -0.3300469              -8.9810
      1003        2.0000           -0.3296427              -8.9700
      1004        2.0000           -0.3284383              -8.9373
      1005        2.0000           -0.3273143              -8.9067
      1006        2.0000           -0.3266082              -8.8875
      1007        2.0000           -0.3233717              -8.7994
      1008        2.0000           -0.3047396              -8.2924 (HOMO)
      1009                         -0.0512101              -1.3935 (LUMO)
      1010                         -0.0423749              -1.1531
      1011                         -0.0331991              -0.9034
      1012                         -0.0309652              -0.8426
      1013                         -0.0247255              -0.6728
      1014                         -0.0202758              -0.5517
      1015                         -0.0174126              -0.4738
      1016                         -0.0084547              -0.2301
      1017                         -0.0058767              -0.1599
      1018                         -0.0037357              -0.1017
      1019                         -0.0004418              -0.0120
       ...                                ...                  ...
      1512                          0.5026718              13.6784
      -------------------------------------------------------------
                  HL-Gap            0.2535296 Eh            6.8989 eV
             Fermi-level           -0.1779749 Eh           -4.8429 eV

     #   Z          covCN         q      C6AA      α(0)
     1   8 o        1.606    -0.654    26.523     6.951
     2   1 h        0.802     0.357     0.572     1.189
     3   1 h        0.805     0.314     0.682     1.297
     4   8 o        1.609    -0.653    26.481     6.945
     5   1 h        0.804     0.324     0.653     1.269
     6   1 h        0.805     0.335     0.624     1.241
     7   8 o        1.608    -0.671    26.961     7.008
     8   1 h        0.805     0.337     0.619     1.236
     9   1 h        0.803     0.345     0.601     1.217
    10   8 o        1.607    -0.684    27.298     7.052
    11   1 h        0.803     0.348     0.593     1.210
    12   1 h        0.803     0.351     0.585     1.202
    13   8 o        1.607    -0.695    27.575     7.087
    14   1 h        0.804     0.332     0.632     1.249
    15   1 h        0.803     0.340     0.612     1.229
    16   8 o        1.608    -0.665    26.785     6.985
    17   1 h        0.805     0.334     0.627     1.244
    18   1 h        0.803     0.351     0.587     1.203
    19   8 o        1.608    -0.681    27.220     7.042
    20   1 h        0.803     0.354     0.580     1.196
    21   1 h        0.805     0.326     0.648     1.265
    22   8 o        1.608    -0.666    26.810     6.988
    23   1 h        0.805     0.328     0.642     1.259
    24   1 h        0.804     0.329     0.639     1.256
    25   8 o        1.606    -0.689    27.427     7.068
    26   1 h        0.803     0.338     0.618     1.235
    27   1 h        0.804     0.339     0.616     1.233
    28   8 o        1.609    -0.668    26.861     6.995
    29   1 h        0.805     0.318     0.669     1.285
    30   1 h        0.804     0.352     0.584     1.200
    31   8 o        1.608    -0.673    26.995     7.012
    32   1 h        0.805     0.339     0.615     1.232
    33   1 h        0.803     0.356     0.575     1.192
    34   8 o        1.608    -0.682    27.236     7.044
    35   1 h        0.805     0.335     0.626     1.243
    36   1 h        0.803     0.353     0.582     1.198
    37   8 o        1.609    -0.679    27.152     7.033
    38   1 h        0.805     0.330     0.636     1.253
    39   1 h        0.804     0.341     0.611     1.228
    40   8 o        1.607    -0.683    27.260     7.047
    41   1 h        0.803     0.349     0.590     1.206
    42   1 h        0.804     0.346     0.597     1.213
    43   8 o        1.612    -0.688    27.395     7.064
    44   1 h        0.804     0.342     0.608     1.225
    45   1 h        0.804     0.349     0.591     1.207
    46   8 o        1.607    -0.704    27.824     7.119
    47   1 h        0.803     0.347     0.596     1.213
    48   1 h        0.804     0.344     0.603     1.220
    49   8 o        1.608    -0.691    27.470     7.074
    50   1 h        0.804     0.345     0.601     1.218
    51   1 h        0.804     0.341     0.611     1.227
    52   8 o        1.606    -0.687    27.356     7.059
    53   1 h        0.802     0.343     0.605     1.222
    54   1 h        0.804     0.327     0.645     1.262
    55   8 o        1.606    -0.688    27.401     7.065
    56   1 h        0.803     0.341     0.610     1.227
    57   1 h        0.803     0.358     0.570     1.186
    58   8 o        1.608    -0.677    27.096     7.025
    59   1 h        0.805     0.332     0.633     1.250
    60   1 h        0.803     0.332     0.634     1.250
    61   8 o        1.608    -0.682    27.231     7.043
    62   1 h        0.803     0.345     0.600     1.217
    63   1 h        0.805     0.333     0.631     1.247
    64   8 o        1.607    -0.685    27.307     7.053
    65   1 h        0.803     0.363     0.559     1.174
    66   1 h        0.804     0.358     0.571     1.186
    67   8 o        1.609    -0.672    26.980     7.010
    68   1 h        0.805     0.333     0.630     1.247
    69   1 h        0.803     0.344     0.602     1.219
    70   8 o        1.606    -0.691    27.463     7.073
    71   1 h        0.803     0.347     0.595     1.211
    72   1 h        0.803     0.360     0.566     1.181
    73   8 o        1.610    -0.663    26.736     6.979
    74   1 h        0.805     0.340     0.612     1.228
    75   1 h        0.805     0.330     0.636     1.253
    76   8 o        1.609    -0.675    27.061     7.021
    77   1 h        0.805     0.341     0.610     1.227
    78   1 h        0.805     0.325     0.649     1.266
    79   8 o        1.607    -0.683    27.270     7.048
    80   1 h        0.803     0.354     0.580     1.196
    81   1 h        0.803     0.338     0.617     1.234
    82   8 o        1.611    -0.686    27.333     7.056
    83   1 h        0.804     0.345     0.599     1.216
    84   1 h        0.804     0.349     0.590     1.207
    85   8 o        1.608    -0.657    26.583     6.959
    86   1 h        0.804     0.330     0.637     1.254
    87   1 h        0.804     0.341     0.610     1.227
    88   8 o        1.603    -0.709    27.945     7.135
    89   1 h        0.803     0.346     0.598     1.215
    90   1 h        0.803     0.357     0.572     1.188
    91   8 o        1.609    -0.671    26.945     7.006
    92   1 h        0.804     0.337     0.619     1.236
    93   1 h        0.805     0.325     0.650     1.267
    94   8 o        1.609    -0.672    26.988     7.012
    95   1 h        0.804     0.355     0.578     1.194
    96   1 h        0.804     0.344     0.602     1.218
    97   8 o        1.606    -0.698    27.671     7.099
    98   1 h        0.804     0.356     0.574     1.190
    99   1 h        0.803     0.345     0.599     1.216
   100   8 o        1.605    -0.709    27.950     7.135
   101   1 h        0.803     0.344     0.602     1.219
   102   1 h        0.803     0.358     0.571     1.187
   103   8 o        1.608    -0.685    27.303     7.052
   104   1 h        0.804     0.340     0.611     1.228
   105   1 h        0.803     0.349     0.590     1.207
   106   8 o        1.609    -0.667    26.856     6.994
   107   1 h        0.805     0.332     0.632     1.249
   108   1 h        0.804     0.343     0.604     1.221
   109   8 o        1.605    -0.699    27.679     7.100
   110   1 h        0.804     0.346     0.597     1.214
   111   1 h        0.803     0.359     0.567     1.183
   112   8 o        1.607    -0.673    27.010     7.014
   113   1 h        0.802     0.369     0.547     1.162
   114   1 h        0.805     0.336     0.623     1.239
   115   8 o        1.609    -0.679    27.149     7.032
   116   1 h        0.804     0.341     0.609     1.226
   117   1 h        0.805     0.338     0.616     1.233
   118   8 o        1.608    -0.673    27.007     7.014
   119   1 h        0.804     0.313     0.683     1.298
   120   1 h        0.804     0.345     0.601     1.218
   121   8 o        1.608    -0.670    26.924     7.003
   122   1 h        0.804     0.336     0.622     1.239
   123   1 h        0.803     0.353     0.581     1.197
   124   8 o        1.606    -0.694    27.554     7.085
   125   1 h        0.803     0.352     0.583     1.200
   126   1 h        0.803     0.348     0.593     1.210
   127   8 o        1.609    -0.682    27.237     7.044
   128   1 h        0.803     0.361     0.563     1.179
   129   1 h        0.805     0.316     0.676     1.291
   130   8 o        1.608    -0.670    26.935     7.004
   131   1 h        0.804     0.360     0.566     1.182
   132   1 h        0.803     0.330     0.638     1.255
   133   8 o        1.606    -0.691    27.486     7.076
   134   1 h        0.802     0.355     0.578     1.194
   135   1 h        0.803     0.335     0.625     1.242
   136   8 o        1.606    -0.656    26.566     6.956
   137   1 h        0.802     0.343     0.605     1.222
   138   1 h        0.805     0.326     0.648     1.264
   139   8 o        1.607    -0.688    27.387     7.063
   140   1 h        0.805     0.314     0.680     1.296
   141   1 h        0.803     0.360     0.566     1.182
   142   8 o        1.607    -0.676    27.077     7.023
   143   1 h        0.803     0.334     0.628     1.244
   144   1 h        0.804     0.326     0.647     1.264
   145   8 o        1.606    -0.684    27.284     7.050
   146   1 h        0.804     0.321     0.661     1.277
   147   1 h        0.802     0.363     0.558     1.174
   148   8 o        1.608    -0.686    27.353     7.059
   149   1 h        0.804     0.350     0.589     1.206
   150   1 h        0.804     0.347     0.596     1.213
   151   8 o        1.607    -0.687    27.356     7.059
   152   1 h        0.802     0.361     0.562     1.178
   153   1 h        0.803     0.338     0.617     1.234
   154   8 o        1.608    -0.684    27.292     7.051
   155   1 h        0.803     0.334     0.628     1.245
   156   1 h        0.804     0.323     0.655     1.271
   157   8 o        1.610    -0.675    27.051     7.020
   158   1 h        0.805     0.349     0.591     1.208
   159   1 h        0.805     0.334     0.626     1.243
   160   8 o        1.609    -0.670    26.929     7.004
   161   1 h        0.804     0.349     0.590     1.207
   162   1 h        0.805     0.325     0.652     1.268
   163   8 o        1.607    -0.697    27.627     7.094
   164   1 h        0.803     0.352     0.584     1.201
   165   1 h        0.803     0.365     0.555     1.170
   166   8 o        1.609    -0.681    27.202     7.039
   167   1 h        0.804     0.338     0.616     1.233
   168   1 h        0.805     0.345     0.599     1.216
   169   8 o        1.608    -0.682    27.245     7.045
   170   1 h        0.803     0.353     0.581     1.198
   171   1 h        0.804     0.329     0.641     1.257
   172   8 o        1.607    -0.682    27.229     7.043
   173   1 h        0.803     0.364     0.557     1.172
   174   1 h        0.804     0.332     0.633     1.250
   175   8 o        1.607    -0.700    27.719     7.106
   176   1 h        0.803     0.349     0.590     1.207
   177   1 h        0.804     0.344     0.602     1.219
   178   8 o        1.609    -0.691    27.477     7.075
   179   1 h        0.805     0.324     0.654     1.270
   180   1 h        0.804     0.343     0.605     1.222
   181   8 o        1.606    -0.714    28.091     7.153
   182   1 h        0.804     0.348     0.593     1.210
   183   1 h        0.803     0.350     0.587     1.204
   184   8 o        1.608    -0.704    27.816     7.118
   185   1 h        0.804     0.324     0.652     1.268
   186   1 h        0.803     0.352     0.585     1.201
   187   8 o        1.607    -0.708    27.912     7.130
   188   1 h        0.804     0.350     0.589     1.206
   189   1 h        0.805     0.330     0.637     1.253
   190   8 o        1.608    -0.682    27.240     7.044
   191   1 h        0.804     0.354     0.579     1.195
   192   1 h        0.804     0.334     0.626     1.243
   193   8 o        1.610    -0.645    26.301     6.922
   194   1 h        0.806     0.296     0.733     1.345
   195   1 h        0.804     0.350     0.589     1.206
   196   8 o        1.607    -0.687    27.380     7.062
   197   1 h        0.805     0.310     0.692     1.306
   198   1 h        0.802     0.363     0.558     1.174
   199   8 o        1.608    -0.693    27.530     7.081
   200   1 h        0.804     0.337     0.621     1.238
   201   1 h        0.804     0.361     0.563     1.178
   202   8 o        1.609    -0.683    27.267     7.048
   203   1 h        0.804     0.355     0.576     1.192
   204   1 h        0.805     0.331     0.635     1.252
   205   8 o        1.607    -0.659    26.640     6.966
   206   1 h        0.803     0.337     0.621     1.238
   207   1 h        0.804     0.340     0.612     1.229
   208   8 o        1.607    -0.706    27.881     7.126
   209   1 h        0.803     0.350     0.587     1.204
   210   1 h        0.804     0.325     0.650     1.266
   211   8 o        1.607    -0.713    28.072     7.151
   212   1 h        0.804     0.340     0.611     1.228
   213   1 h        0.803     0.351     0.586     1.202
   214   8 o        1.609    -0.674    27.040     7.018
   215   1 h        0.805     0.336     0.622     1.239
   216   1 h        0.804     0.347     0.594     1.211
   217   8 o        1.608    -0.656    26.577     6.958
   218   1 h        0.805     0.344     0.603     1.220
   219   1 h        0.804     0.331     0.635     1.252
   220   8 o        1.609    -0.681    27.214     7.041
   221   1 h        0.805     0.334     0.626     1.243
   222   1 h        0.804     0.355     0.577     1.194
   223   8 o        1.609    -0.661    26.683     6.972
   224   1 h        0.805     0.327     0.645     1.262
   225   1 h        0.804     0.344     0.603     1.220
   226   8 o        1.607    -0.680    27.186     7.037
   227   1 h        0.803     0.353     0.582     1.199
   228   1 h        0.805     0.323     0.655     1.271
   229   8 o        1.608    -0.674    27.019     7.016
   230   1 h        0.805     0.342     0.606     1.223
   231   1 h        0.803     0.334     0.626     1.243
   232   8 o        1.609    -0.677    27.109     7.027
   233   1 h        0.805     0.328     0.642     1.258
   234   1 h        0.803     0.360     0.565     1.180
   235   8 o        1.609    -0.656    26.570     6.957
   236   1 h        0.806     0.307     0.700     1.314
   237   1 h        0.803     0.346     0.598     1.214
   238   8 o        1.607    -0.685    27.326     7.055
   239   1 h        0.805     0.323     0.657     1.273
   240   1 h        0.802     0.366     0.552     1.167
   241   8 o        1.608    -0.676    27.076     7.023
   242   1 h        0.805     0.315     0.679     1.294
   243   1 h        0.803     0.364     0.557     1.173
   244   8 o        1.608    -0.694    27.542     7.083
   245   1 h        0.804     0.322     0.658     1.274
   246   1 h        0.804     0.346     0.598     1.215
   247   8 o        1.608    -0.688    27.406     7.065
   248   1 h        0.804     0.339     0.614     1.230
   249   1 h        0.804     0.350     0.589     1.206
   250   8 o        1.606    -0.679    27.167     7.035
   251   1 h        0.802     0.340     0.612     1.229
   252   1 h        0.805     0.324     0.654     1.270
   253   8 o        1.605    -0.695    27.578     7.088
   254   1 h        0.804     0.325     0.650     1.266
   255   1 h        0.802     0.341     0.611     1.228
   256   8 o        1.607    -0.663    26.735     6.978
   257   1 h        0.802     0.351     0.585     1.202
   258   1 h        0.806     0.309     0.693     1.307
   259   8 o        1.608    -0.686    27.341     7.057
   260   1 h        0.804     0.336     0.622     1.239
   261   1 h        0.804     0.346     0.598     1.214
   262   8 o        1.609    -0.668    26.886     6.998
   263   1 h        0.805     0.336     0.622     1.239
   264   1 h        0.803     0.361     0.563     1.178
   265   8 o        1.605    -0.696    27.597     7.090
   266   1 h        0.805     0.327     0.645     1.261
   267   1 h        0.802     0.373     0.538     1.153
   268   8 o        1.609    -0.648    26.368     6.931
   269   1 h        0.805     0.333     0.629     1.246
   270   1 h        0.804     0.338     0.616     1.233
   271   8 o        1.607    -0.697    27.632     7.095
   272   1 h        0.803     0.361     0.563     1.179
   273   1 h        0.803     0.347     0.596     1.213
   274   8 o        1.607    -0.689    27.413     7.066
   275   1 h        0.805     0.321     0.662     1.278
   276   1 h        0.802     0.355     0.577     1.193
   277   8 o        1.607    -0.679    27.166     7.034
   278   1 h        0.803     0.364     0.556     1.172
   279   1 h        0.803     0.339     0.615     1.232
   280   8 o        1.608    -0.663    26.740     6.979
   281   1 h        0.803     0.347     0.596     1.213
   282   1 h        0.805     0.341     0.610     1.227
   283   8 o        1.607    -0.682    27.241     7.044
   284   1 h        0.803     0.362     0.560     1.176
   285   1 h        0.804     0.324     0.653     1.269
   286   8 o        1.607    -0.689    27.434     7.069
   287   1 h        0.803     0.323     0.656     1.272
   288   1 h        0.803     0.359     0.567     1.183
   289   8 o        1.607    -0.684    27.296     7.051
   290   1 h        0.804     0.330     0.638     1.255
   291   1 h        0.803     0.333     0.631     1.248
   292   8 o        1.609    -0.656    26.579     6.958
   293   1 h        0.805     0.332     0.633     1.249
   294   1 h        0.804     0.329     0.640     1.256
   295   8 o        1.606    -0.700    27.721     7.106
   296   1 h        0.804     0.324     0.652     1.268
   297   1 h        0.803     0.356     0.574     1.190
   298   8 o        1.608    -0.681    27.198     7.039
   299   1 h        0.805     0.352     0.582     1.199
   300   1 h        0.803     0.350     0.589     1.206
   301   8 o        1.609    -0.676    27.088     7.024
   302   1 h        0.804     0.354     0.579     1.195
   303   1 h        0.805     0.309     0.695     1.309
   304   8 o        1.609    -0.654    26.524     6.951
   305   1 h        0.803     0.339     0.615     1.232
   306   1 h        0.806     0.306     0.704     1.318
   307   8 o        1.609    -0.659    26.645     6.967
   308   1 h        0.804     0.340     0.612     1.228
   309   1 h        0.805     0.325     0.651     1.267
   310   8 o        1.604    -0.708    27.933     7.133
   311   1 h        0.803     0.345     0.600     1.217
   312   1 h        0.802     0.344     0.603     1.220
   313   8 o        1.608    -0.669    26.889     6.999
   314   1 h        0.804     0.342     0.607     1.223
   315   1 h        0.804     0.327     0.645     1.261
   316   8 o        1.608    -0.684    27.281     7.049
   317   1 h        0.804     0.338     0.618     1.235
   318   1 h        0.804     0.333     0.631     1.248
   319   8 o        1.608    -0.672    26.988     7.011
   320   1 h        0.804     0.339     0.615     1.232
   321   1 h        0.804     0.339     0.614     1.230
   322   8 o        1.608    -0.678    27.130     7.030
   323   1 h        0.803     0.326     0.648     1.264
   324   1 h        0.803     0.356     0.574     1.190
   325   8 o        1.608    -0.657    26.604     6.961
   326   1 h        0.804     0.333     0.631     1.247
   327   1 h        0.804     0.331     0.635     1.252
   328   8 o        1.607    -0.691    27.472     7.074
   329   1 h        0.803     0.332     0.632     1.249
   330   1 h        0.803     0.368     0.548     1.163
   331   8 o        1.609    -0.683    27.258     7.046
   332   1 h        0.805     0.330     0.638     1.254
   333   1 h        0.804     0.349     0.591     1.208
   334   8 o        1.609    -0.669    26.893     6.999
   335   1 h        0.804     0.327     0.645     1.261
   336   1 h        0.804     0.333     0.630     1.247
   337   8 o        1.606    -0.696    27.614     7.092
   338   1 h        0.804     0.342     0.608     1.225
   339   1 h        0.803     0.351     0.587     1.204
   340   8 o        1.609    -0.689    27.409     7.066
   341   1 h        0.804     0.346     0.597     1.214
   342   1 h        0.804     0.340     0.611     1.228
   343   8 o        1.607    -0.679    27.153     7.033
   344   1 h        0.803     0.354     0.580     1.196
   345   1 h        0.804     0.326     0.648     1.265
   346   8 o        1.607    -0.682    27.226     7.042
   347   1 h        0.803     0.353     0.581     1.198
   348   1 h        0.804     0.319     0.667     1.283
   349   8 o        1.609    -0.663    26.757     6.981
   350   1 h        0.804     0.323     0.655     1.271
   351   1 h        0.804     0.338     0.617     1.233
   352   8 o        1.608    -0.655    26.535     6.952
   353   1 h        0.805     0.315     0.677     1.292
   354   1 h        0.803     0.347     0.595     1.212
   355   8 o        1.608    -0.662    26.729     6.978
   356   1 h        0.804     0.337     0.620     1.236
   357   1 h        0.804     0.333     0.629     1.246
   358   8 o        1.607    -0.652    26.466     6.943
   359   1 h        0.805     0.323     0.656     1.272
   360   1 h        0.803     0.334     0.628     1.245
   361   8 o        1.607    -0.675    27.061     7.021
   362   1 h        0.804     0.334     0.627     1.244
   363   1 h        0.803     0.333     0.630     1.247
   364   8 o        1.607    -0.703    27.800     7.116
   365   1 h        0.803     0.354     0.578     1.195
   366   1 h        0.803     0.354     0.579     1.196
   367   8 o        1.607    -0.689    27.426     7.068
   368   1 h        0.803     0.356     0.574     1.190
   369   1 h        0.804     0.344     0.602     1.218
   370   8 o        1.608    -0.683    27.275     7.049
   371   1 h        0.805     0.329     0.639     1.256
   372   1 h        0.803     0.345     0.601     1.218
   373   8 o        1.605    -0.682    27.239     7.044
   374   1 h        0.806     0.311     0.690     1.305
   375   1 h        0.800     0.365     0.555     1.171
   376   8 o        1.608    -0.662    26.722     6.977
   377   1 h        0.803     0.338     0.618     1.235
   378   1 h        0.804     0.326     0.648     1.265
   379   8 o        1.608    -0.679    27.172     7.035
   380   1 h        0.804     0.361     0.563     1.179
   381   1 h        0.803     0.337     0.621     1.238
   382   8 o        1.607    -0.679    27.159     7.034
   383   1 h        0.804     0.355     0.577     1.193
   384   1 h        0.802     0.337     0.619     1.236
   385   8 o        1.609    -0.683    27.270     7.048
   386   1 h        0.804     0.342     0.608     1.225
   387   1 h        0.805     0.325     0.651     1.268
   388   8 o        1.609    -0.683    27.270     7.048
   389   1 h        0.804     0.363     0.559     1.174
   390   1 h        0.804     0.344     0.602     1.219
   391   8 o        1.607    -0.678    27.134     7.030
   392   1 h        0.804     0.326     0.649     1.265
   393   1 h        0.803     0.339     0.614     1.231
   394   8 o        1.607    -0.658    26.619     6.963
   395   1 h        0.806     0.314     0.680     1.295
   396   1 h        0.802     0.348     0.593     1.209
   397   8 o        1.608    -0.671    26.958     7.008
   398   1 h        0.802     0.372     0.539     1.154
   399   1 h        0.805     0.312     0.686     1.301
   400   8 o        1.607    -0.671    26.942     7.005
   401   1 h        0.805     0.329     0.639     1.255
   402   1 h        0.803     0.349     0.591     1.208
   403   8 o        1.608    -0.683    27.264     7.047
   404   1 h        0.804     0.358     0.571     1.187
   405   1 h        0.804     0.322     0.659     1.275
   406   8 o        1.607    -0.672    26.990     7.012
   407   1 h        0.803     0.354     0.578     1.195
   408   1 h        0.804     0.322     0.658     1.274
   409   8 o        1.609    -0.665    26.787     6.985
   410   1 h        0.805     0.322     0.657     1.273
   411   1 h        0.803     0.346     0.598     1.214
   412   8 o        1.606    -0.706    27.871     7.125
   413   1 h        0.803     0.348     0.594     1.211
   414   1 h        0.804     0.351     0.587     1.203
   415   8 o        1.607    -0.665    26.792     6.986
   416   1 h        0.802     0.333     0.629     1.246
   417   1 h        0.805     0.331     0.634     1.251
   418   8 o        1.606    -0.690    27.450     7.071
   419   1 h        0.802     0.357     0.572     1.188
   420   1 h        0.805     0.325     0.651     1.267
   421   8 o        1.606    -0.693    27.533     7.082
   422   1 h        0.803     0.354     0.578     1.195
   423   1 h        0.802     0.341     0.611     1.228
   424   8 o        1.607    -0.671    26.951     7.007
   425   1 h        0.804     0.321     0.661     1.277
   426   1 h        0.803     0.351     0.586     1.203
   427   8 o        1.607    -0.693    27.518     7.080
   428   1 h        0.803     0.358     0.570     1.186
   429   1 h        0.804     0.325     0.650     1.267
   430   8 o        1.607    -0.691    27.474     7.074
   431   1 h        0.802     0.367     0.551     1.166
   432   1 h        0.805     0.325     0.650     1.266
   433   8 o        1.608    -0.699    27.697     7.103
   434   1 h        0.804     0.333     0.630     1.246
   435   1 h        0.804     0.357     0.572     1.188
   436   8 o        1.607    -0.674    27.037     7.018
   437   1 h        0.805     0.320     0.665     1.281
   438   1 h        0.802     0.375     0.533     1.147
   439   8 o        1.609    -0.668    26.861     6.995
   440   1 h        0.805     0.330     0.636     1.253
   441   1 h        0.804     0.334     0.626     1.243
   442   8 o        1.608    -0.671    26.951     7.007
   443   1 h        0.803     0.352     0.584     1.200
   444   1 h        0.804     0.327     0.644     1.261
   445   8 o        1.609    -0.659    26.647     6.967
   446   1 h        0.804     0.351     0.587     1.203
   447   1 h        0.805     0.328     0.642     1.258
   448   8 o        1.608    -0.677    27.110     7.027
   449   1 h        0.804     0.335     0.626     1.242
   450   1 h        0.804     0.336     0.622     1.239
   451   8 o        1.607    -0.666    26.812     6.988
   452   1 h        0.803     0.327     0.645     1.262
   453   1 h        0.803     0.335     0.624     1.241
   454   8 o        1.606    -0.697    27.632     7.094
   455   1 h        0.805     0.368     0.548     1.163
   456   1 h        0.806     0.333     0.630     1.246
   457   8 o        1.607    -0.685    27.321     7.055
   458   1 h        0.804     0.340     0.613     1.230
   459   1 h        0.804     0.351     0.587     1.204
   460   8 o        1.607    -0.697    27.621     7.093
   461   1 h        0.804     0.339     0.616     1.233
   462   1 h        0.803     0.357     0.573     1.189
   463   8 o        1.609    -0.655    26.545     6.954
   464   1 h        0.805     0.310     0.691     1.306
   465   1 h        0.803     0.345     0.601     1.218
   466   8 o        1.607    -0.687    27.377     7.062
   467   1 h        0.802     0.349     0.591     1.208
   468   1 h        0.804     0.333     0.629     1.246
   469   8 o        1.607    -0.688    27.402     7.065
   470   1 h        0.804     0.324     0.652     1.268
   471   1 h        0.803     0.351     0.585     1.202
   472   8 o        1.610    -0.670    26.919     7.003
   473   1 h        0.804     0.340     0.611     1.228
   474   1 h        0.805     0.340     0.611     1.228
   475   8 o        1.608    -0.659    26.632     6.965
   476   1 h        0.805     0.326     0.648     1.264
   477   1 h        0.803     0.357     0.573     1.189
   478   8 o        1.606    -0.703    27.788     7.115
   479   1 h        0.802     0.371     0.542     1.157
   480   1 h        0.805     0.317     0.671     1.286
   481   8 o        1.609    -0.678    27.128     7.030
   482   1 h        0.804     0.339     0.615     1.232
   483   1 h        0.805     0.335     0.623     1.240
   484   8 o        1.606    -0.663    26.741     6.979
   485   1 h        0.806     0.312     0.685     1.300
   486   1 h        0.801     0.353     0.583     1.199
   487   8 o        1.609    -0.673    27.000     7.013
   488   1 h        0.805     0.321     0.661     1.277
   489   1 h        0.803     0.345     0.600     1.217
   490   8 o        1.609    -0.676    27.067     7.022
   491   1 h        0.804     0.325     0.652     1.268
   492   1 h        0.804     0.354     0.578     1.194
   493   8 o        1.606    -0.688    27.389     7.063
   494   1 h        0.804     0.334     0.626     1.243
   495   1 h        0.802     0.354     0.580     1.197
   496   8 o        1.610    -0.648    26.361     6.930
   497   1 h        0.804     0.341     0.609     1.226
   498   1 h        0.805     0.331     0.635     1.252
   499   8 o        1.606    -0.698    27.663     7.098
   500   1 h        0.804     0.319     0.665     1.281
   501   1 h        0.802     0.360     0.565     1.181
   502   8 o        1.610    -0.660    26.670     6.970
   503   1 h        0.805     0.336     0.623     1.240
   504   1 h        0.805     0.333     0.629     1.246
   505   8 o        1.607    -0.698    27.660     7.098
   506   1 h        0.803     0.339     0.616     1.233
   507   1 h        0.804     0.325     0.650     1.267
   508   8 o        1.607    -0.688    27.406     7.065
   509   1 h        0.803     0.352     0.584     1.200
   510   1 h        0.804     0.342     0.608     1.225
   511   8 o        1.609    -0.682    27.231     7.043
   512   1 h        0.804     0.346     0.597     1.214
   513   1 h        0.805     0.319     0.667     1.283
   514   8 o        1.608    -0.666    26.828     6.991
   515   1 h        0.803     0.364     0.556     1.172
   516   1 h        0.806     0.312     0.685     1.300
   517   8 o        1.608    -0.668    26.872     6.996
   518   1 h        0.805     0.323     0.655     1.271
   519   1 h        0.803     0.351     0.585     1.202
   520   8 o        1.608    -0.667    26.858     6.995
   521   1 h        0.804     0.337     0.620     1.237
   522   1 h        0.803     0.337     0.621     1.238
   523   8 o        1.609    -0.675    27.051     7.020
   524   1 h        0.805     0.337     0.619     1.236
   525   1 h        0.804     0.343     0.604     1.221
   526   8 o        1.610    -0.636    26.073     6.892
   527   1 h        0.805     0.342     0.607     1.224
   528   1 h        0.805     0.321     0.660     1.276
   529   8 o        1.609    -0.664    26.765     6.982
   530   1 h        0.804     0.332     0.631     1.248
   531   1 h        0.805     0.353     0.582     1.198
   532   8 o        1.606    -0.708    27.935     7.133
   533   1 h        0.802     0.356     0.575     1.191
   534   1 h        0.804     0.326     0.647     1.264
   535   8 o        1.609    -0.691    27.461     7.073
   536   1 h        0.804     0.339     0.615     1.232
   537   1 h        0.804     0.327     0.646     1.263
   538   8 o        1.608    -0.682    27.224     7.042
   539   1 h        0.803     0.345     0.600     1.217
   540   1 h        0.805     0.323     0.656     1.272
   541   8 o        1.607    -0.675    27.051     7.020
   542   1 h        0.805     0.323     0.656     1.272
   543   1 h        0.802     0.336     0.623     1.240
   544   8 o        1.608    -0.684    27.281     7.049
   545   1 h        0.804     0.336     0.622     1.239
   546   1 h        0.804     0.339     0.614     1.231
   547   8 o        1.607    -0.694    27.548     7.084
   548   1 h        0.803     0.368     0.549     1.164
   549   1 h        0.804     0.331     0.634     1.251
   550   8 o        1.606    -0.710    27.975     7.138
   551   1 h        0.804     0.329     0.640     1.257
   552   1 h        0.803     0.360     0.566     1.182
   553   8 o        1.609    -0.668    26.872     6.996
   554   1 h        0.804     0.338     0.617     1.234
   555   1 h        0.805     0.331     0.635     1.252
   556   8 o        1.607    -0.688    27.384     7.063
   557   1 h        0.802     0.358     0.571     1.187
   558   1 h        0.804     0.351     0.585     1.201
   559   8 o        1.606    -0.690    27.439     7.070
   560   1 h        0.805     0.317     0.672     1.287
   561   1 h        0.802     0.362     0.562     1.178
   562   8 o        1.609    -0.666    26.833     6.991
   563   1 h        0.805     0.326     0.649     1.265
   564   1 h        0.804     0.369     0.546     1.161
   565   8 o        1.608    -0.663    26.751     6.981
   566   1 h        0.804     0.326     0.647     1.263
   567   1 h        0.804     0.341     0.609     1.226
   568   8 o        1.609    -0.674    27.037     7.018
   569   1 h        0.805     0.320     0.664     1.280
   570   1 h        0.804     0.356     0.575     1.191
   571   8 o        1.609    -0.692    27.496     7.077
   572   1 h        0.804     0.342     0.607     1.224
   573   1 h        0.804     0.346     0.598     1.215
   574   8 o        1.608    -0.691    27.459     7.072
   575   1 h        0.804     0.318     0.671     1.286
   576   1 h        0.804     0.354     0.578     1.195
   577   8 o        1.608    -0.686    27.353     7.059
   578   1 h        0.803     0.356     0.574     1.190
   579   1 h        0.805     0.325     0.649     1.266
   580   8 o        1.613    -0.683    27.271     7.048
   581   1 h        0.803     0.335     0.624     1.241
   582   1 h        0.803     0.352     0.583     1.199
   583   8 o        1.606    -0.697    27.638     7.095
   584   1 h        0.803     0.322     0.658     1.275
   585   1 h        0.803     0.359     0.569     1.185
   586   8 o        1.608    -0.677    27.096     7.025
   587   1 h        0.803     0.348     0.593     1.210
   588   1 h        0.805     0.325     0.650     1.266
   589   8 o        1.608    -0.681    27.223     7.042
   590   1 h        0.805     0.317     0.672     1.288
   591   1 h        0.803     0.367     0.551     1.166
   592   8 o        1.609    -0.672    26.982     7.011
   593   1 h        0.804     0.339     0.613     1.230
   594   1 h        0.805     0.331     0.634     1.251
   595   8 o        1.606    -0.685    27.320     7.054
   596   1 h        0.805     0.324     0.654     1.270
   597   1 h        0.801     0.365     0.556     1.171
   598   8 o        1.608    -0.686    27.347     7.058
   599   1 h        0.804     0.338     0.617     1.233
   600   1 h        0.804     0.329     0.641     1.257
   601   8 o        1.609    -0.661    26.696     6.973
   602   1 h        0.804     0.351     0.585     1.202
   603   1 h        0.805     0.332     0.633     1.250
   604   8 o        1.609    -0.659    26.646     6.967
   605   1 h        0.805     0.318     0.669     1.285
   606   1 h        0.803     0.343     0.605     1.222
   607   8 o        1.605    -0.691    27.475     7.074
   608   1 h        0.803     0.347     0.596     1.212
   609   1 h        0.802     0.332     0.633     1.250
   610   8 o        1.605    -0.707    27.910     7.130
   611   1 h        0.802     0.359     0.569     1.185
   612   1 h        0.803     0.319     0.667     1.283
   613   8 o        1.607    -0.685    27.328     7.055
   614   1 h        0.806     0.307     0.700     1.314
   615   1 h        0.802     0.365     0.555     1.171
   616   8 o        1.608    -0.678    27.136     7.031
   617   1 h        0.804     0.360     0.565     1.181
   618   1 h        0.804     0.322     0.660     1.276
   619   8 o        1.610    -0.677    27.095     7.025
   620   1 h        0.803     0.335     0.625     1.242
   621   1 h        0.805     0.335     0.626     1.242
   622   8 o        1.607    -0.680    27.190     7.038
   623   1 h        0.805     0.315     0.677     1.293
   624   1 h        0.802     0.357     0.572     1.188
   625   8 o        1.607    -0.666    26.819     6.989
   626   1 h        0.802     0.359     0.568     1.184
   627   1 h        0.806     0.313     0.683     1.298
   628   8 o        1.604    -0.715    28.116     7.156
   629   1 h        0.802     0.360     0.566     1.182
   630   1 h        0.803     0.348     0.593     1.210
   631   8 o        1.607    -0.696    27.605     7.091
   632   1 h        0.804     0.326     0.648     1.264
   633   1 h        0.803     0.356     0.574     1.191
   634   8 o        1.601    -0.685    27.317     7.054
   635   1 h        0.806     0.312     0.685     1.300
   636   1 h        0.802     0.355     0.576     1.192
   637   8 o        1.608    -0.673    27.007     7.014
   638   1 h        0.805     0.329     0.639     1.256
   639   1 h        0.803     0.339     0.614     1.231
   640   8 o        1.607    -0.661    26.706     6.975
   641   1 h        0.804     0.346     0.598     1.214
   642   1 h        0.802     0.341     0.610     1.227
   643   8 o        1.606    -0.671    26.945     7.006
   644   1 h        0.806     0.314     0.680     1.295
   645   1 h        0.801     0.356     0.575     1.192
   646   8 o        1.608    -0.682    27.225     7.042
   647   1 h        0.804     0.341     0.610     1.227
   648   1 h        0.804     0.335     0.625     1.242
   649   8 o        1.609    -0.653    26.485     6.946
   650   1 h        0.804     0.333     0.630     1.247
   651   1 h        0.806     0.320     0.663     1.279
   652   8 o        1.602    -0.701    27.732     7.107
   653   1 h        0.802     0.337     0.620     1.237
   654   1 h        0.802     0.342     0.609     1.226
   655   8 o        1.608    -0.667    26.845     6.993
   656   1 h        0.805     0.341     0.611     1.227
   657   1 h        0.803     0.332     0.632     1.249
   658   8 o        1.607    -0.680    27.176     7.036
   659   1 h        0.801     0.359     0.567     1.183
   660   1 h        0.806     0.307     0.701     1.315
   661   8 o        1.609    -0.670    26.935     7.005
   662   1 h        0.805     0.340     0.611     1.228
   663   1 h        0.804     0.353     0.581     1.197
   664   8 o        1.608    -0.672    26.965     7.008
   665   1 h        0.803     0.341     0.610     1.227
   666   1 h        0.805     0.321     0.662     1.278
   667   8 o        1.609    -0.668    26.881     6.997
   668   1 h        0.804     0.318     0.670     1.286
   669   1 h        0.804     0.351     0.585     1.201
   670   8 o        1.608    -0.675    27.049     7.019
   671   1 h        0.806     0.318     0.670     1.285
   672   1 h        0.802     0.367     0.551     1.166
   673   8 o        1.607    -0.679    27.150     7.032
   674   1 h        0.803     0.366     0.553     1.168
   675   1 h        0.803     0.332     0.632     1.249
   676   8 o        1.607    -0.671    26.964     7.008
   677   1 h        0.802     0.354     0.580     1.196
   678   1 h        0.806     0.313     0.684     1.299
   679   8 o        1.608    -0.653    26.502     6.948
   680   1 h        0.806     0.309     0.694     1.308
   681   1 h        0.803     0.348     0.594     1.211
   682   8 o        1.603    -0.702    27.755     7.110
   683   1 h        0.802     0.363     0.560     1.176
   684   1 h        0.803     0.332     0.631     1.248
   685   8 o        1.607    -0.675    27.054     7.020
   686   1 h        0.805     0.332     0.633     1.249
   687   1 h        0.802     0.334     0.627     1.244
   688   8 o        1.610    -0.674    27.034     7.017
   689   1 h        0.805     0.338     0.618     1.234
   690   1 h        0.804     0.344     0.603     1.220
   691   8 o        1.606    -0.679    27.149     7.032
   692   1 h        0.806     0.312     0.685     1.300
   693   1 h        0.801     0.352     0.583     1.199
   694   8 o        1.607    -0.682    27.235     7.043
   695   1 h        0.803     0.334     0.628     1.245
   696   1 h        0.804     0.340     0.611     1.228
   697   8 o        1.607    -0.693    27.523     7.081
   698   1 h        0.803     0.334     0.628     1.245
   699   1 h        0.804     0.329     0.639     1.256
   700   8 o        1.608    -0.686    27.344     7.058
   701   1 h        0.804     0.334     0.628     1.244
   702   1 h        0.804     0.328     0.642     1.258
   703   8 o        1.608    -0.677    27.102     7.026
   704   1 h        0.803     0.349     0.591     1.208
   705   1 h        0.803     0.349     0.590     1.206
   706   8 o        1.607    -0.694    27.556     7.085
   707   1 h        0.804     0.353     0.582     1.199
   708   1 h        0.803     0.320     0.663     1.279
   709   8 o        1.609    -0.649    26.391     6.934
   710   1 h        0.806     0.316     0.675     1.290
   711   1 h        0.804     0.348     0.594     1.210
   712   8 o        1.609    -0.677    27.110     7.027
   713   1 h        0.804     0.366     0.553     1.168
   714   1 h        0.805     0.324     0.652     1.268
   715   8 o        1.608    -0.682    27.245     7.045
   716   1 h        0.804     0.354     0.579     1.196
   717   1 h        0.804     0.338     0.618     1.235
   718   8 o        1.609    -0.684    27.298     7.052
   719   1 h        0.804     0.348     0.593     1.209
   720   1 h        0.805     0.329     0.640     1.256
   721   8 o        1.609    -0.666    26.832     6.991
   722   1 h        0.805     0.325     0.650     1.266
   723   1 h        0.804     0.329     0.639     1.256
   724   8 o        1.609    -0.646    26.314     6.923
   725   1 h        0.804     0.353     0.580     1.197
   726   1 h        0.805     0.313     0.683     1.298
   727   8 o        1.608    -0.679    27.161     7.034
   728   1 h        0.803     0.337     0.620     1.237
   729   1 h        0.805     0.315     0.678     1.293
   730   8 o        1.609    -0.647    26.344     6.927
   731   1 h        0.806     0.314     0.680     1.295
   732   1 h        0.804     0.343     0.605     1.222
   733   8 o        1.608    -0.662    26.717     6.976
   734   1 h        0.805     0.335     0.624     1.240
   735   1 h        0.803     0.333     0.629     1.246
   736   8 o        1.608    -0.671    26.940     7.005
   737   1 h        0.803     0.348     0.592     1.209
   738   1 h        0.805     0.330     0.637     1.253
   739   8 o        1.607    -0.680    27.188     7.037
   740   1 h        0.804     0.333     0.629     1.246
   741   1 h        0.803     0.341     0.609     1.226
   742   8 o        1.608    -0.688    27.398     7.064
   743   1 h        0.804     0.344     0.602     1.219
   744   1 h        0.803     0.333     0.630     1.247
   745   8 o        1.606    -0.688    27.405     7.065
   746   1 h        0.803     0.335     0.625     1.242
   747   1 h        0.803     0.342     0.608     1.225
   748   8 o        1.608    -0.681    27.222     7.042
   749   1 h        0.804     0.352     0.584     1.200
   750   1 h        0.805     0.354     0.580     1.196
   751   8 o        1.610    -0.644    26.263     6.917
   752   1 h        0.804     0.336     0.622     1.239
   753   1 h        0.806     0.319     0.666     1.282
   754   8 o        1.611    -0.655    26.548     6.954
   755   1 h        0.805     0.317     0.672     1.287
   756   1 h        0.805     0.328     0.642     1.258

 Mol. C6AA /au·bohr⁶  :    2898928.528293
 Mol. C8AA /au·bohr⁸  :   52593938.768908
 Mol. α(0) /au        :       2392.965978


Wiberg/Mayer (AO) data.
largest (>0.10) Wiberg bond orders for each atom

 ---------------------------------------------------------------------------
     #   Z sym  total        # sym  WBO       # sym  WBO       # sym  WBO
 ---------------------------------------------------------------------------
     1   8 o    1.869 --     3 h    0.890     2 h    0.786
     2   1 h    0.873 --     1 o    0.786
     3   1 h    0.902 --     1 o    0.890
     4   8 o    1.860 --     6 h    0.853     5 h    0.842
     5   1 h    0.895 --     4 o    0.842
     6   1 h    0.888 --     4 o    0.853
     7   8 o    1.850 --     8 h    0.854     9 h    0.819
     8   1 h    0.886 --     7 o    0.854
     9   1 h    0.881 --     7 o    0.819
    10   8 o    1.884 --    11 h    0.815    12 h    0.809
    11   1 h    0.879 --    10 o    0.815
    12   1 h    0.876 --    10 o    0.809
    13   8 o    1.823 --    14 h    0.837    15 h    0.819
    14   1 h    0.890 --    13 o    0.837
    15   1 h    0.884 --    13 o    0.819
    16   8 o    1.860 --    17 h    0.868    18 h    0.814
    17   1 h    0.888 --    16 o    0.868
    18   1 h    0.877 --    16 o    0.814
    19   8 o    1.856 --    21 h    0.851    20 h    0.798
    20   1 h    0.875 --    19 o    0.798
    21   1 h    0.894 --    19 o    0.851
    22   8 o    1.841 --    23 h    0.852    24 h    0.821
    23   1 h    0.892 --    22 o    0.852
    24   1 h    0.891 --    22 o    0.821
    25   8 o    1.839 --    27 h    0.824    26 h    0.815
    26   1 h    0.886 --    25 o    0.815
    27   1 h    0.885 --    25 o    0.824
    28   8 o    1.851 --    29 h    0.858    30 h    0.813
    29   1 h    0.899 --    28 o    0.858
    30   1 h    0.876 --    28 o    0.813
    31   8 o    1.870 --    32 h    0.856    33 h    0.801
    32   1 h    0.885 --    31 o    0.856
    33   1 h    0.873 --    31 o    0.801
    34   8 o    1.850 --    35 h    0.851    36 h    0.799
    35   1 h    0.888 --    34 o    0.851
    36   1 h    0.875 --    34 o    0.799
    37   8 o    1.810 --    38 h    0.844    39 h    0.832
    38   1 h    0.891 --    37 o    0.844
    39   1 h    0.884 --    37 o    0.832
    40   8 o    1.870 --    42 h    0.830    41 h    0.811
    41   1 h    0.878 --    40 o    0.811
    42   1 h    0.880 --    40 o    0.830
    43   8 o    1.850 --    45 h    0.823    44 h    0.819   455 h    0.101
    44   1 h    0.883 --    43 o    0.819
    45   1 h    0.878 --    43 o    0.823
    46   8 o    1.828 --    47 h    0.814    48 h    0.810
    47   1 h    0.880 --    46 o    0.814
    48   1 h    0.882 --    46 o    0.810
    49   8 o    1.843 --    51 h    0.829    50 h    0.806
    50   1 h    0.881 --    49 o    0.806
    51   1 h    0.884 --    49 o    0.829
    52   8 o    1.830 --    54 h    0.856    53 h    0.800
    53   1 h    0.882 --    52 o    0.800
    54   1 h    0.893 --    52 o    0.856
    55   8 o    1.876 --    56 h    0.818    57 h    0.802
    56   1 h    0.884 --    55 o    0.818
    57   1 h    0.872 --    55 o    0.802
    58   8 o    1.841 --    59 h    0.843    60 h    0.812
    59   1 h    0.890 --    58 o    0.843
    60   1 h    0.890 --    58 o    0.812
    61   8 o    1.840 --    63 h    0.851    62 h    0.814
    62   1 h    0.881 --    61 o    0.814
    63   1 h    0.889 --    61 o    0.851
    64   8 o    1.891 --    66 h    0.833    65 h    0.790
    65   1 h    0.868 --    64 o    0.790
    66   1 h    0.872 --    64 o    0.833
    67   8 o    1.850 --    68 h    0.848    69 h    0.819
    68   1 h    0.889 --    67 o    0.848
    69   1 h    0.881 --    67 o    0.819
    70   8 o    1.857 --    71 h    0.825    72 h    0.795
    71   1 h    0.879 --    70 o    0.825
    72   1 h    0.870 --    70 o    0.795
    73   8 o    1.827 --    75 h    0.873    74 h    0.845
    74   1 h    0.884 --    73 o    0.845
    75   1 h    0.891 --    73 o    0.873
    76   8 o    1.821 --    78 h    0.845    77 h    0.842
    77   1 h    0.884 --    76 o    0.842
    78   1 h    0.894 --    76 o    0.845
    79   8 o    1.881 --    81 h    0.820    80 h    0.811
    80   1 h    0.875 --    79 o    0.811
    81   1 h    0.886 --    79 o    0.820
    82   8 o    1.857 --    84 h    0.827    83 h    0.817
    83   1 h    0.881 --    82 o    0.817
    84   1 h    0.878 --    82 o    0.827
    85   8 o    1.872 --    86 h    0.852    87 h    0.831
    86   1 h    0.891 --    85 o    0.852
    87   1 h    0.884 --    85 o    0.831
    88   8 o    1.875 --    89 h    0.792    90 h    0.779
    89   1 h    0.880 --    88 o    0.792
    90   1 h    0.872 --    88 o    0.779
    91   8 o    1.808 --    93 h    0.871    92 h    0.838
    92   1 h    0.886 --    91 o    0.838
    93   1 h    0.894 --    91 o    0.871
    94   8 o    1.864 --    96 h    0.836    95 h    0.823
    95   1 h    0.874 --    94 o    0.823
    96   1 h    0.881 --    94 o    0.836
    97   8 o    1.857 --    98 h    0.804    99 h    0.802
    98   1 h    0.873 --    97 o    0.804
    99   1 h    0.881 --    97 o    0.802
   100   8 o    1.843 --   101 h    0.810   102 h    0.788
   101   1 h    0.881 --   100 o    0.810
   102   1 h    0.872 --   100 o    0.788
   103   8 o    1.852 --   104 h    0.830   105 h    0.816
   104   1 h    0.884 --   103 o    0.830
   105   1 h    0.878 --   103 o    0.816
   106   8 o    1.842 --   107 h    0.850   108 h    0.832
   107   1 h    0.890 --   106 o    0.850
   108   1 h    0.882 --   106 o    0.832
   109   8 o    1.861 --   110 h    0.826   111 h    0.777
   110   1 h    0.880 --   109 o    0.826
   111   1 h    0.871 --   109 o    0.777
   112   8 o    1.894 --   114 h    0.854   113 h    0.779
   113   1 h    0.864 --   112 o    0.779
   114   1 h    0.887 --   112 o    0.854
   115   8 o    1.837 --   117 h    0.853   116 h    0.835
   116   1 h    0.883 --   115 o    0.835
   117   1 h    0.885 --   115 o    0.853
   118   8 o    1.829 --   119 h    0.845   120 h    0.834
   119   1 h    0.902 --   118 o    0.845
   120   1 h    0.881 --   118 o    0.834
   121   8 o    1.895 --   122 h    0.829   123 h    0.802
   122   1 h    0.887 --   121 o    0.829
   123   1 h    0.875 --   121 o    0.802
   124   8 o    1.867 --   125 h    0.811   126 h    0.804
   125   1 h    0.876 --   124 o    0.811
   126   1 h    0.879 --   124 o    0.804
   127   8 o    1.815 --   129 h    0.873   128 h    0.807
   128   1 h    0.870 --   127 o    0.807
   129   1 h    0.900 --   127 o    0.873
   130   8 o    1.885 --   132 h    0.828   131 h    0.823
   131   1 h    0.871 --   130 o    0.823
   132   1 h    0.891 --   130 o    0.828
   133   8 o    1.861 --   135 h    0.816   134 h    0.795
   134   1 h    0.874 --   133 o    0.795
   135   1 h    0.888 --   133 o    0.816
   136   8 o    1.888 --   138 h    0.869   137 h    0.794
   137   1 h    0.882 --   136 o    0.794
   138   1 h    0.894 --   136 o    0.869
   139   8 o    1.817 --   140 h    0.861   141 h    0.790
   140   1 h    0.901 --   139 o    0.861
   141   1 h    0.870 --   139 o    0.790
   142   8 o    1.840 --   144 h    0.839   143 h    0.817
   143   1 h    0.888 --   142 o    0.817
   144   1 h    0.893 --   142 o    0.839
   145   8 o    1.852 --   146 h    0.861   147 h    0.789
   146   1 h    0.897 --   145 o    0.861
   147   1 h    0.868 --   145 o    0.789
   148   8 o    1.851 --   150 h    0.832   149 h    0.810
   149   1 h    0.878 --   148 o    0.810
   150   1 h    0.880 --   148 o    0.832
   151   8 o    1.897 --   153 h    0.826   152 h    0.778
   152   1 h    0.869 --   151 o    0.778
   153   1 h    0.886 --   151 o    0.826
   154   8 o    1.808 --   156 h    0.857   155 h    0.829
   155   1 h    0.889 --   154 o    0.829
   156   1 h    0.895 --   154 o    0.857
   157   8 o    1.841 --   159 h    0.833   158 h    0.833
   158   1 h    0.878 --   157 o    0.833
   159   1 h    0.888 --   157 o    0.833
   160   8 o    1.828 --   162 h    0.866   161 h    0.830
   161   1 h    0.878 --   160 o    0.830
   162   1 h    0.895 --   160 o    0.866
   163   8 o    1.883 --   164 h    0.808   165 h    0.782
   164   1 h    0.876 --   163 o    0.808
   165   1 h    0.867 --   163 o    0.782
   166   8 o    1.838 --   168 h    0.840   167 h    0.828
   167   1 h    0.885 --   166 o    0.828
   168   1 h    0.881 --   166 o    0.840
   169   8 o    1.859 --   171 h    0.831   170 h    0.800
   170   1 h    0.875 --   169 o    0.800
   171   1 h    0.892 --   169 o    0.831
   172   8 o    1.870 --   174 h    0.849   173 h    0.794
   173   1 h    0.868 --   172 o    0.794
   174   1 h    0.890 --   172 o    0.849
   175   8 o    1.832 --   177 h    0.815   176 h    0.811
   176   1 h    0.878 --   175 o    0.811
   177   1 h    0.881 --   175 o    0.815
   178   8 o    1.785 --   179 h    0.870   180 h    0.826
   179   1 h    0.895 --   178 o    0.870
   180   1 h    0.882 --   178 o    0.826
   181   8 o    1.827 --   182 h    0.816   183 h    0.782
   182   1 h    0.879 --   181 o    0.816
   183   1 h    0.877 --   181 o    0.782
   184   8 o    1.800 --   185 h    0.845   186 h    0.811
   185   1 h    0.895 --   184 o    0.845
   186   1 h    0.876 --   184 o    0.811
   187   8 o    1.804 --   189 h    0.862   188 h    0.783
   188   1 h    0.878 --   187 o    0.783
   189   1 h    0.891 --   187 o    0.862
   190   8 o    1.866 --   192 h    0.841   191 h    0.797
   191   1 h    0.875 --   190 o    0.797
   192   1 h    0.888 --   190 o    0.841
   193   8 o    1.839 --   194 h    0.897   195 h    0.814
   194   1 h    0.912 --   193 o    0.897
   195   1 h    0.878 --   193 o    0.814
   196   8 o    1.805 --   197 h    0.884   198 h    0.786
   197   1 h    0.904 --   196 o    0.884
   198   1 h    0.868 --   196 o    0.786
   199   8 o    1.835 --   200 h    0.840   201 h    0.801
   200   1 h    0.887 --   199 o    0.840
   201   1 h    0.869 --   199 o    0.801
   202   8 o    1.841 --   204 h    0.849   203 h    0.814
   203   1 h    0.874 --   202 o    0.814
   204   1 h    0.890 --   202 o    0.849
   205   8 o    1.893 --   207 h    0.833   206 h    0.815
   206   1 h    0.887 --   205 o    0.815
   207   1 h    0.884 --   205 o    0.833
   208   8 o    1.807 --   210 h    0.830   209 h    0.808
   209   1 h    0.877 --   208 o    0.808
   210   1 h    0.894 --   208 o    0.830
   211   8 o    1.824 --   212 h    0.822   213 h    0.808
   212   1 h    0.884 --   211 o    0.822
   213   1 h    0.877 --   211 o    0.808
   214   8 o    1.841 --   215 h    0.851   216 h    0.828
   215   1 h    0.887 --   214 o    0.851
   216   1 h    0.879 --   214 o    0.828
   217   8 o    1.875 --   218 h    0.849   219 h    0.836
   218   1 h    0.882 --   217 o    0.849
   219   1 h    0.890 --   217 o    0.836
   220   8 o    1.848 --   221 h    0.845   222 h    0.806
   221   1 h    0.888 --   220 o    0.845
   222   1 h    0.874 --   220 o    0.806
   223   8 o    1.840 --   224 h    0.875   225 h    0.832
   224   1 h    0.893 --   223 o    0.875
   225   1 h    0.882 --   223 o    0.832
   226   8 o    1.837 --   228 h    0.870   227 h    0.798
   227   1 h    0.876 --   226 o    0.798
   228   1 h    0.895 --   226 o    0.870
   229   8 o    1.843 --   230 h    0.852   231 h    0.820
   230   1 h    0.883 --   229 o    0.852
   231   1 h    0.888 --   229 o    0.820
   232   8 o    1.842 --   233 h    0.869   234 h    0.812
   233   1 h    0.892 --   232 o    0.869
   234   1 h    0.870 --   232 o    0.812
   235   8 o    1.838 --   236 h    0.878   237 h    0.812
   236   1 h    0.906 --   235 o    0.878
   237   1 h    0.880 --   235 o    0.812
   238   8 o    1.843 --   239 h    0.867   240 h    0.780
   239   1 h    0.896 --   238 o    0.867
   240   1 h    0.866 --   238 o    0.780
   241   8 o    1.837 --   242 h    0.881   243 h    0.796
   242   1 h    0.901 --   241 o    0.881
   243   1 h    0.868 --   241 o    0.796
   244   8 o    1.794 --   245 h    0.850   246 h    0.822
   245   1 h    0.896 --   244 o    0.850
   246   1 h    0.880 --   244 o    0.822
   247   8 o    1.849 --   248 h    0.829   249 h    0.810
   248   1 h    0.885 --   247 o    0.829
   249   1 h    0.878 --   247 o    0.810
   250   8 o    1.828 --   252 h    0.875   251 h    0.794
   251   1 h    0.884 --   250 o    0.794
   252   1 h    0.895 --   250 o    0.875
   253   8 o    1.831 --   254 h    0.838   255 h    0.794
   254   1 h    0.894 --   253 o    0.838
   255   1 h    0.884 --   253 o    0.794
   256   8 o    1.842 --   258 h    0.899   257 h    0.786
   257   1 h    0.876 --   256 o    0.786
   258   1 h    0.904 --   256 o    0.899
   259   8 o    1.818 --   260 h    0.843   261 h    0.828
   260   1 h    0.887 --   259 o    0.843
   261   1 h    0.880 --   259 o    0.828
   262   8 o    1.864 --   263 h    0.859   264 h    0.811
   263   1 h    0.887 --   262 o    0.859
   264   1 h    0.869 --   262 o    0.811
   265   8 o    1.855 --   266 h    0.855   267 h    0.759
   266   1 h    0.893 --   265 o    0.855
   267   1 h    0.861 --   265 o    0.759
   268   8 o    1.871 --   269 h    0.868   270 h    0.836
   269   1 h    0.889 --   268 o    0.868
   270   1 h    0.885 --   268 o    0.836
   271   8 o    1.866 --   273 h    0.813   272 h    0.786
   272   1 h    0.870 --   271 o    0.786
   273   1 h    0.880 --   271 o    0.813
   274   8 o    1.821 --   275 h    0.878   276 h    0.787
   275   1 h    0.897 --   274 o    0.878
   276   1 h    0.874 --   274 o    0.787
   277   8 o    1.901 --   279 h    0.818   278 h    0.797
   278   1 h    0.867 --   277 o    0.797
   279   1 h    0.885 --   277 o    0.818
   280   8 o    1.882 --   282 h    0.847   281 h    0.815
   281   1 h    0.880 --   280 o    0.815
   282   1 h    0.884 --   280 o    0.847
   283   8 o    1.849 --   285 h    0.850   284 h    0.803
   284   1 h    0.869 --   283 o    0.803
   285   1 h    0.895 --   283 o    0.850
   286   8 o    1.846 --   287 h    0.832   288 h    0.808
   287   1 h    0.896 --   286 o    0.832
   288   1 h    0.871 --   286 o    0.808
   289   8 o    1.823 --   290 h    0.853   291 h    0.812
   290   1 h    0.891 --   289 o    0.853
   291   1 h    0.889 --   289 o    0.812
   292   8 o    1.843 --   293 h    0.856   294 h    0.846
   293   1 h    0.890 --   292 o    0.856
   294   1 h    0.892 --   292 o    0.846
   295   8 o    1.830 --   296 h    0.841   297 h    0.792
   296   1 h    0.895 --   295 o    0.841
   297   1 h    0.873 --   295 o    0.792
   298   8 o    1.870 --   299 h    0.841   300 h    0.805
   299   1 h    0.876 --   298 o    0.841
   300   1 h    0.878 --   298 o    0.805
   301   8 o    1.820 --   303 h    0.862   302 h    0.822
   302   1 h    0.875 --   301 o    0.822
   303   1 h    0.904 --   301 o    0.862
   304   8 o    1.821 --   306 h    0.886   305 h    0.824
   305   1 h    0.885 --   304 o    0.824
   306   1 h    0.906 --   304 o    0.886
   307   8 o    1.840 --   309 h    0.866   308 h    0.836
   308   1 h    0.884 --   307 o    0.836
   309   1 h    0.894 --   307 o    0.866
   310   8 o    1.849 --   312 h    0.801   311 h    0.794
   311   1 h    0.881 --   310 o    0.794
   312   1 h    0.882 --   310 o    0.801
   313   8 o    1.858 --   315 h    0.835   314 h    0.828
   314   1 h    0.883 --   313 o    0.828
   315   1 h    0.893 --   313 o    0.835
   316   8 o    1.810 --   318 h    0.847   317 h    0.829
   317   1 h    0.886 --   316 o    0.829
   318   1 h    0.889 --   316 o    0.847
   319   8 o    1.843 --   320 h    0.839   321 h    0.838
   320   1 h    0.885 --   319 o    0.839
   321   1 h    0.885 --   319 o    0.838
   322   8 o    1.878 --   323 h    0.828   324 h    0.797
   323   1 h    0.894 --   322 o    0.828
   324   1 h    0.873 --   322 o    0.797
   325   8 o    1.864 --   327 h    0.855   326 h    0.829
   326   1 h    0.889 --   325 o    0.829
   327   1 h    0.890 --   325 o    0.855
   328   8 o    1.865 --   329 h    0.829   330 h    0.794
   329   1 h    0.890 --   328 o    0.829
   330   1 h    0.865 --   328 o    0.794
   331   8 o    1.818 --   332 h    0.867   333 h    0.832
   332   1 h    0.891 --   331 o    0.867
   333   1 h    0.878 --   331 o    0.832
   334   8 o    1.850 --   336 h    0.837   335 h    0.830
   335   1 h    0.893 --   334 o    0.830
   336   1 h    0.889 --   334 o    0.837
   337   8 o    1.861 --   338 h    0.818   339 h    0.792
   338   1 h    0.883 --   337 o    0.818
   339   1 h    0.877 --   337 o    0.792
   340   8 o    1.826 --   341 h    0.843   342 h    0.843
   341   1 h    0.880 --   340 o    0.843
   342   1 h    0.884 --   340 o    0.843
   343   8 o    1.865 --   345 h    0.843   344 h    0.793
   344   1 h    0.875 --   343 o    0.793
   345   1 h    0.894 --   343 o    0.843
   346   8 o    1.849 --   348 h    0.845   347 h    0.801
   347   1 h    0.875 --   346 o    0.801
   348   1 h    0.898 --   346 o    0.845
   349   8 o    1.850 --   350 h    0.843   351 h    0.839
   350   1 h    0.895 --   349 o    0.843
   351   1 h    0.886 --   349 o    0.839
   352   8 o    1.852 --   353 h    0.887   354 h    0.801
   353   1 h    0.901 --   352 o    0.887
   354   1 h    0.879 --   352 o    0.801
   355   8 o    1.862 --   357 h    0.850   356 h    0.825
   356   1 h    0.886 --   355 o    0.825
   357   1 h    0.889 --   355 o    0.850
   358   8 o    1.874 --   359 h    0.873   360 h    0.808
   359   1 h    0.896 --   358 o    0.873
   360   1 h    0.888 --   358 o    0.808
   361   8 o    1.851 --   362 h    0.837   363 h    0.814
   362   1 h    0.888 --   361 o    0.837
   363   1 h    0.889 --   361 o    0.814
   364   8 o    1.852 --   365 h    0.805   366 h    0.803
[...]
   370   8 o    1.821 --   371 h    0.868   372 h    0.823
   371   1 h    0.891 --   370 o    0.868
   372   1 h    0.881 --   370 o    0.823
   373   8 o    1.830 --   374 h    0.894   375 h    0.767
   374   1 h    0.903 --   373 o    0.894
   375   1 h    0.867 --   373 o    0.767
   376   8 o    1.869 --   378 h    0.840   377 h    0.825
   377   1 h    0.886 --   376 o    0.825
   378   1 h    0.894 --   376 o    0.840
   379   8 o    1.863 --   381 h    0.824   380 h    0.818
   380   1 h    0.870 --   379 o    0.818
   381   1 h    0.887 --   379 o    0.824
   382   8 o    1.884 --   384 h    0.817   383 h    0.807
   383   1 h    0.874 --   382 o    0.807
   384   1 h    0.886 --   382 o    0.817
   385   8 o    1.808 --   387 h    0.870   386 h    0.823
   386   1 h    0.883 --   385 o    0.823
   387   1 h    0.895 --   385 o    0.870
   388   8 o    1.873 --   390 h    0.830   389 h    0.798
   389   1 h    0.868 --   388 o    0.798
   390   1 h    0.882 --   388 o    0.830
   391   8 o    1.842 --   392 h    0.846   393 h    0.811
   392   1 h    0.894 --   391 o    0.846
   393   1 h    0.885 --   391 o    0.811
   394   8 o    1.864 --   395 h    0.898   396 h    0.791
   395   1 h    0.901 --   394 o    0.898
   396   1 h    0.879 --   394 o    0.791
   397   8 o    1.846 --   399 h    0.884   398 h    0.787
   398   1 h    0.861 --   397 o    0.787
   399   1 h    0.903 --   397 o    0.884
   400   8 o    1.846 --   401 h    0.873   402 h    0.810
   401   1 h    0.891 --   400 o    0.873
   402   1 h    0.878 --   400 o    0.810
   403   8 o    1.840 --   405 h    0.841   404 h    0.807
   404   1 h    0.872 --   403 o    0.807
   405   1 h    0.896 --   403 o    0.841
   406   8 o    1.864 --   408 h    0.847   407 h    0.812
   407   1 h    0.874 --   406 o    0.812
   408   1 h    0.896 --   406 o    0.847
   409   8 o    1.852 --   410 h    0.862   411 h    0.820
   410   1 h    0.896 --   409 o    0.862
   411   1 h    0.880 --   409 o    0.820
   412   8 o    1.850 --   414 h    0.800   413 h    0.797
   413   1 h    0.879 --   412 o    0.797
   414   1 h    0.877 --   412 o    0.800
   415   8 o    1.859 --   417 h    0.859   416 h    0.816
   416   1 h    0.889 --   415 o    0.816
   417   1 h    0.890 --   415 o    0.859
   418   8 o    1.844 --   420 h    0.858   419 h    0.788
   419   1 h    0.872 --   418 o    0.788
   420   1 h    0.894 --   418 o    0.858
   421   8 o    1.885 --   423 h    0.808   422 h    0.789
   422   1 h    0.874 --   421 o    0.789
   423   1 h    0.884 --   421 o    0.808
   424   8 o    1.874 --   425 h    0.844   426 h    0.796
   425   1 h    0.897 --   424 o    0.844
   426   1 h    0.877 --   424 o    0.796
   427   8 o    1.830 --   429 h    0.846   428 h    0.803
   428   1 h    0.872 --   427 o    0.803
   429   1 h    0.894 --   427 o    0.846
   430   8 o    1.835 --   432 h    0.863   431 h    0.790
   431   1 h    0.865 --   430 o    0.790
   432   1 h    0.894 --   430 o    0.863
   433   8 o    1.825 --   434 h    0.840   435 h    0.816
   434   1 h    0.889 --   433 o    0.840
   435   1 h    0.872 --   433 o    0.816
   436   8 o    1.862 --   437 h    0.885   438 h    0.782
   437   1 h    0.898 --   436 o    0.885
   438   1 h    0.859 --   436 o    0.782
   439   8 o    1.810 --   440 h    0.857   441 h    0.855
   440   1 h    0.891 --   439 o    0.857
   441   1 h    0.888 --   439 o    0.855
   442   8 o    1.864 --   444 h    0.844   443 h    0.810
   443   1 h    0.876 --   442 o    0.810
   444   1 h    0.893 --   442 o    0.844
   445   8 o    1.857 --   447 h    0.874   446 h    0.825
   446   1 h    0.877 --   445 o    0.825
   447   1 h    0.892 --   445 o    0.874
   448   8 o    1.821 --   449 h    0.841   450 h    0.841
   449   1 h    0.888 --   448 o    0.841
   450   1 h    0.887 --   448 o    0.841
   451   8 o    1.882 --   452 h    0.827   453 h    0.820
   452   1 h    0.893 --   451 o    0.827
   453   1 h    0.887 --   451 o    0.820
   454   8 o    1.851 --   456 h    0.857   455 h    0.750
   455   1 h    0.864 --   454 o    0.750    43 o    0.101
   456   1 h    0.889 --   454 o    0.857
   457   8 o    1.860 --   458 h    0.822   459 h    0.806
   458   1 h    0.884 --   457 o    0.822
   459   1 h    0.877 --   457 o    0.806
   460   8 o    1.842 --   461 h    0.827   462 h    0.800
   461   1 h    0.885 --   460 o    0.827
   462   1 h    0.873 --   460 o    0.800
   463   8 o    1.817 --   464 h    0.894   465 h    0.833
   464   1 h    0.904 --   463 o    0.894
   465   1 h    0.881 --   463 o    0.833
   466   8 o    1.838 --   468 h    0.848   467 h    0.803
   467   1 h    0.878 --   466 o    0.803
   468   1 h    0.889 --   466 o    0.848
   469   8 o    1.826 --   470 h    0.847   471 h    0.809
   470   1 h    0.895 --   469 o    0.847
   471   1 h    0.876 --   469 o    0.809
   472   8 o    1.849 --   474 h    0.851   473 h    0.836
   473   1 h    0.884 --   472 o    0.836
   474   1 h    0.884 --   472 o    0.851
   475   8 o    1.887 --   476 h    0.869   477 h    0.789
   476   1 h    0.894 --   475 o    0.869
   477   1 h    0.873 --   475 o    0.789
   478   8 o    1.822 --   480 h    0.873   479 h    0.767
   479   1 h    0.862 --   478 o    0.767
   480   1 h    0.899 --   478 o    0.873
   481   8 o    1.821 --   483 h    0.855   482 h    0.837
   482   1 h    0.885 --   481 o    0.837
   483   1 h    0.887 --   481 o    0.855
   484   8 o    1.850 --   485 h    0.899   486 h    0.786
   485   1 h    0.902 --   484 o    0.899
   486   1 h    0.876 --   484 o    0.786
   487   8 o    1.812 --   488 h    0.884   489 h    0.823
   488   1 h    0.897 --   487 o    0.884
   489   1 h    0.881 --   487 o    0.823
   490   8 o    1.850 --   491 h    0.839   492 h    0.817
   491   1 h    0.895 --   490 o    0.839
   492   1 h    0.874 --   490 o    0.817
   493   8 o    1.838 --   494 h    0.852   495 h    0.796
   494   1 h    0.888 --   493 o    0.852
   495   1 h    0.875 --   493 o    0.796
   496   8 o    1.847 --   498 h    0.883   497 h    0.852
   497   1 h    0.884 --   496 o    0.852
   498   1 h    0.890 --   496 o    0.883
   499   8 o    1.829 --   500 h    0.860   501 h    0.781
   500   1 h    0.898 --   499 o    0.860
   501   1 h    0.870 --   499 o    0.781
   502   8 o    1.828 --   504 h    0.864   503 h    0.850
   503   1 h    0.887 --   502 o    0.850
   504   1 h    0.889 --   502 o    0.864
   505   8 o    1.790 --   507 h    0.844   506 h    0.821
   506   1 h    0.885 --   505 o    0.821
   507   1 h    0.894 --   505 o    0.844
   508   8 o    1.860 --   510 h    0.841   509 h    0.794
   509   1 h    0.876 --   508 o    0.794
   510   1 h    0.883 --   508 o    0.841
   511   8 o    1.808 --   513 h    0.881   512 h    0.821
   512   1 h    0.880 --   511 o    0.821
   513   1 h    0.898 --   511 o    0.881
   514   8 o    1.840 --   516 h    0.888   515 h    0.802
   515   1 h    0.867 --   514 o    0.802
   516   1 h    0.902 --   514 o    0.888
   517   8 o    1.842 --   518 h    0.877   519 h    0.809
   518   1 h    0.896 --   517 o    0.877
   519   1 h    0.877 --   517 o    0.809
   520   8 o    1.857 --   521 h    0.840   522 h    0.834
   521   1 h    0.886 --   520 o    0.840
   522   1 h    0.887 --   520 o    0.834
   523   8 o    1.835 --   524 h    0.852   525 h    0.845
   524   1 h    0.886 --   523 o    0.852
   525   1 h    0.882 --   523 o    0.845
   526   8 o    1.862 --   528 h    0.883   527 h    0.850
   527   1 h    0.883 --   526 o    0.850
   528   1 h    0.897 --   526 o    0.883
   529   8 o    1.853 --   530 h    0.850   531 h    0.843
   530   1 h    0.889 --   529 o    0.850
   531   1 h    0.875 --   529 o    0.843
   532   8 o    1.820 --   534 h    0.835   533 h    0.790
   533   1 h    0.873 --   532 o    0.790
   534   1 h    0.893 --   532 o    0.835
   535   8 o    1.791 --   537 h    0.852   536 h    0.843
   536   1 h    0.885 --   535 o    0.843
   537   1 h    0.893 --   535 o    0.852
   538   8 o    1.807 --   540 h    0.873   539 h    0.821
   539   1 h    0.881 --   538 o    0.821
   540   1 h    0.896 --   538 o    0.873
   541   8 o    1.825 --   542 h    0.860   543 h    0.818
   542   1 h    0.896 --   541 o    0.860
   543   1 h    0.887 --   541 o    0.818
   544   8 o    1.810 --   545 h    0.852   546 h    0.827
   545   1 h    0.887 --   544 o    0.852
   546   1 h    0.885 --   544 o    0.827
   547   8 o    1.852 --   549 h    0.846   548 h    0.795
   548   1 h    0.865 --   547 o    0.795
   549   1 h    0.890 --   547 o    0.846
   550   8 o    1.845 --   551 h    0.830   552 h    0.771
   551   1 h    0.892 --   550 o    0.830
   552   1 h    0.870 --   550 o    0.771
   553   8 o    1.823 --   555 h    0.863   554 h    0.855
   554   1 h    0.886 --   553 o    0.855
   555   1 h    0.891 --   553 o    0.863
   556   8 o    1.884 --   558 h    0.825   557 h    0.791
   557   1 h    0.872 --   556 o    0.791
   558   1 h    0.877 --   556 o    0.825
   559   8 o    1.840 --   560 h    0.861   561 h    0.778
   560   1 h    0.899 --   559 o    0.861
   561   1 h    0.869 --   559 o    0.778
   562   8 o    1.864 --   563 h    0.863   564 h    0.807
   563   1 h    0.894 --   562 o    0.863
   564   1 h    0.864 --   562 o    0.807
   565   8 o    1.854 --   566 h    0.844   567 h    0.834
   566   1 h    0.893 --   565 o    0.844
   567   1 h    0.884 --   565 o    0.834
   568   8 o    1.812 --   569 h    0.880   570 h    0.827
   569   1 h    0.898 --   568 o    0.880
   570   1 h    0.873 --   568 o    0.827
   571   8 o    1.847 --   572 h    0.820   573 h    0.812
   572   1 h    0.883 --   571 o    0.820
   573   1 h    0.880 --   571 o    0.812
   574   8 o    1.831 --   575 h    0.842   576 h    0.816
   575   1 h    0.899 --   574 o    0.842
   576   1 h    0.874 --   574 o    0.816
   577   8 o    1.820 --   579 h    0.867   578 h    0.807
   578   1 h    0.873 --   577 o    0.807
   579   1 h    0.894 --   577 o    0.867
   580   8 o    1.865 --   581 h    0.832   582 h    0.811   636 h    0.117
   581   1 h    0.888 --   580 o    0.832
   582   1 h    0.876 --   580 o    0.811
   583   8 o    1.830 --   584 h    0.835   585 h    0.801
   584   1 h    0.896 --   583 o    0.835
   585   1 h    0.871 --   583 o    0.801
   586   8 o    1.828 --   588 h    0.874   587 h    0.813
   587   1 h    0.879 --   586 o    0.813
   588   1 h    0.894 --   586 o    0.874
   589   8 o    1.823 --   590 h    0.884   591 h    0.796
   590   1 h    0.899 --   589 o    0.884
   591   1 h    0.866 --   589 o    0.796
   592   8 o    1.822 --   594 h    0.866   593 h    0.840
   593   1 h    0.885 --   592 o    0.840
   594   1 h    0.890 --   592 o    0.866
   595   8 o    1.872 --   596 h    0.848   597 h    0.781
   596   1 h    0.895 --   595 o    0.848
   597   1 h    0.867 --   595 o    0.781
   598   8 o    1.818 --   600 h    0.848   599 h    0.841
   599   1 h    0.886 --   598 o    0.841
   600   1 h    0.892 --   598 o    0.848
   601   8 o    1.875 --   603 h    0.857   602 h    0.808
   602   1 h    0.877 --   601 o    0.808
   603   1 h    0.890 --   601 o    0.857
   604   8 o    1.835 --   605 h    0.881   606 h    0.825
   605   1 h    0.899 --   604 o    0.881
   606   1 h    0.882 --   604 o    0.825
   607   8 o    1.830 --   608 h    0.815   609 h    0.811
   608   1 h    0.880 --   607 o    0.815
   609   1 h    0.890 --   607 o    0.811
   610   8 o    1.821 --   612 h    0.834   611 h    0.788
   611   1 h    0.871 --   610 o    0.788
   612   1 h    0.898 --   610 o    0.834
   613   8 o    1.822 --   614 h    0.904   615 h    0.774
   614   1 h    0.906 --   613 o    0.904
   615   1 h    0.867 --   613 o    0.774
   616   8 o    1.848 --   618 h    0.846   617 h    0.818
   617   1 h    0.870 --   616 o    0.818
   618   1 h    0.896 --   616 o    0.846
   619   8 o    1.829 --   621 h    0.850   620 h    0.823
   620   1 h    0.888 --   619 o    0.823
   621   1 h    0.888 --   619 o    0.850
   622   8 o    1.832 --   623 h    0.888   624 h    0.790
   623   1 h    0.901 --   622 o    0.888
   624   1 h    0.872 --   622 o    0.790
   625   8 o    1.847 --   627 h    0.892   626 h    0.788
   626   1 h    0.871 --   625 o    0.788
   627   1 h    0.902 --   625 o    0.892
   628   8 o    1.848 --   630 h    0.796   629 h    0.772
   629   1 h    0.870 --   628 o    0.772
   630   1 h    0.879 --   628 o    0.796
   631   8 o    1.831 --   632 h    0.844   633 h    0.806
   632   1 h    0.894 --   631 o    0.844
   633   1 h    0.873 --   631 o    0.806
   634   8 o    1.838 --   635 h    0.894   636 h    0.753
   635   1 h    0.902 --   634 o    0.894
   636   1 h    0.874 --   634 o    0.753   580 o    0.117
   637   8 o    1.833 --   638 h    0.866   639 h    0.819
   638   1 h    0.892 --   637 o    0.866
   639   1 h    0.885 --   637 o    0.819
   640   8 o    1.901 --   641 h    0.830   642 h    0.813
   641   1 h    0.880 --   640 o    0.830
   642   1 h    0.884 --   640 o    0.813
   643   8 o    1.850 --   644 h    0.897   645 h    0.780
   644   1 h    0.901 --   643 o    0.897
   645   1 h    0.873 --   643 o    0.780
   646   8 o    1.834 --   648 h    0.847   647 h    0.842
   647   1 h    0.884 --   646 o    0.842
   648   1 h    0.888 --   646 o    0.847
   649   8 o    1.825 --   651 h    0.894   650 h    0.838
   650   1 h    0.889 --   649 o    0.838
   651   1 h    0.897 --   649 o    0.894
   652   8 o    1.861 --   653 h    0.799   654 h    0.785
   653   1 h    0.886 --   652 o    0.799
   654   1 h    0.883 --   652 o    0.785
   655   8 o    1.848 --   656 h    0.847   657 h    0.828
   656   1 h    0.884 --   655 o    0.847
   657   1 h    0.890 --   655 o    0.828
   658   8 o    1.821 --   660 h    0.897   659 h    0.782
   659   1 h    0.871 --   658 o    0.782
   660   1 h    0.906 --   658 o    0.897
   661   8 o    1.864 --   662 h    0.845   663 h    0.827
   662   1 h    0.884 --   661 o    0.845
   663   1 h    0.875 --   661 o    0.827
   664   8 o    1.833 --   666 h    0.873   665 h    0.820
   665   1 h    0.884 --   664 o    0.820
   666   1 h    0.897 --   664 o    0.873
   667   8 o    1.835 --   668 h    0.858   669 h    0.831
   668   1 h    0.899 --   667 o    0.858
   669   1 h    0.876 --   667 o    0.831
   670   8 o    1.850 --   671 h    0.888   672 h    0.769
   671   1 h    0.899 --   670 o    0.888
   672   1 h    0.866 --   670 o    0.769
   673   8 o    1.887 --   675 h    0.831   674 h    0.804
   674   1 h    0.866 --   673 o    0.804
   675   1 h    0.890 --   673 o    0.831
   676   8 o    1.824 --   678 h    0.895   677 h    0.790
   677   1 h    0.875 --   676 o    0.790
   678   1 h    0.902 --   676 o    0.895
   679   8 o    1.843 --   680 h    0.902   681 h    0.816
   680   1 h    0.904 --   679 o    0.902
   681   1 h    0.879 --   679 o    0.816
   682   8 o    1.868 --   684 h    0.808   683 h    0.780
   683   1 h    0.868 --   682 o    0.780
   684   1 h    0.889 --   682 o    0.808
   685   8 o    1.834 --   686 h    0.856   687 h    0.814
   686   1 h    0.890 --   685 o    0.856
   687   1 h    0.888 --   685 o    0.814
   688   8 o    1.842 --   689 h    0.857   690 h    0.833
   689   1 h    0.886 --   688 o    0.857
   690   1 h    0.882 --   688 o    0.833
   691   8 o    1.815 --   692 h    0.896   693 h    0.784
   692   1 h    0.902 --   691 o    0.896
   693   1 h    0.876 --   691 o    0.784
   694   8 o    1.853 --   696 h    0.830   695 h    0.812
   695   1 h    0.889 --   694 o    0.812
   696   1 h    0.884 --   694 o    0.830
   697   8 o    1.822 --   699 h    0.835   698 h    0.818
   698   1 h    0.889 --   697 o    0.818
   699   1 h    0.891 --   697 o    0.835
   700   8 o    1.808 --   702 h    0.843   701 h    0.821
   701   1 h    0.888 --   700 o    0.821
   702   1 h    0.892 --   700 o    0.843
   703   8 o    1.883 --   704 h    0.822   705 h    0.798
   704   1 h    0.878 --   703 o    0.822
   705   1 h    0.878 --   703 o    0.798
   706   8 o    1.816 --   708 h    0.835   707 h    0.808
   707   1 h    0.876 --   706 o    0.808
   708   1 h    0.897 --   706 o    0.835
   709   8 o    1.837 --   710 h    0.895   711 h    0.829
   710   1 h    0.900 --   709 o    0.895
   711   1 h    0.879 --   709 o    0.829
   712   8 o    1.844 --   714 h    0.858   713 h    0.814
   713   1 h    0.866 --   712 o    0.814
   714   1 h    0.895 --   712 o    0.858
   715   8 o    1.840 --   717 h    0.842   716 h    0.827
   716   1 h    0.875 --   715 o    0.827
   717   1 h    0.886 --   715 o    0.842
   718   8 o    1.806 --   720 h    0.863   719 h    0.835
   719   1 h    0.879 --   718 o    0.835
   720   1 h    0.892 --   718 o    0.863
   721   8 o    1.810 --   722 h    0.864   723 h    0.843
   722   1 h    0.894 --   721 o    0.864
   723   1 h    0.891 --   721 o    0.843
   724   8 o    1.868 --   726 h    0.881   725 h    0.824
   725   1 h    0.875 --   724 o    0.824
   726   1 h    0.902 --   724 o    0.881
   727   8 o    1.790 --   729 h    0.871   728 h    0.824
   728   1 h    0.887 --   727 o    0.824
   729   1 h    0.901 --   727 o    0.871
   730   8 o    1.840 --   731 h    0.899   732 h    0.837
   731   1 h    0.901 --   730 o    0.899
   732   1 h    0.882 --   730 o    0.837
   733   8 o    1.854 --   734 h    0.857   735 h    0.831
   734   1 h    0.887 --   733 o    0.857
   735   1 h    0.889 --   733 o    0.831
   736   8 o    1.862 --   738 h    0.849   737 h    0.818
   737   1 h    0.879 --   736 o    0.818
   738   1 h    0.891 --   736 o    0.849
   739   8 o    1.838 --   740 h    0.842   741 h    0.826
   740   1 h    0.889 --   739 o    0.842
   741   1 h    0.883 --   739 o    0.826
   742   8 o    1.810 --   743 h    0.845   744 h    0.835
   743   1 h    0.882 --   742 o    0.845
   744   1 h    0.889 --   742 o    0.835
   745   8 o    1.847 --   746 h    0.816   747 h    0.814
   746   1 h    0.888 --   745 o    0.816
   747   1 h    0.883 --   745 o    0.814
   748   8 o    1.857 --   750 h    0.841   749 h    0.809
   749   1 h    0.876 --   748 o    0.809
   750   1 h    0.875 --   748 o    0.841
   751   8 o    1.823 --   753 h    0.885   752 h    0.860
   752   1 h    0.887 --   751 o    0.860
   753   1 h    0.898 --   751 o    0.885
   754   8 o    1.801 --   755 h    0.881   756 h    0.865
   755   1 h    0.899 --   754 o    0.881
   756   1 h    0.892 --   754 o    0.865
 ---------------------------------------------------------------------------

Topologies differ in total number of bonds
Writing topology from bond orders to xtbtopo.mol

molecular dipole:
                 x           y           z       tot (Debye)
 q only:        3.407       3.883       1.258
   full:        4.271       4.972       0.695      16.753
molecular quadrupole (traceless):
                xx          xy          yy          xz          yz          zz
 q only:      201.596      78.559    -129.651      13.086      -0.850     -71.944
  q+dip:      271.507     119.542    -172.617      20.836       6.271     -98.889
   full:      274.480     119.930    -175.033      21.298       5.675     -99.447


           -------------------------------------------------
          | TOTAL ENERGY            -1283.538233843123 Eh   |
          | GRADIENT NORM               0.126638755269 Eh/α |
          | HOMO-LUMO GAP               6.898890806678 eV   |
           -------------------------------------------------

------------------------------------------------------------------------
 * finished run on 2022/11/24 at 12:21:37.708     
------------------------------------------------------------------------
 total:
 * wall-time:     0 d,  0 h,  0 min, 21.020 sec
 *  cpu-time:     0 d,  0 h,  0 min, 33.535 sec
 * ratio c/w:     1.595 speedup
 SCF:
 * wall-time:     0 d,  0 h,  0 min, 19.992 sec
 *  cpu-time:     0 d,  0 h,  0 min, 31.832 sec
 * ratio c/w:     1.592 speedup

