756
 energy: -1283.289622305712 gnorm: 0.015806338811 xtb: 6.5.1 (579679a)
o            4.89132894129701       -7.00690949401969       -2.30209692941816
h            4.17708727986202       -7.41172839336186       -1.74381817021389
h            4.83443430387562       -7.46682164624998       -3.14171967612051
o           -0.03999430698942        3.53433003049502        4.70622849096998
h           -0.38569595881646        3.93248672685552        5.52155613712636
h            0.53343816810940        4.19082602768730        4.29269772963600
o           -0.50513008553540       -2.80189481994831       -2.45567567386945
h           -0.59105510856360       -3.34222631971793       -1.66401081421817
h           -1.37608353803084       -2.38984473437710       -2.61886741602941
o           -5.71818858218325        1.87312953211670       -0.88494556189717
h           -4.96522530544081        1.49808838991185       -1.38137960383985
h           -5.72952365013141        1.47226110560799        0.00838905032187
o           -3.28825452692521        2.10451927744863        1.19726760472099
h           -3.90355523463943        2.74498575372814        1.60040219321964
h           -2.66873206600292        1.82035729671247        1.89707065329536
o           -3.27865334171609       -3.77373033178464        2.03606000310008
h           -3.72439601466145       -3.67966713691152        1.19054446324484
h           -3.86956750249284       -3.40771063974280        2.72525119585908
o            0.21740697312978       -4.87155455843161       -3.97809452052420
h           -0.14216636801005       -4.07919021224480       -3.53230162468369
h           -0.03550302290628       -5.59920019702285       -3.39211216878981
o            1.08039138436427       -6.01202216202198        0.43391948454208
h            1.85307974107695       -6.47295443095854        0.78776373331347
h            0.31553233222606       -6.55591467966151        0.69963414959009
o           -1.07427993013154       -4.09707964848509        0.03697889016909
h           -0.94959646979926       -4.38600515827909        0.96562425141236
h           -2.03096871007267       -4.12297480998254       -0.15102407148831
o            0.82352774259528        2.53522085498991       -4.62591721142121
h            0.76948501290951        2.92083797441316       -5.50928997396440
h            0.98539944867779        3.23970435132957       -3.97358062394264
o           -2.61899529481716       -1.30769362567623       -3.06199850591694
h           -2.21780927793798       -0.97493811604793       -3.87660233844013
h           -3.02617870374027       -0.52432223855508       -2.63882455067746
o           -1.36664655830629        2.54925688418717       -2.38386902713155
h           -1.18901824478629        3.45309697373192       -2.66894764178276
h           -1.18646556722305        1.95176410432110       -3.14033056884946
o           -3.44426251555119       -4.07540318559593       -0.99839924867152
h           -4.40351133305489       -4.15243005434986       -1.06713080189493
h           -3.11977808685591       -4.17544298741482       -1.91106948389644
o           -3.67949791962716        1.06934754758914       -2.46317377617401
h           -3.85818580184862        1.07800789068584       -3.42666460598391
h           -2.91334622300826        1.64518250706485       -2.31901638864849
o           -0.17092748804162        2.03650929265847       -0.05846134357601
h           -0.69491286592800        2.25194451837128       -0.85321594514118
h            0.74368950530293        1.99254836013726       -0.37827044040500
o            0.67501863547355       -0.20805239159773       -2.38111248088755
h            1.06226850454597        0.58465934665687       -1.96280096719730
h            1.15886282528420       -0.97802704736128       -2.03073170039483
o           -3.74225315760473       -0.16292002588462        2.89415761088846
h           -2.87238258770870       -0.60142912120098        2.85996861046070
h           -3.97479863883010       -0.18547054439246        3.83663295114853
o           -5.34079411779691       -1.60110369035445        7.29880204883834
h           -6.11793885969541       -1.91862541849562        6.77597558484507
h           -4.83191766630892       -2.40915894408531        7.46030642635458
o           -0.58237606916878       -4.57914302326061        2.60230517276557
h           -1.16498799211562       -4.42281125976481        3.37300062396304
h            0.09180308588253       -3.87190369117621        2.66398915394269
o           -3.85864765350619       -0.15955888059682        5.60842873746625
h           -2.96620583930428       -0.02793099640859        5.95614042620685
h           -4.36615083012159       -0.72593733424971        6.22203438663771
o           -1.58105691781401       -1.70055863192740        2.95018806099046
h           -1.13877883214756       -1.64933776157909        3.82266654994407
h           -1.97726245865521       -2.57997451673758        2.87466924439652
o            5.19475325334602       -0.56918780829261        0.53186137185560
h            5.38596619050567        0.15390206952154        1.17251201971769
h            4.84985289404506       -0.17145615479284       -0.28188333954794
o            1.53798503111013       -3.37579238270377        0.43056562385326
h            2.29982097552941       -3.27979189171070        1.01402837672146
h            1.31858462956556       -4.32769060138946        0.41951142297894
o           -0.20393784597935        5.12389173582062       -0.34036260862202
h           -0.28645359292354        5.62345065297303        0.49484929748951
h           -1.07784021480102        4.69746463728281       -0.46883768140262
o           -3.10922623603520       -0.33095686239487        8.64741988411797
h           -2.93904332342420        0.61884368278546        8.57377147395063
h           -4.04240766055734       -0.48359863653288        8.46675452347923
o           -6.27624351190848       -0.59120936284955        4.04712759581928
h           -6.40854667883391       -0.05733546838051        3.25305579819125
h           -6.26891516168854        0.01466982793899        4.80134275824567
o           -7.84657641331769        0.31529548404781       -1.56139826623799
h           -7.16844614993236        0.97772738918932       -1.32225446832507
h           -8.72247846445405        0.72607757873675       -1.42621940147932
o            3.24830629983164        1.71446590813668        1.04791187987770
h            2.74761122128471        2.52727374092701        0.85540537953809
h            4.06185902125247        1.78209488166250        0.52486082390495
o           -2.74560774587065       -4.32187270002917       -3.66878653592066
h           -2.43888743482694       -5.20584591251705       -3.92302006573361
h           -3.72060770031276       -4.33089609249215       -3.67409088202849
o            2.39481342161631       -2.14920404580307       -1.69508387883529
h            2.39793790302611       -2.72450072892870       -2.49887434586188
h            1.97229662641596       -2.67288141601816       -0.97096544151684
o           -5.37717926272092       -6.71846722108055       -4.01000429046354
h           -4.77127390993496       -6.50991575082918       -4.74526290694855
h           -6.17184088569479       -6.21139588622483       -4.20300114525764
o           -5.57058177897782       -1.46200914895904       -1.92764666135875
h           -5.05029709144805       -0.97307303322133       -1.27286216480768
h           -5.65838098623190       -0.88632223926968       -2.70618146632817
o            1.36873435641290        1.34151725063820        5.17183113387291
h            1.24390553589406        0.83005132909037        4.35057336266667
h            0.89054353097807        2.18759622974113        5.02344066223972
o            3.66099773994317       -2.21057224490985        1.85860155366453
h            4.24004758002081       -2.82039987173142        2.36428472844835
h            4.29544440658107       -1.73768424508263        1.27277405221568
o            0.65808152714499        0.04731012821075        2.87996478400547
h            1.08340103078546        0.14334244420122        2.01366187997814
h            0.77466746062847       -0.89166099337407        3.12628827265200
o            3.79644002397754        2.95170161964996        3.45719967965105
h            3.10737008340742        3.26546838403922        4.05650440084945
h            4.00519171750997        3.68317488218563        2.85060620302901
o           -3.80248129251707        3.87420546956268       -3.01346118621966
h           -3.22797944081776        3.58525966267033       -3.74395817894673
h           -4.60821429546363        3.30358248260335       -3.08928408058526
o           -5.69781262167377        4.47509778171351       -0.36532463520642
h           -5.68916793817590        3.53212087960029       -0.65709573743677
h           -5.02673256513451        4.98227187705947       -0.83896861206300
o            0.65879618867896       -3.29782548863726        7.89006688038287
h           -0.22423104119657       -2.89368692483220        7.90729726928408
h            1.30720821642087       -2.61291196018193        8.09838675735555
o           -2.09030370706781       -3.87843033667066        4.74295975726230
h           -2.47264392629515       -4.75226677299853        4.93476700066685
h           -2.84978677350490       -3.27990067160019        4.68394582703715
o           -0.40354237896043       -1.31738422347684        5.31160419920483
h           -0.85804515579297       -1.87541184980487        5.97046783877751
h            0.56136469711825       -1.45132072765087        5.40078206003154
o           -1.53424531625732        1.54951086704119        3.18386660161004
h           -0.86819346005154        0.84896299043558        3.04520159687523
h           -1.05340857036775        2.38183933711984        2.98971230362324
o            0.01668119085210       -2.83491568958492       -7.16448691530015
h            0.42825735446746       -2.60404475820452       -6.30887595188091
h            0.69984025667086       -2.67921034493076       -7.82254558294744
o            2.27655382278799       -1.48870441418227        5.47256875087133
h            2.68338304524340       -0.80373820513174        4.91882398474593
h            2.48061872065538       -1.31693817681854        6.41187440632525
o           -8.72462609505465        0.72042470216124        2.29602864758113
h           -8.47210796268251        1.52650426237527        1.79011051871892
h           -8.65410381259758        0.93423107442492        3.24760315429711
o           -8.85894435419339        4.77729024557686        2.49165941633142
h           -8.32164177134269        5.58432047280321        2.70017345258582
h           -9.57083015534629        5.06803060520297        1.91236059337691
o           -8.60362293028128       -3.63264896327335        0.56314175475335
h           -9.46245255860161       -3.67346861698613        0.12443570605515
h           -8.35449043539472       -2.68381263260393        0.60677526800520
o            2.78571181994975       -4.73200524347838        2.80511611834954
h            3.23654484082261       -4.46811731326142        3.63119024600893
h            2.16642288310550       -5.44409192101335        3.03773633216771
o            5.88968973967193       -2.53348917425037        5.85787803902347
h            5.73892112125997       -2.13026094416066        6.72521587095411
h            5.86369117998388       -1.76049535686618        5.24612060138038
o            2.04058170328069        1.92175957920486       -1.48857428769420
h            2.88903173796391        1.46564849182169       -1.62659133838952
h            2.00473029990677        2.71402438440075       -2.04625811435436
o            4.90672898146836       -4.43394054703189       -3.03549575637536
h            4.97527006200881       -3.85510356313471       -2.24082715780284
h            4.71276824356322       -5.33535062060175       -2.71259292153385
o           -7.79747717477294        5.62748862759833       -3.12511593836073
h           -6.86610894348254        5.82847810225106       -3.33972240795032
h           -7.97506241759716        6.08572746488431       -2.29090288685697
o            5.72323329031518        1.34867539227405        2.27059223154087
h            5.03525079124425        1.91850508790695        2.63558656797813
h            6.49858399718033        1.90354935839420        2.10887460524495
o            0.26769607656380        2.72476907440395       -7.31125415838343
h            0.31846279145391        1.75905902919962       -7.19049718168670
h           -0.62375645932966        2.90947842786706       -7.62779201051592
o           -7.95687500978435       -2.56890337366482       -2.08599173066772
h           -8.65366604803835       -2.06653683527256       -1.61926968586869
h           -7.10501704921753       -2.11491979928400       -1.91121805288289
o           -3.95701166448017        2.27974928879141        4.51835521780014
h           -4.02075998446554        1.48098947159823        5.06859815685029
h           -3.19434390423821        2.13610685771822        3.94694894291367
o            3.96506870153260       -5.20707253070304        0.47319768759804
h            3.49951419792552       -5.01239821656458        1.31377348871210
h            4.66400482968730       -5.83415675952430        0.73205757018195
o           -3.02929009965124       -6.44617258944320        2.20035706485730
h           -2.99922190804098       -5.46736305465385        2.14531193496427
h           -3.76686099012191       -6.70670673277145        1.62597944364618
o            2.46156545672316        0.45559582193104       -4.31443769871922
h            2.07931099358761        1.35556947953425       -4.36847153430611
h            1.75768390772718       -0.06087192465263       -3.88158754667759
o            2.44163765697198       -1.58973720590882       -7.98390233297715
h            3.03842235200419       -2.30148709557452       -7.72596291520787
h            2.88616677742997       -0.77015857564721       -7.70379955106407
o           -1.42264319611128        1.02869928636006        5.83073143354205
h           -1.46742747175651        1.47199371923257        4.96540276112427
h           -0.97592921625636        0.17270489547714        5.63953781768008
o           -1.13628672067879       -5.17489189608848       -6.34021747137326
h           -0.78079234766062       -4.42390858816281       -6.83716734256776
h           -0.66170999450841       -5.16667289155145       -5.48410806460039
o            1.93397261717174       -0.41519083447957        0.49159670229123
h            2.45227497018531        0.42236277321419        0.55980896336260
h            2.49089442420205       -1.13297305528600        0.80345313935794
o           -0.79643915270859       -6.07690527120249       -1.75039560740336
h           -0.75370825237338       -5.44183472122263       -1.01162286014486
h           -1.73451199577682       -6.30539287070409       -1.85937952239230
o            5.55627447470513       -3.67884615878734        2.93374664831579
h            5.62618310751907       -4.38612601316807        3.57292496241440
h            6.02539798458149       -3.97636922598415        2.13185342161270
o           -3.92428943721594       -1.82408557976694       -7.49963935320551
h           -4.51857527058005       -2.56173766772967       -7.64990526496404
h           -3.43662806525967       -2.04718618956809       -6.67176515351310
o           -5.91790028705466       -4.09423598784877        0.26157265093230
h           -6.87639721192826       -4.02558840931775        0.13509708466632
h           -5.64723196846657       -3.21772413706897        0.58979083268104
o           -1.04293935193908        0.63758930324626       -4.23015046343903
h           -0.45849154896243        0.19616946609999       -3.58889926103244
h           -0.46803049117747        1.20787572013667       -4.75611588964154
o          -10.94544372091403        2.40654347892789        1.20554339405324
h          -11.05750160141750        2.35219942016984        2.17664241615761
h          -10.66618945262211        3.31021437678829        0.96598951687809
o            3.63202383893146       -3.80290342217787        5.14280809006543
h            3.10463391566140       -2.98382651596910        5.23459327514977
h            4.52783775502050       -3.52891813559726        5.40885118488267
o            1.34151750053791        3.38604479905267        7.99167035985615
h            1.05798034224381        2.45282979693367        7.96591833204536
h            1.81598978841777        3.57701314473529        7.15554966592895
o            3.94276130880210        0.08692167823578       -1.93878477592507
h            3.90125176385322        0.28009835931348       -2.88428042070475
h            3.36652427156385       -0.68402926963802       -1.80389446374018
o            4.50457842507827        4.91973608016153        1.61114257162292
h            5.13999684302610        4.62531270407694        0.94520231780717
h            4.98810508521825        5.58359027517086        2.13684246415023
o           -4.76854576508855       -1.75856303584546       -4.59537025675518
h           -4.71098282712904       -0.85470794520260       -4.93666493069082
h           -3.98970934094661       -1.85885851744075       -4.02018751461877
o            5.75593640378111       -6.87115280841451        1.60890257333066
h            6.26791737168107       -7.16811354806333        0.84934579930008
h            6.40884833380580       -6.45644689939004        2.20179332582424
o           -2.55525241963137        2.76645901123584       -7.62729192356221
h           -2.47581297330147        1.78863648055556       -7.55668633351259
h           -3.50084784950136        2.94476912679276       -7.67798623695921
o            4.43452588987791       -1.43192161965031       -4.84430466255987
h            3.54174580330698       -1.13488710460875       -4.64235038339646
h            4.33483725982638       -2.21384063930655       -5.43012181640927
o           -8.95943296867033       -4.92622653485928        3.61015141776074
h           -8.94348358024980       -5.58553930169010        2.90906851810506
h           -8.17700110476202       -4.36218162078947        3.45679101228918
o          -10.07678085760588       -1.48627733470750       -0.93869382591051
h          -10.89287671399076       -1.86789623920185       -1.26065335374008
h          -10.22658639600730       -1.23261407544167       -0.00790893486642
o           -8.60016786260193       -5.11308066132320       -1.97031058180023
h           -9.51090184430665       -5.07400257074918       -1.65889712349225
h           -8.26697751731395       -4.18479658414702       -1.90232475380793
o           -7.85910002065564        6.05604841373754       -0.40589406974255
h           -7.52743612422679        6.82640181456666        0.06404485185826
h           -7.13120929008732        5.39854704083856       -0.35832743655539
o           -5.81678503913567        7.58977852254266        0.92841050896483
h           -5.13524167256730        7.84287261866152        1.57200789875394
h           -5.33197265891522        7.26470173470211        0.14842987352907
o           -2.69761841902297        4.08694920042461       -0.49383171598394
h           -3.06479503245756        3.93797267744642       -1.37982540098382
h           -2.81728462952076        3.26353160691934        0.01544658646705
o           -0.74339833612988        4.70875513783578        7.09154774106680
h           -0.01297788129585        4.24806337207694        7.57680747724586
h           -0.36668741767973        5.55521699530324        6.82712276709954
o            1.82143943801240        5.05416655568931        2.97291165358176
h            2.51408542725060        5.62394952712665        3.34963222953082
h            1.15371826726156        5.67514668697669        2.58986216611998
o           -0.06522180404886        5.33891257577150       -5.32694543438187
h            0.90880553218364        5.16291783319958       -5.34183088270082
h           -0.24540055343265        5.96537688525009       -6.02611518551466
o            2.92783945846348        3.26201553145969       -7.47094919006725
h            2.00160035599747        3.12962885924217       -7.72689449412137
h            2.88355277007269        3.95929878656770       -6.79224981723479
o            5.48301062050255        1.98561001048110       -0.53894310299836
h            6.23548996078982        2.16667445278208        0.03022045449600
h            5.84720981131293        1.57766616882900       -1.34895457124773
o            2.55423765942511        4.93293855133656       -5.38118141404987
h            2.74232962837452        5.75656053792343       -4.91202583547677
h            2.88484495395277        4.22046758813736       -4.76829132291212
o           -1.36556674030652        5.42043026200814       -2.92159595264310
h           -2.28600288881156        5.26495952733276       -3.15159721800386
h           -0.86471600247428        5.53027097381747       -3.74751317991669
o           -5.37047740954283       -1.89368111040999        1.58701895486118
h           -4.78616541025363       -1.25873582281812        2.04926575137538
h           -6.05761467759209       -1.35389460308958        1.14576551329939
o            0.35279475326876       -8.40979064806442       -1.25166725987401
h           -0.02467263031111       -8.66978746594282       -0.40625653830880
h           -0.04616305621722       -7.52818082815752       -1.43541659992652
o            9.20978168944331       -3.44700285919704       -0.60305020925077
h            8.39286167693511       -2.93046971661954       -0.45807776530097
h            9.34270364681131       -4.03704739805473        0.16883583023603
o            1.07770649101338       -2.59101883991282        3.24100563570880
h            0.97694148856243       -3.02888293358893        4.11395085251969
h            1.95474363004477       -2.83698044859321        2.92468243495659
o            3.32260795553807        7.00193188218142        0.30881207954947
h            3.54676362254145        6.14388751348822        0.72123832398557
h            4.16315072725534        7.33077172027267       -0.04548704507975
o           -7.29947343307623       -2.62457385109982        5.83555318169448
h           -8.17187250813750       -2.21690352442233        6.01033145847908
h           -7.16860168071810       -2.48399535114213        4.87669155415470
o           -7.25509167719409       -1.35458549372552       -6.15379040456920
h           -6.63137319666044       -2.07247912432159       -6.33879929350501
h           -7.99161064116171       -1.77704692353105       -5.66632354849500
o           -4.38526617064812        6.76790386519360       -1.27110555207065
h           -3.53888138527281        7.22777746602798       -1.31756287256022
h           -4.75420667551892        6.77453607597839       -2.16826069793525
o           -5.18201963412761        6.03767649574229       -3.73504649137328
h           -4.91484784821477        6.08031455278624       -4.67107914343088
h           -4.74311081214813        5.21818188167220       -3.41624155025092
o            3.37667509622202       -0.05426591596526        3.41874182851900
h            3.31933503484209        0.73991584105281        2.87049099618418
h            3.39800828164279       -0.83358165976268        2.82520517438596
o           -5.34611587360320       -4.00319551239545       -2.97237578813183
h           -5.36930840045140       -3.07488711132101       -2.68391554829444
h           -6.16354870016386       -4.16206550185559       -3.45688942327984
o            1.85051014681526       -4.92914869738804       -6.26977400510868
h            2.16458876017581       -5.54022070869441       -5.57550038742161
h            1.15945722372922       -5.39158678318448       -6.74408370020380
o            2.39855453736895       -5.32480242098049       -1.83218375061541
h            3.01196306675880       -5.40299843122546       -1.08567097997445
h            1.56403308349385       -5.66033459345091       -1.48667827067019
o           -4.91076875739331        4.14634515561443        2.10560266174825
h           -5.26858671949605        4.37646127196454        1.21790604300624
h           -5.61646787242082        3.64319919789478        2.57108680446214
o           -6.64267565611196        0.14208129541837       -3.93086899350561
h           -7.34266953946884        0.06583487109223       -3.25957641178623
h           -6.89620069439084       -0.34865044585301       -4.73120099185313
o          -10.24822381609971        4.80782014104444        0.10081378604705
h           -9.41479774772256        5.26389565133147       -0.11917426054330
h          -10.61814753917964        4.54695549934668       -0.75683772048305
o            5.82588294969160        7.10857846918697        2.54281957298450
h            6.73133039538676        6.80391218755283        2.71825897200778
h            5.85415241206871        7.47188858417990        1.64177615558083
o           -6.01360818857522        2.65369539059806       -3.51223048884563
h           -6.45797959074741        3.13169609135063       -4.23906635971177
h           -6.11146189719670        1.69860679430821       -3.70997570889917
o            2.54831139117539        4.15817738171677        5.70497589750916
h            3.47937788739341        4.44646669986991        5.74724381448736
h            2.01311314192902        4.95249973632172        5.56399166248912
o            3.41098988993851        0.67345811551852       -6.83908742368942
h            3.20797884217303        1.59058249043031       -7.10416708809614
h            3.05460396330257        0.56842296036350       -5.93364809819368
o           -0.48122282055377       -6.56570197225329        5.61654708811300
h           -1.43384557607216       -6.60069931240664        5.47704776645550
h           -0.23059442550625       -5.62598022153787        5.66425258498711
o            6.54221345883291        3.51266257500529       -2.51255896549224
h            6.30461100217682        3.96261291086032       -3.34129635050435
h            7.43917903621490        3.16181195575634       -2.63022404327576
o           -7.69486448979302       -1.11244322119071        0.65321834339615
h           -7.99838630023325       -0.44466800634498        1.29504935014938
h           -7.73015081331907       -0.65454296887357       -0.21718658205005
o            9.81647948935560        4.38727653776138        4.05528927146214
h            9.25429209121378        3.67465655747642        4.39595271655649
h           10.27374065043234        3.98318633065141        3.30085096135657
o          -10.66542103209330       -0.91379094102106        1.62106556900212
h          -10.05172124953092       -0.19383071941685        1.89013706843864
h          -10.58725394774573       -1.61760745682339        2.28614737479788
o           -6.42678319474170        2.64010991315849        3.65064730940344
h           -5.55018975636992        2.42741967909098        4.03985766379367
h           -6.86929298648729        3.18089505648568        4.32514411282569
o           -7.83994633743275        2.81044502595514        0.92616230567355
h           -8.15855281957361        3.57599375572971        1.43244194060221
h           -8.01018865293845        2.97946103867452       -0.01413876728850
o           -6.42181170300297        1.00087811554169        6.27759141058375
h           -6.35109276426425        0.32878800129611        6.95812617454554
h           -5.85844824237038        1.75787973930890        6.55326958730666
o           -1.80207602260883       -2.27686757515892        7.35007997038131
h           -2.24660673166633       -1.59469657064898        7.88837017753994
h           -2.46304774768559       -2.95601704664954        7.15222924773700
o            0.88607130019294       -4.16756715664543        5.41799701643404
h            1.78149923661779       -4.52194391536728        5.42084502047011
h            0.75390289555485       -3.83859061486699        6.33739433173493
o           -2.12592614466285        3.54934485160234       -5.12716479671681
h           -1.29307021853275        4.03904393676944       -5.20656319205049
h           -2.26462414399471        3.12259662159468       -5.99934385479859
o            4.08483036332126        4.14994012968051       -1.34384483542189
h            4.64475681867284        3.39575973995115       -1.07756219112703
h            3.33545652524596        4.18273247743855       -0.71787033939824
o            5.21993767290976        1.27192990679418       -4.62207991967691
h            5.88431905017001        1.19580674965632       -3.89859323089993
h            5.00700556636452        0.36153397165805       -4.87636433238540
o            2.10182620179883        8.42475701877577        2.26370567947999
h            2.56933427992494        8.12568300702314        3.05058560437581
h            2.61359705831818        8.06877863980241        1.51149278456829
o            5.08898384285901        5.06204934205815        5.52474368203063
h            5.67832923178128        4.91072875799710        6.26222346940930
h            5.55039522705054        4.67092833644499        4.72939879892018
o            6.41447940578356        4.06473188248631        3.48403420346131
h            6.97167486108822        3.37104048944474        3.88577308488916
h            7.02857313350937        4.70376613589832        3.08790481241352
o            6.80969160611656       -4.07635371780777        0.58191048281183
h            6.21345583563405       -3.55087002606093        0.02601874178613
h            6.92873289177228       -4.93901820837221        0.14112988320652
o            8.41532166005120       -2.64799323932672        2.20971271118915
h            7.85455100117763       -3.15907679441012        1.60015094924263