      -----------------------------------------------------------      
     |                   =====================                   |     
     |                           x T B                           |     
     |                   =====================                   |     
     |                         S. Grimme                         |     
     |          Mulliken Center for Theoretical Chemistry        |     
     |                    University of Bonn                     |     
      -----------------------------------------------------------      

   * xtb version 6.5.1 (579679a) compiled by 'ehlert@majestix' on 2022-07-11

   xtb is free software: you can redistribute it and/or modify it under
   the terms of the GNU Lesser General Public License as published by
   the Free Software Foundation, either version 3 of the License, or
   (at your option) any later version.
   
   xtb is distributed in the hope that it will be useful,
   but WITHOUT ANY WARRANTY; without even the implied warranty of
   MERCHANTABILITY or FITNESS FOR A PARTICULAR PURPOSE.  See the
   GNU Lesser General Public License for more details.
   
   Cite this work as:
   * C. Bannwarth, E. Caldeweyher, S. Ehlert, A. Hansen, P. Pracht,
     J. Seibert, S. Spicher, S. Grimme, WIREs Comput. Mol. Sci., 2020, 11,
     e01493. DOI: 10.1002/wcms.1493
   
   for GFN2-xTB:
   * C. Bannwarth, S. Ehlert and S. Grimme., J. Chem. Theory Comput., 2019,
     15, 1652-1671. DOI: 10.1021/acs.jctc.8b01176
   for GFN1-xTB:
   * S. Grimme, C. Bannwarth, P. Shushkov, J. Chem. Theory Comput., 2017,
     13, 1989-2009. DOI: 10.1021/acs.jctc.7b00118
   for GFN0-xTB:
   * P. Pracht, E. Caldeweyher, S. Ehlert, S. Grimme, ChemRxiv, 2019, preprint.
     DOI: 10.26434/chemrxiv.8326202.v1
   for GFN-FF:
   * S. Spicher and S. Grimme, Angew. Chem. Int. Ed., 2020, 59, 15665-15673.
     DOI: 10.1002/anie.202004239
   
   for ALPB and GBSA implicit solvation:
   * S. Ehlert, M. Stahn, S. Spicher, S. Grimme, J. Chem. Theory Comput.,
     2021, 17, 4250-4261. DOI: 10.1021/acs.jctc.1c00471
   
   for DFT-D4:
   * E. Caldeweyher, C. Bannwarth and S. Grimme, J. Chem. Phys., 2017,
     147, 034112. DOI: 10.1063/1.4993215
   * E. Caldeweyher, S. Ehlert, A. Hansen, H. Neugebauer, S. Spicher,
     C. Bannwarth and S. Grimme, J. Chem. Phys., 2019, 150, 154122.
     DOI: 10.1063/1.5090222
   * E. Caldeweyher, J.-M. Mewes, S. Ehlert and S. Grimme, Phys. Chem. Chem. Phys.
     2020, 22, 8499-8512. DOI: 10.1039/D0CP00502A
   
   for sTDA-xTB:
   * S. Grimme and C. Bannwarth, J. Chem. Phys., 2016, 145, 054103.
     DOI: 10.1063/1.4959605
   
   in the mass-spec context:
   * V. Asgeirsson, C. Bauer and S. Grimme, Chem. Sci., 2017, 8, 4879.
     DOI: 10.1039/c7sc00601b
   * J. Koopman and S. Grimme, ACS Omega 2019, 4, 12, 15120-15133.
     DOI: 10.1021/acsomega.9b02011
   
   for metadynamics refer to:
   * S. Grimme, J. Chem. Theory Comput., 2019, 155, 2847-2862
     DOI: 10.1021/acs.jctc.9b00143
   
   for SPH calculations refer to:
   * S. Spicher and S. Grimme, J. Chem. Theory Comput., 2021, 17, 1701-1714
     DOI: 10.1021/acs.jctc.0c01306
   
   with help from (in alphabetical order)
   P. Atkinson, C. Bannwarth, F. Bohle, G. Brandenburg, E. Caldeweyher
   M. Checinski, S. Dohm, S. Ehlert, S. Ehrlich, I. Gerasimov, C. Hölzer
   A. Katbashev, J. Koopman, C. Lavigne, S. Lehtola, F. März, M. Müller,
   F. Musil, H. Neugebauer, J. Pisarek, C. Plett, P. Pracht, F. Pultar,
   J. Seibert, P. Shushkov, S. Spicher, M. Stahn, M. Steiner, T. Strunk,
   J. Stückrath, T. Rose, and J. Unsleber
   
 * started run on 2022/10/27 at 18:08:43.254     

           -------------------------------------------------
          |                Calculation Setup                |
           -------------------------------------------------

          program call               : xtb xtbopt.coord --gfn2 --sp --gbsa water
          hostname                   : cn0650
          coordinate file            : xtbopt.coord
          omp threads                :                    25

   ID    Z sym.   atoms
    1    1 h      1, 3, 5, 6, 8, 10-12, 14, 15, 17, 18, 20, 21, 23, 24, 26,
                  27, 29, 30
    2    6 c      2, 4
    3    8 o      7, 13, 16, 19, 22, 25, 28
    4    7 n      9

molecular fragmentation (1/2 indicates fragments):
111111111111222222222222222222
# atoms in fragment 1/2:    12    18
 fragment masses (1/2) :       62.09      108.09
CMA distance (Bohr)    :   0.728
constraining FC (au)   :  0.0500
########################################################################
[WARNING] Please study the warnings concerning your input carefully
-1- prog_main: Charge in sdf/mol input was overwritten
########################################################################

           -------------------------------------------------
          |                 G F N 2 - x T B                 |
           -------------------------------------------------

        Reference                      10.1021/acs.jctc.8b01176
      * Hamiltonian:
        H0-scaling (s, p, d)           1.850000    2.230000    2.230000
        zeta-weighting                 0.500000
      * Dispersion:
        s8                             2.700000
        a1                             0.520000
        a2                             5.000000
        s9                             5.000000
      * Repulsion:
        kExp                           1.500000    1.000000
        rExp                           1.000000
      * Coulomb:
        alpha                          2.000000
        third order                    shell-resolved
        anisotropic                    true
        a3                             3.000000
        a5                             4.000000
        cn-shift                       1.200000
        cn-exp                         4.000000
        max-rad                        5.000000

      * Solvation model:               GBSA
        Solvent                        water
        Parameter file                 internal GFN2-xTB/GBSA
        Dielectric constant                8.0200E+01
        Reference state                gsolv [1 M gas/solution]
        Free energy shift                  1.8574E-03 Eh       1.1656E+00 kcal/mol
        Temperature                        2.9815E+02 K
        Density                            1.0000E+00 kg/L
        Solvent mass                       1.8000E+01 g/mol
        Interaction kernel             Still
        Born radius scaling (c1)           1.5524E+00
        Born radii integrator          GBOBC
        Born offset                        2.4628E-02 a0       4.6540E-02 AA
        H-bond correction              true
        Ion screening                  false
        Surface tension                    1.0000E-05 Eh       1.5569E+01 dyn/cm
        Grid points                               230 per atom

          ...................................................
          :                      SETUP                      :
          :.................................................:
          :  # basis functions                  60          :
          :  # atomic orbitals                  60          :
          :  # shells                           40          :
          :  # electrons                        74          :
          :  max. iterations                   250          :
          :  Hamiltonian                  GFN2-xTB          :
          :  restarted?                      false          :
          :  GBSA solvation                   true          :
          :  PC potential                    false          :
          :  electronic temp.          300.0000000     K    :
          :  accuracy                    1.0000000          :
          :  -> integral cutoff          0.2500000E+02      :
          :  -> integral neglect         0.1000000E-07      :
          :  -> SCF convergence          0.1000000E-05 Eh   :
          :  -> wf. convergence          0.1000000E-03 e    :
          :  Broyden damping             0.4000000          :
          ...................................................

 iter      E             dE          RMSdq      gap      omega  full diag
   1    -45.8095388 -0.458095E+02  0.436E+00   11.10       0.0  T
   2    -45.8846055 -0.750668E-01  0.237E+00   10.14       1.0  T
   3    -45.8881618 -0.355622E-02  0.822E-01    9.77       1.0  T
   4    -45.8886562 -0.494421E-03  0.176E-01    9.92       1.0  T
   5    -45.8887936 -0.137444E-03  0.717E-02    9.93       1.0  T
   6    -45.8888066 -0.130142E-04  0.217E-02    9.95       1.0  T
   7    -45.8888072 -0.611827E-06  0.896E-03    9.95       2.0  T
   8    -45.8888074 -0.171256E-06  0.136E-03    9.95      13.4  T
   9    -45.8888074 -0.190143E-08  0.378E-04    9.95      48.4  T
  10    -45.8888074 -0.990219E-09  0.971E-05    9.95     188.1  T

   *** convergence criteria satisfied after 10 iterations ***

         #    Occupation            Energy/Eh            Energy/eV
      -------------------------------------------------------------
         1        2.0000           -0.6877546             -18.7148
       ...           ...                  ...                  ...
        31        2.0000           -0.4496125             -12.2346
        32        2.0000           -0.4468736             -12.1601
        33        2.0000           -0.4430833             -12.0569
        34        2.0000           -0.4412367             -12.0067
        35        2.0000           -0.4296302             -11.6908
        36        2.0000           -0.4266922             -11.6109
        37        2.0000           -0.3949417             -10.7469 (HOMO)
        38                         -0.0292075              -0.7948 (LUMO)
        39                          0.0252973               0.6884
        40                          0.0357089               0.9717
        41                          0.0679998               1.8504
        42                          0.0727511               1.9797
       ...                                ...                  ...
        60                          0.3342641               9.0958
      -------------------------------------------------------------
                  HL-Gap            0.3657342 Eh            9.9521 eV
             Fermi-level           -0.2120746 Eh           -5.7708 eV

 SCC (total)                   0 d,  0 h,  0 min,  0.025 sec
 SCC setup                      ...        0 min,  0.001 sec (  3.593%)
 Dispersion                     ...        0 min,  0.000 sec (  1.965%)
 classical contributions        ...        0 min,  0.000 sec (  0.931%)
 integral evaluation            ...        0 min,  0.001 sec (  5.571%)
 iterations                     ...        0 min,  0.018 sec ( 70.859%)
 molecular gradient             ...        0 min,  0.004 sec ( 14.804%)
 printout                       ...        0 min,  0.000 sec (  1.550%)

         :::::::::::::::::::::::::::::::::::::::::::::::::::::
         ::                     SUMMARY                     ::
         :::::::::::::::::::::::::::::::::::::::::::::::::::::
         :: total energy             -45.526516712297 Eh    ::
         :: total w/o Gsasa/hb       -45.488406591057 Eh    ::
         :: gradient norm              0.038393485618 Eh/a0 ::
         :: HOMO-LUMO gap              9.952134297033 eV    ::
         ::.................................................::
         :: SCC energy               -45.888807423821 Eh    ::
         :: -> isotropic ES            0.293768281916 Eh    ::
         :: -> anisotropic ES         -0.033069492152 Eh    ::
         :: -> anisotropic XC          0.001856713639 Eh    ::
         :: -> dispersion             -0.015213617323 Eh    ::
         :: -> Gsolv                  -0.112287400609 Eh    ::
         ::    -> Gelec               -0.074177279370 Eh    ::
         ::    -> Gsasa               -0.000806367622 Eh    ::
         ::    -> Ghb                 -0.039161196744 Eh    ::
         ::    -> Gshift               0.001857443127 Eh    ::
         :: repulsion energy           0.362084478988 Eh    ::
         :: add. restraining           0.000000000000 Eh    ::
         :: total charge               1.000000000000 e     ::
         :::::::::::::::::::::::::::::::::::::::::::::::::::::

           -------------------------------------------------
          |                Property Printout                |
           -------------------------------------------------

    * Orbital Energies and Occupations

         #    Occupation            Energy/Eh            Energy/eV
      -------------------------------------------------------------
         1        2.0000           -0.6877546             -18.7148
       ...           ...                  ...                  ...
        25        2.0000           -0.5075570             -13.8113
        26        2.0000           -0.4989808             -13.5780
        27        2.0000           -0.4913077             -13.3692
        28        2.0000           -0.4873167             -13.2606
        29        2.0000           -0.4643965             -12.6369
        30        2.0000           -0.4594371             -12.5019
        31        2.0000           -0.4496125             -12.2346
        32        2.0000           -0.4468736             -12.1601
        33        2.0000           -0.4430833             -12.0569
        34        2.0000           -0.4412367             -12.0067
        35        2.0000           -0.4296302             -11.6908
        36        2.0000           -0.4266922             -11.6109
        37        2.0000           -0.3949417             -10.7469 (HOMO)
        38                         -0.0292075              -0.7948 (LUMO)
        39                          0.0252973               0.6884
        40                          0.0357089               0.9717
        41                          0.0679998               1.8504
        42                          0.0727511               1.9797
        43                          0.0998556               2.7172
        44                          0.1057723               2.8782
        45                          0.1324348               3.6037
        46                          0.1374242               3.7395
        47                          0.1646806               4.4812
        48                          0.1920003               5.2246
       ...                                ...                  ...
        60                          0.3342641               9.0958
      -------------------------------------------------------------
                  HL-Gap            0.3657342 Eh            9.9521 eV
             Fermi-level           -0.2120746 Eh           -5.7708 eV

     #   Z          covCN         q      C6AA      α(0)
     1   1 h        0.923     0.041     2.432     2.439
     2   6 c        3.673     0.062    19.765     6.372
     3   1 h        0.923     0.050     2.318     2.381
     4   6 c        3.730    -0.040    21.386     6.601
     5   1 h        0.924     0.109     1.708     2.044
     6   1 h        0.924     0.099     1.794     2.095
     7   8 o        1.659    -0.493    22.730     6.436
     8   1 h        0.805     0.325     0.651     1.267
     9   7 n        3.483    -0.221    25.820     7.547
    10   1 h        0.860     0.287     0.752     1.358
    11   1 h        0.859     0.282     0.770     1.375
    12   1 h        0.859     0.286     0.757     1.363
    13   8 o        1.611    -0.636    26.071     6.891
    14   1 h        0.805     0.345     0.599     1.216
    15   1 h        0.805     0.345     0.600     1.217
    16   8 o        1.611    -0.630    25.922     6.872
    17   1 h        0.805     0.333     0.630     1.247
    18   1 h        0.804     0.348     0.594     1.210
    19   8 o        1.611    -0.631    25.942     6.874
    20   1 h        0.805     0.326     0.647     1.264
    21   1 h        0.805     0.328     0.642     1.259
    22   8 o        1.611    -0.641    26.191     6.907
    23   1 h        0.805     0.339     0.615     1.232
    24   1 h        0.805     0.339     0.615     1.232
    25   8 o        1.610    -0.631    25.949     6.875
    26   1 h        0.804     0.341     0.610     1.227
    27   1 h        0.806     0.322     0.657     1.273
    28   8 o        1.611    -0.632    25.970     6.878
    29   1 h        0.805     0.325     0.650     1.266
    30   1 h        0.805     0.324     0.652     1.268

 Mol. C6AA /au·bohr⁶  :       4614.896733
 Mol. C8AA /au·bohr⁸  :      87300.609841
 Mol. α(0) /au        :         97.485244


Wiberg/Mayer (AO) data.
largest (>0.10) Wiberg bond orders for each atom

 ---------------------------------------------------------------------------
     #   Z sym  total        # sym  WBO       # sym  WBO       # sym  WBO
 ---------------------------------------------------------------------------
     1   1 h    0.998 --     2 c    0.961
     2   6 c    3.956 --     7 o    1.005     4 c    1.001     1 h    0.961
                             3 h    0.958
     3   1 h    0.997 --     2 c    0.958
     4   6 c    3.934 --     2 c    1.001     9 n    0.976     6 h    0.965
                             5 h    0.959
     5   1 h    0.988 --     4 c    0.959
     6   1 h    0.990 --     4 c    0.965
     7   8 o    1.922 --     2 c    1.005     8 h    0.831
     8   1 h    0.895 --     7 o    0.831
     9   7 n    3.609 --     4 c    0.976    11 h    0.847    12 h    0.834
                            10 h    0.813
    10   1 h    0.917 --     9 n    0.813
    11   1 h    0.921 --     9 n    0.847
    12   1 h    0.918 --     9 n    0.834
    13   8 o    1.864 --    15 h    0.879    14 h    0.878
    14   1 h    0.881 --    13 o    0.878
    15   1 h    0.881 --    13 o    0.879
    16   8 o    1.892 --    17 h    0.885    18 h    0.847
    17   1 h    0.889 --    16 o    0.885
    18   1 h    0.879 --    16 o    0.847
    19   8 o    1.827 --    20 h    0.888    21 h    0.886
    20   1 h    0.894 --    19 o    0.888
    21   1 h    0.892 --    19 o    0.886
    22   8 o    1.841 --    24 h    0.884    23 h    0.883
    23   1 h    0.885 --    22 o    0.883
    24   1 h    0.885 --    22 o    0.884
    25   8 o    1.861 --    27 h    0.891    26 h    0.859
    26   1 h    0.884 --    25 o    0.859
    27   1 h    0.896 --    25 o    0.891
    28   8 o    1.820 --    30 h    0.891    29 h    0.888
    29   1 h    0.894 --    28 o    0.888
    30   1 h    0.895 --    28 o    0.891
 ---------------------------------------------------------------------------

Topologies differ in total number of bonds
Writing topology from bond orders to xtbtopo.mol

molecular dipole:
                 x           y           z       tot (Debye)
 q only:        0.533      -0.296      -0.047
   full:       -0.284      -0.383      -0.013       1.211
molecular quadrupole (traceless):
                xx          xy          yy          xz          yz          zz
 q only:       32.126       0.965     -16.878       1.802      -0.785     -15.247
  q+dip:       36.585       1.747     -19.668       2.421      -1.433     -16.917
   full:       37.738       1.461     -19.589       2.394      -1.629     -18.148


           -------------------------------------------------
          | TOTAL ENERGY              -45.526516712297 Eh   |
          | GRADIENT NORM               0.038393485618 Eh/α |
          | HOMO-LUMO GAP               9.952134297033 eV   |
           -------------------------------------------------

------------------------------------------------------------------------
 * finished run on 2022/10/27 at 18:08:43.554     
------------------------------------------------------------------------
 total:
 * wall-time:     0 d,  0 h,  0 min,  0.299 sec
 *  cpu-time:     0 d,  0 h,  0 min,  3.438 sec
 * ratio c/w:    11.487 speedup
 SCF:
 * wall-time:     0 d,  0 h,  0 min,  0.025 sec
 *  cpu-time:     0 d,  0 h,  0 min,  0.545 sec
 * ratio c/w:    21.430 speedup

