30
 energy: -45.408787451520 gnorm: 0.040084483836 xtb: 6.5.1 (579679a)
h           -0.54250542236797       -1.15979968239695        0.91808737922246
c           -0.61125101768967       -0.54129568518002        0.01007491846514
h           -0.53913085058113       -1.19691447165356       -0.87124367806879
c            0.51036587524963        0.50378784395978       -0.00948718411966
h            0.39110985371409        1.15189243103056        0.86009664670295
h            0.39443993020508        1.11526701862859       -0.90564118157743
o           -1.78918255390479        0.21002581361451       -0.00773070418283
h           -2.56465822815856       -0.36207477160767        0.00267346025182
n            1.86374215708766       -0.11727809731927        0.00594752104846
h            1.98712725504032       -0.72370378895708       -0.81631063916515
h            1.98397883773239       -0.68907633476970        0.85310417775158
h            2.59308294202115        0.60724004426223       -0.00770513808498
o            4.12091348827393        1.20776647624714        0.14524720822449
h            4.67948389095120        0.95251404132836       -0.59173091530107
h            4.54384211483590        0.90040097006319        0.94965076629422
o            1.63775278045416       -1.50629514915011       -2.18533382225134
h            1.15126133728927       -2.28901279923186       -1.92122866615405
h            1.01223316278818       -0.94759567408461       -2.67767877787282
o           -0.57664349750093        0.02603235998491       -2.87664388161319
h           -1.44299092922351       -0.37777937845062       -2.79017684823563
h           -0.71788131439707        0.96876948252049       -2.77290620713808
o           -4.07239299927534       -1.12299468861195       -0.30906466202573
h           -4.61138101646941       -1.00158578547575        0.47555705547940
h           -4.50404643752785       -0.64399812005162       -1.01978165218786
o            1.46173041338507       -0.99327677264662        2.47481624529393
h            1.20320058547039       -0.16876418244260        2.89320012397730
h            0.71529604113691       -1.59215363768457        2.54434606354280
o           -0.84647086616707        1.07289235816022        2.71859123767729
h           -0.96714252927158        1.91139930146623        2.26866540811997
h           -1.69327837440238        0.62238354685721        2.71168825571761
30
 energy: -45.409711893133 gnorm: 0.039662937987 xtb: 6.5.1 (579679a)
h           -0.54250542236797       -1.15979968239694        0.91808737922248
c           -0.61125101768969       -0.54129568517997        0.01007491846514
h           -0.53913085058114       -1.19691447165355       -0.87124367806882
c            0.51036587524963        0.50378784395977       -0.00948718411962
h            0.39110985371410        1.15189243103059        0.86009664670292
h            0.39443993020509        1.11526701862858       -0.90564118157742
o           -1.78918255390479        0.21002581361454       -0.00773070418282
h           -2.56465822815858       -0.36207477160764        0.00267346025180
n            1.86374215708766       -0.11727809731929        0.00594752104854
h            1.98712725504033       -0.72370378895708       -0.81631063916513
h            1.98397883773238       -0.68907633476970        0.85310417775162
h            2.59308294202116        0.60724004426221       -0.00770513808497
o            4.13766829132277        1.20325480877677        0.14093754057002
h            4.70821129492086        0.95988180872358       -0.59162181488640
h            4.56508522319989        0.91437534263065        0.95073070536119
o            1.63741864433368       -1.51348954739586       -2.19896467228160
h            1.16863224558407       -2.31847981909132       -1.96571730824058
h            1.00672298943975       -0.96050404997704       -2.69158510192009
o           -0.57981419245247        0.02842967646683       -2.90812465633790
h           -1.44799808672766       -0.37195732074203       -2.82090929898106
h           -0.71716492367295        0.97301891204456       -2.81288034296047
o           -4.08788025224837       -1.10564186155870       -0.29863523745695
h           -4.65011730447092       -1.00931030070004        0.47393617845130
h           -4.52730035558965       -0.65030595060831       -1.02128948928682
o            1.46630674001371       -0.98339043467027        2.49007814665962
h            1.15571709954208       -0.15842595308073        2.88066223222451
h            0.74916665595515       -1.61581758978517        2.57907268773696
o           -0.80572334593963        1.02772129445179        2.62132224797325
h           -0.98877571521159        1.92178806424069        2.29217482911883
h           -1.66845043018035        0.60640934592490        2.70062962130945
30
 energy: -45.410121796910 gnorm: 0.039275851232 xtb: 6.5.1 (579679a)
h           -0.54250542236797       -1.15979968239693        0.91808737922250
c           -0.61125101768970       -0.54129568517995        0.01007491846513
h           -0.53913085058114       -1.19691447165355       -0.87124367806883
c            0.51036587524962        0.50378784395977       -0.00948718411961
h            0.39110985371411        1.15189243103061        0.86009664670291
h            0.39443993020510        1.11526701862858       -0.90564118157742
o           -1.78918255390480        0.21002581361456       -0.00773070418282
h           -2.56465822815859       -0.36207477160762        0.00267346025180
n            1.86374215708765       -0.11727809731931        0.00594752104859
h            1.98712725504034       -0.72370378895708       -0.81631063916513
h            1.98397883773238       -0.68907633476970        0.85310417775165
h            2.59308294202116        0.60724004426220       -0.00770513808497
o            4.15439363942992        1.19788373351298        0.13512556303726
h            4.73598829780897        0.96240351625703       -0.59180165996325
h            4.58414544349998        0.92697922574173        0.95069519324274
o            1.63577857195834       -1.51852266465298       -2.20888243539798
h            1.17363440805233       -2.32970197192172       -1.98414215360430
h            1.00309162117150       -0.96829318571053       -2.70171791827523
o           -0.58205919574013        0.02710152505022       -2.93241500865051
h           -1.45238344399415       -0.36797896938966       -2.84042358327263
h           -0.71223783791663        0.97306358455423       -2.83896147711583
o           -4.10730681327936       -1.08990460415557       -0.28729915840849
h           -4.68989022352244       -1.01253355695136        0.47353362594401
h           -4.55074889216072       -0.65499724510582       -1.02132353911598
o            1.47043872589750       -0.96708135800987        2.50414846285898
h            1.09360034923799       -0.14061397851377        2.85326500491131
h            0.77862678290999       -1.62954528356377        2.58748111560565
o           -0.80773179419079        1.04032443145333        2.67094557138167
h           -0.98768624021649        1.88465905373644        2.26078044844019
h           -1.64048270027438        0.56951758166427        2.66726023599235
30
 energy: -45.410447853972 gnorm: 0.037641985881 xtb: 6.5.1 (579679a)
h           -0.54250542236797       -1.15979968239693        0.91808737922250
c           -0.61125101768970       -0.54129568517994        0.01007491846513
h           -0.53913085058114       -1.19691447165355       -0.87124367806883
c            0.51036587524963        0.50378784395976       -0.00948718411960
h            0.39110985371411        1.15189243103062        0.86009664670290
h            0.39443993020510        1.11526701862857       -0.90564118157741
o           -1.78918255390480        0.21002581361457       -0.00773070418282
h           -2.56465822815859       -0.36207477160762        0.00267346025179
n            1.86374215708765       -0.11727809731931        0.00594752104861
h            1.98712725504034       -0.72370378895708       -0.81631063916512
h            1.98397883773238       -0.68907633476970        0.85310417775166
h            2.59308294202116        0.60724004426220       -0.00770513808496
o            4.15641416920063        1.19472887425324        0.13170185835021
h            4.74174334458361        0.95654533389397       -0.59055047701075
h            4.58376396081287        0.93157923356740        0.95052351424662
o            1.63385500891124       -1.51641898247375       -2.20445477957002
h            1.16051382045643       -2.31048124928730       -1.95583431510629
h            1.00583497428693       -0.96552199224439       -2.70146073416182
o           -0.58008477582463        0.01973937283717       -2.91475292056577
h           -1.45413999926507       -0.36936837823606       -2.83441681684281
h           -0.70547008855621        0.96696081222647       -2.82907157808505
o           -4.11602272638822       -1.08601026792360       -0.28221288913490
h           -4.70068363504359       -1.00681995197736        0.47506877441658
h           -4.55721365972556       -0.65564690744030       -1.01931139894537
o            1.45643431970245       -0.94573112615491        2.49659953476218
h            1.06394915388626       -0.13392827837449        2.85555886145116
h            0.77475046114070       -1.61798859903992        2.57036098697288
o           -0.79864059316517        1.03532356200978        2.67720937675021
h           -1.00560054954625        1.88441207717171        2.28233395485507
h           -1.62081988613877        0.54264443309800        2.66656865166661
30
 energy: -45.410643328124 gnorm: 0.037867369053 xtb: 6.5.1 (579679a)
h           -0.54250542236797       -1.15979968239693        0.91808737922251
c           -0.61125101768971       -0.54129568517993        0.01007491846513
h           -0.53913085058114       -1.19691447165354       -0.87124367806884
c            0.51036587524962        0.50378784395976       -0.00948718411959
h            0.39110985371412        1.15189243103063        0.86009664670289
h            0.39443993020511        1.11526701862857       -0.90564118157741
o           -1.78918255390480        0.21002581361457       -0.00773070418281
h           -2.56465822815860       -0.36207477160761        0.00267346025179
n            1.86374215708765       -0.11727809731932        0.00594752104863
h            1.98712725504035       -0.72370378895708       -0.81631063916512
h            1.98397883773238       -0.68907633476970        0.85310417775167
h            2.59308294202117        0.60724004426220       -0.00770513808496
o            4.15828789626561        1.18975088601629        0.12510847286518
h            4.74911329626996        0.94286279190354       -0.58879504598525
h            4.57976557941607        0.93946497602058        0.95039402901339
o            1.63419928876977       -1.51793589633860       -2.20220478210480
h            1.16206054337800       -2.31332816456867       -1.95367313716462
h            1.00655096804840       -0.96934411625723       -2.70164867171949
o           -0.57953583387999        0.00878444957613       -2.90676583997528
h           -1.45762079401726       -0.37111105876840       -2.82750578341389
h           -0.69458113720158        0.95737887466116       -2.82400759199721
o           -4.12729738881791       -1.07808121111321       -0.27310211704573
h           -4.71510740189610       -0.99444808872524        0.47915517741669
h           -4.56508380594642       -0.65582630694655       -1.01581161224636
o            1.43783427797877       -0.91400691582949        2.49837351573140
h            1.00452006602021       -0.11801394871309        2.84945553482487
h            0.78642062756752       -1.61785262537683        2.57817647265433
o           -0.78258651131662        1.01449116959163        2.67926620350812
h           -1.02525204045104        1.87163978139939        2.31109483636908
h           -1.59474563401215        0.50125094675785        2.66977477331360
30
 energy: -45.410795269496 gnorm: 0.037185240914 xtb: 6.5.1 (579679a)
h           -0.54250542236797       -1.15979968239693        0.91808737922251
c           -0.61125101768971       -0.54129568517992        0.01007491846513
h           -0.53913085058114       -1.19691447165354       -0.87124367806885
c            0.51036587524963        0.50378784395976       -0.00948718411958
h            0.39110985371412        1.15189243103063        0.86009664670289
h            0.39443993020511        1.11526701862857       -0.90564118157741
o           -1.78918255390480        0.21002581361458       -0.00773070418281
h           -2.56465822815860       -0.36207477160760        0.00267346025178
n            1.86374215708765       -0.11727809731932        0.00594752104865
h            1.98712725504035       -0.72370378895708       -0.81631063916511
h            1.98397883773237       -0.68907633476970        0.85310417775168
h            2.59308294202117        0.60724004426219       -0.00770513808496
o            4.15696756116910        1.18693656556900        0.11659805016053
h            4.75292362416054        0.92475905837265       -0.58731545410696
h            4.56992550624177        0.95143692653934        0.95036180904646
o            1.63606001614516       -1.52055218077283       -2.19881540964965
h            1.16676202495777       -2.31923117886457       -1.95207180658947
h            1.00677995203043       -0.97406348190630       -2.69851047553748
o           -0.58117024996637       -0.00316633020577       -2.90887609416295
h           -1.46234875351873       -0.37371030891128       -2.82144897941676
h           -0.68456594098333        0.94663328101152       -2.82596725556690
o           -4.13398414537290       -1.07058858028245       -0.26247553862520
h           -4.72317549046661       -0.97762514806619        0.48632093381985
h           -4.56803335926466       -0.65680841228665       -1.01144097768788
o            1.41603950858331       -0.88931211913721        2.50322013137413
h            0.96219353270530       -0.10418483296655        2.84227197811747
h            0.78232362269763       -1.60417100178778        2.58631416990339
o           -0.77389720567190        0.98034461237452        2.68947104763061
h           -1.02447277773998        1.83840687233465        2.33205871755927
h           -1.58576684126495        0.46652167933286        2.67878765050499
30
 energy: -45.410877052900 gnorm: 0.038070582991 xtb: 6.5.1 (579679a)
h           -0.54250542236797       -1.15979968239692        0.91808737922252
c           -0.61125101768972       -0.54129568517990        0.01007491846513
h           -0.53913085058114       -1.19691447165354       -0.87124367806886
c            0.51036587524962        0.50378784395976       -0.00948718411957
h            0.39110985371412        1.15189243103065        0.86009664670288
h            0.39443993020512        1.11526701862857       -0.90564118157740
o           -1.78918255390480        0.21002581361460       -0.00773070418281
h           -2.56465822815861       -0.36207477160759        0.00267346025178
n            1.86374215708765       -0.11727809731933        0.00594752104869
h            1.98712725504036       -0.72370378895708       -0.81631063916510
h            1.98397883773237       -0.68907633476971        0.85310417775170
h            2.59308294202117        0.60724004426219       -0.00770513808495
o            4.15626964271245        1.18457182290567        0.10599542505948
h            4.75794007755497        0.90069976278229       -0.58556102193417
h            4.55884216052032        0.96857334272033        0.95074811444478
o            1.63783921480990       -1.52573962199896       -2.19397969506944
h            1.17075451759843       -2.32467158583418       -1.94363111126351
h            1.00592123353639       -0.98252759775322       -2.69443321035246
o           -0.58353402114165       -0.01690138548398       -2.91392725842959
h           -1.46899507954904       -0.37601323606982       -2.82066854922272
h           -0.67433765938957        0.93496034097299       -2.83752713245556
o           -4.13878579470657       -1.05953376165050       -0.24859799381714
h           -4.73039344295180       -0.95218324097658        0.49684201492230
h           -4.56870690490759       -0.65775044170741       -1.00682937748000
o            1.40384851270217       -0.86404820661195        2.51646871210828
h            0.89798187973214       -0.08898649538717        2.82270782410937
h            0.80397000427900       -1.61019204132039        2.60164121664041
o           -0.77610968301463        0.94417696544581        2.71064003863908
h           -1.02318544054534        1.80145579843966        2.35856274575197
h           -1.58823203113802        0.43141804139925        2.68993793819635
30
 energy: -45.410944750698 gnorm: 0.037466618852 xtb: 6.5.1 (579679a)
h           -0.54250542236797       -1.15979968239692        0.91808737922253
c           -0.61125101768972       -0.54129568517989        0.01007491846513
h           -0.53913085058115       -1.19691447165354       -0.87124367806886
c            0.51036587524962        0.50378784395976       -0.00948718411957
h            0.39110985371413        1.15189243103065        0.86009664670287
h            0.39443993020512        1.11526701862856       -0.90564118157740
o           -1.78918255390480        0.21002581361460       -0.00773070418281
h           -2.56465822815861       -0.36207477160759        0.00267346025177
n            1.86374215708765       -0.11727809731934        0.00594752104870
h            1.98712725504036       -0.72370378895708       -0.81631063916510
h            1.98397883773237       -0.68907633476971        0.85310417775171
h            2.59308294202117        0.60724004426219       -0.00770513808495
o            4.15432873443365        1.18709506455383        0.10354923029325
h            4.75530451108480        0.89304766467567       -0.58480980421851
h            4.55364025227700        0.97555864424290        0.95069959452962
o            1.63945664782924       -1.53038774554889       -2.19161874666345
h            1.17659464266889       -2.33292687955032       -1.94355576419949
h            1.00450622432148       -0.99037335993513       -2.69243159104060
o           -0.58379621243242       -0.02158935169493       -2.91653724250403
h           -1.47024363214891       -0.37809819972030       -2.82323319101847
h           -0.67281739994430        0.93073828938752       -2.84459997488977
o           -4.13494138848501       -1.05803596665403       -0.24463458136490
h           -4.72396659981713       -0.93880663375338        0.50252401999394
h           -4.56322730925882       -0.65840957709500       -1.00528214024751
o            1.40606781807367       -0.87259406459863        2.51640844366263
h            0.91099571817258       -0.09917017322239        2.82348971212580
h            0.80337742451601       -1.61076130698043        2.60295645482767
o           -0.79088051627137        0.93863969383669        2.72077823861432
h           -1.02708667753808        1.79577495373177        2.36499740340955
h           -1.60286563975240        0.42640616785969        2.69495690056324
30
 energy: -45.410996460087 gnorm: 0.037339883227 xtb: 6.5.1 (579679a)
h           -0.54250542236797       -1.15979968239692        0.91808737922254
c           -0.61125101768973       -0.54129568517988        0.01007491846512
h           -0.53913085058115       -1.19691447165353       -0.87124367806887
c            0.51036587524962        0.50378784395975       -0.00948718411955
h            0.39110985371413        1.15189243103067        0.86009664670286
h            0.39443993020513        1.11526701862856       -0.90564118157739
o           -1.78918255390480        0.21002581361461       -0.00773070418281
h           -2.56465822815862       -0.36207477160757        0.00267346025177
n            1.86374215708765       -0.11727809731935        0.00594752104873
h            1.98712725504036       -0.72370378895708       -0.81631063916509
h            1.98397883773237       -0.68907633476971        0.85310417775172
h            2.59308294202118        0.60724004426218       -0.00770513808495
o            4.15497922115981        1.18819678446411        0.10107297026253
h            4.75656554302365        0.88733718105105       -0.58369802690531
h            4.55263436845098        0.98322263465563        0.95037004424111
o            1.64010866827243       -1.53604695807160       -2.18898593966499
h            1.17888094556977       -2.33835225760279       -1.93799975618002
h            1.00358582665924       -0.99890595450920       -2.69104390042354
o           -0.58290228976943       -0.02748530416681       -2.91845002587993
h           -1.47052911100929       -0.38069919716758       -2.82432027497231
h           -0.66862057996300        0.92495095582323       -2.84688346941473
o           -4.13609377068648       -1.05512782354109       -0.23911263445594
h           -4.72249109315478       -0.92400909754779        0.50890858582675
h           -4.56287260385530       -0.65834438047600       -1.00210573152858
o            1.40901304664957       -0.87267224526501        2.51408134372193
h            0.90039539324109       -0.10701135579404        2.82078309582984
h            0.81512515533619       -1.61949663790948        2.59261247090174
o           -0.79864272771454        0.92690869272703        2.71585511032792
h           -1.03488050501857        1.78652941264089        2.36331566241275
h           -1.61038013192170        0.41574733198741        2.69841816102647
30
 energy: -45.411033637777 gnorm: 0.038744690892 xtb: 6.5.1 (579679a)
h           -0.54250542236798       -1.15979968239690        0.91808737922259
c           -0.61125101768977       -0.54129568517978        0.01007491846511
h           -0.53913085058116       -1.19691447165352       -0.87124367806892
c            0.51036587524962        0.50378784395974       -0.00948718411949
h            0.39110985371415        1.15189243103074        0.86009664670280
h            0.39443993020516        1.11526701862854       -0.90564118157737
o           -1.78918255390481        0.21002581361469       -0.00773070418279
h           -2.56465822815866       -0.36207477160751        0.00267346025174
n            1.86374215708764       -0.11727809731940        0.00594752104892
h            1.98712725504039       -0.72370378895707       -0.81631063916505
h            1.98397883773235       -0.68907633476971        0.85310417775182
h            2.59308294202119        0.60724004426215       -0.00770513808492
o            4.15719302635835        1.19106347422247        0.08675025821742
h            4.76648393016005        0.85794141329542       -0.57697095023054
h            4.54494820209480        1.02384976204692        0.94955526149873
o            1.64293849372454       -1.56438676339145       -2.17263011991080
h            1.18567921611641       -2.36187628491564       -1.90252714841970
h            1.00219364777113       -1.04018348186613       -2.68312617300216
o           -0.57588949197509       -0.06196933862454       -2.91696725583047
h           -1.47204019739341       -0.39461380680338       -2.82547071209900
h           -0.64191473561412        0.89315871203345       -2.85804514947481
o           -4.14831280941179       -1.03857038772680       -0.20797361026191
h           -4.72321057911019       -0.85128630581612        0.54130006322080
h           -4.56983923815772       -0.66101256400168       -0.98406838686950
o            1.41668441476860       -0.87237782905317        2.50571850376744
h            0.84503255546616       -0.14614183366822        2.80977846334782
h            0.87519053953261       -1.66791692843614        2.56676674587970
o           -0.83850457652169        0.87042830448893        2.71370652480770
h           -1.07372039718546        1.73355860661034        2.36435682476166
h           -1.64720657405112        0.35564499545652        2.71621614824377
30
 energy: -45.411096180829 gnorm: 0.037560274127 xtb: 6.5.1 (579679a)
h           -0.54250542236798       -1.15979968239690        0.91808737922259
c           -0.61125101768977       -0.54129568517977        0.01007491846511
h           -0.53913085058116       -1.19691447165352       -0.87124367806893
c            0.51036587524962        0.50378784395973       -0.00948718411948
h            0.39110985371416        1.15189243103074        0.86009664670279
h            0.39443993020517        1.11526701862854       -0.90564118157737
o           -1.78918255390481        0.21002581361469       -0.00773070418279
h           -2.56465822815866       -0.36207477160750        0.00267346025173
n            1.86374215708764       -0.11727809731940        0.00594752104894
h            1.98712725504040       -0.72370378895707       -0.81631063916504
h            1.98397883773235       -0.68907633476971        0.85310417775183
h            2.59308294202120        0.60724004426214       -0.00770513808492
o            4.15718984187158        1.19118539590434        0.08887465503525
h            4.76599335044518        0.86438460408784       -0.57681044723857
h            4.54662313652610        1.01958629664846        0.94867249556100
o            1.64294957565317       -1.56593402300820       -2.17150619487321
h            1.18426966763107       -2.36197166995057       -1.89956253660018
h            1.00343177771599       -1.04116814713281       -2.68250337622384
o           -0.57424261792308       -0.06271301346638       -2.91859379543217
h           -1.46963470550324       -0.39635808205948       -2.82524678906468
h           -0.64073751063524        0.89200107477616       -2.85740744208587
o           -4.15033041246620       -1.03788668564438       -0.20824975472184
h           -4.72473446418894       -0.85704923003136        0.54069081199157
h           -4.57537324519506       -0.66008164591356       -0.98173094190599
o            1.41861889677112       -0.88143766776482        2.50683380299407
h            0.85701372856809       -0.14774305559496        2.80565622930039
h            0.86520833961921       -1.66189620505410        2.56083873363958
o           -0.83827528270683        0.86997486466221        2.71156732717744
h           -1.07530366935868        1.73383841273448        2.36338807249248
h           -1.64860041602455        0.35755846525126        2.71706186718632
30
 energy: -45.411118013405 gnorm: 0.037347025320 xtb: 6.5.1 (579679a)
h           -0.54250542236798       -1.15979968239690        0.91808737922259
c           -0.61125101768978       -0.54129568517975        0.01007491846511
h           -0.53913085058116       -1.19691447165351       -0.87124367806894
c            0.51036587524962        0.50378784395973       -0.00948718411946
h            0.39110985371416        1.15189243103075        0.86009664670279
h            0.39443993020517        1.11526701862854       -0.90564118157736
o           -1.78918255390481        0.21002581361470       -0.00773070418279
h           -2.56465822815867       -0.36207477160749        0.00267346025172
n            1.86374215708764       -0.11727809731941        0.00594752104898
h            1.98712725504040       -0.72370378895707       -0.81631063916503
h            1.98397883773234       -0.68907633476972        0.85310417775185
h            2.59308294202120        0.60724004426214       -0.00770513808491
o            4.15609141151509        1.19053980415683        0.08809600223425
h            4.76706716789246        0.86470574767506       -0.57601396799857
h            4.54415101678465        1.02054994455783        0.94890160972086
o            1.64363951606221       -1.56873902040909       -2.16891936252471
h            1.18513876273792       -2.36530448247752       -1.89709641881068
h            1.00481632854721       -1.04447984764050       -2.68110714839810
o           -0.57249518171140       -0.06637644411113       -2.92050485763207
h           -1.46790073777390       -0.39900542790075       -2.82511339488390
h           -0.63745888174768        0.88842624006231       -2.86026573913484
o           -4.15348577896011       -1.03527826406362       -0.20476538516307
h           -4.72921243610714       -0.85987376713155        0.54220685942543
h           -4.58154250214505       -0.66097313921833       -0.97825558769369
o            1.41274218255884       -0.88256484959462        2.50437999053547
h            0.85769038275119       -0.15068579162030        2.80903936042488
h            0.86151237007772       -1.66356855935393        2.56599677609274
o           -0.83705555468120        0.86426276926789        2.71788241494138
h           -1.07318623074410        1.72648249828014        2.36829872863167
h           -1.64965389297201        0.35534280662350        2.72050029305872
30
 energy: -45.411135762465 gnorm: 0.037336950207 xtb: 6.5.1 (579679a)
h           -0.54250542236798       -1.15979968239689        0.91808737922261
c           -0.61125101768979       -0.54129568517971        0.01007491846510
h           -0.53913085058117       -1.19691447165351       -0.87124367806896
c            0.51036587524962        0.50378784395972       -0.00948718411943
h            0.39110985371417        1.15189243103077        0.86009664670277
h            0.39443993020519        1.11526701862853       -0.90564118157735
o           -1.78918255390481        0.21002581361473       -0.00773070418279
h           -2.56465822815868       -0.36207477160746        0.00267346025170
n            1.86374215708764       -0.11727809731943        0.00594752104905
h            1.98712725504041       -0.72370378895706       -0.81631063916502
h            1.98397883773233       -0.68907633476972        0.85310417775188
h            2.59308294202120        0.60724004426212       -0.00770513808489