612
 energy: -1033.446156164298 gnorm: 0.000253393732 xtb: 6.5.1 (579679a)
H           -2.54449973500000       -0.63076591470000       -1.00188804550000
C           -1.59030801480000       -0.59102422500000       -1.52120273640000
H           -1.64974562090000       -1.17195102410000       -2.43820297830000
C           -0.49645701010000       -1.17483114990000       -0.63778650340000
H            0.44094927670000       -1.17951831890000       -1.18366734160000
H           -0.77235933600000       -2.18582588630000       -0.35639113010000
O           -1.30541517210000        0.74371380650000       -1.88758287710000
H           -1.49441338350000        1.30646878290000       -1.10332018990000
N           -0.32756503350000       -0.36804774350000        0.57821607940000
H           -0.06752939080000        0.59028792590000        0.33873606610000
H            0.41191746530000       -0.78068395320000        1.20476808140000
H           -1.23080676920000       -0.34052611210000        1.11551122890000
O            3.13337705640000        6.30329588520000        4.69848604120000
H            2.61840726460000        5.50456309920000        4.91425201530000
H            3.97872335180000        5.95409682920000        4.36710399050000
O            2.97679691420000        2.36905362190000       -4.38566368560000
H            3.07056608890000        3.04184273230000       -5.07838447610000
H            2.41751149760000        2.78629593550000       -3.70729770220000
O            8.62178007860000        3.51406970550000        0.34115123820000
H            7.66435402590000        3.32512702470000        0.49063962550000
H            8.91174411220000        3.99576976510000        1.12875326160000
O           -3.05700324390000        1.64473967200000        3.46084067730000
H           -3.31709039360000        2.42878032370000        2.94350490950000
H           -2.77595564910000        0.96719709730000        2.80878695460000
O           -4.82811633950000        1.39028144750000        0.18586639180000
H           -5.51225722940000        0.77187003700000        0.50163990660000
H           -5.06931605780000        1.57653348220000       -0.73303486150000
O           -2.23128206010000       -4.74108880580000       -5.79023749670000
H           -1.27225632240000       -4.67788844890000       -5.64524981500000
H           -2.40049536090000       -4.32079302770000       -6.63404018790000
O            2.54585294060000        1.34229283060000        0.93199291090000
H            3.14908481900000        0.86677906050000        1.52498858980000
H            2.21187370500000        2.08271396720000        1.46822210310000
O            4.34063895450000        7.44913234390000        1.26184636350000
H            5.23530569230000        7.62307919760000        1.56081921250000
H            4.24628926860000        6.46782008540000        1.31640885510000
O            1.48192237090000       -1.24593065230000        2.31539289030000
H            1.50265079430000       -2.20788507690000        2.50297983170000
H            2.41242444720000       -0.97430770060000        2.24846139070000
O           -0.99951883640000       -2.66686163110000       -4.10213617340000
H           -0.44822174480000       -3.18204785820000       -3.49549896200000
H           -1.92233962140000       -2.92015393900000       -3.93358976880000
O            1.82283031320000        4.06446926790000       -2.61970778860000
H            2.32786065880000        4.75024709600000       -3.10024083290000
H            2.42938010510000        3.71837278370000       -1.92890220680000
O            5.82552655170000        3.21810484290000       -1.86622251760000
H            6.05936191610000        4.05057278880000       -1.40236411430000
H            5.69785321740000        3.47696803770000       -2.79837718680000
O           -2.67658314440000       -0.41091849020000        1.88174353530000
H           -2.73720022780000       -0.99928467470000        2.66608687910000
H           -3.36297095840000       -0.70306934060000        1.25176823580000
O           -0.25996738690000        0.61589486150000        6.47810746720000
H           -0.14375149920000        0.36417260440000        5.53231604580000
H           -1.19116472320000        0.90226925350000        6.51537443110000
O           -0.14547002890000        1.94585721360000        2.42408633160000
H           -0.54972570550000        1.20586225590000        2.90856533020000
H           -0.39531705880000        2.75359611730000        2.90940852920000
O            4.72946201050000       -1.73447111750000       -2.92412680810000
H            4.00147392120000       -2.38822634990000       -3.02233448870000
H            4.34234543450000       -0.85535147310000       -2.73246851800000
O           -3.03193603460000       -5.47861324140000        5.87409713480000
H           -3.01819303470000       -4.68129903480000        6.44720386170000
H           -3.92484391160000       -5.48211748910000        5.51185475000000
O           -0.09095100840000       -5.13963369840000        1.42226638540000
H            0.37916444630000       -5.67390726180000        2.08150615740000
H            0.58409594910000       -4.60062566690000        0.96915919800000
O            2.29059601580000       -1.44549138290000        4.92610639240000
H            1.47870438020000       -1.98739761280000        4.89543691720000
H            3.02725759630000       -2.00323920160000        4.63707527720000
O           -0.68714965440000       -1.97692860470000        7.22989927700000
H           -0.59560201410000       -1.01047661650000        7.16834071490000
H           -0.56172179270000       -2.29001059080000        6.30574327770000
O            4.26407249340000        2.42395066030000        3.01297499530000
H            5.03367188650000        1.92635543770000        3.30357959050000
H            3.48287768800000        2.01170727840000        3.43117632370000
O           -1.36680755860000        3.68351206930000       -1.93140426220000
H           -2.27673667010000        3.67473133650000       -1.58133148810000
H           -0.76632104640000        3.43456942660000       -1.20462329470000
O           -4.34749806170000        3.36323713330000        1.90169255240000
H           -3.65163170690000        3.89795091010000        1.49334569530000
H           -4.62151952770000        2.69772607310000        1.23356683880000
O           -2.76879550040000       -3.50758849200000        0.65238785190000
H           -3.41731950460000       -2.80849395050000        0.43208532410000
H           -3.04991646750000       -3.89419682050000        1.49919279590000
O            1.49149314770000       -1.29427553690000       -3.40523375240000
H            1.64433392810000       -0.53104923850000       -2.82772538930000
H            1.80825885730000       -2.08955639710000       -2.95427432980000
O            7.69768753410000        1.29178925610000       -1.76370388270000
H            8.45760677340000        1.70669792190000       -2.20958751520000
H            6.98574213190000        1.96259897240000       -1.78982752930000
O           -2.15218369220000        1.90156206920000        0.32776101130000
H           -3.08992930800000        1.65744485620000        0.30601610090000
H           -2.08750811090000        2.81869558880000        0.63010834440000
O            1.61628027580000        1.09306500020000       -1.99464812890000
H            1.31798214550000        1.63786495750000       -1.25151746230000
H            2.59115161450000        1.11826674820000       -2.02294759700000
O            1.87624944590000       -2.64009730530000        7.75403246910000
H            0.90081824870000       -2.56356758700000        7.77531829740000
H            2.17757652800000       -1.71807926080000        7.68080684970000
O           -3.20766300100000       -4.19327084280000        3.23529742610000
H           -4.06526739160000       -4.33890618690000        3.67366757530000
H           -2.68780050280000       -4.99424611660000        3.38729191010000
O            1.01237483210000       -1.44751859040000       -7.89572480160000
H            0.14223552650000       -1.81984181410000       -7.63994135760000
H            0.87493745390000       -0.50244037930000       -7.99452675390000
O            3.48654630440000        6.78497081170000       -1.23437104300000
H            2.56770425490000        6.51225859590000       -1.05125248890000
H            3.74454879920000        7.32943341970000       -0.47478151210000
O            0.18412137290000        3.88521075450000       -5.85636977790000
H            0.19500279030000        3.25652293270000       -6.61790992040000
H            0.26217471180000        3.31130655020000       -5.05811539980000
O            6.19198785390000       -3.93338772270000       -5.39252525020000
H            5.86867518850000       -3.25499179680000       -5.99991044690000
H            7.08690171140000       -3.64143565790000       -5.11240727480000
O           -2.31921898080000       -4.76955521380000       -1.65413594600000
H           -2.54532662910000       -4.42252137840000       -0.76948368790000
H           -1.37847875040000       -4.52490455780000       -1.79258481380000
O           -9.05734332530000       -3.00150674480000        2.46329937050000
H           -9.97326778080000       -2.92328384490000        2.13828927820000
H           -8.55224873280000       -3.22662514160000        1.64636521660000
O           -7.98675282920000       -3.70901775030000        0.16470714970000
H           -7.45277883090000       -4.50020773880000        0.00807735470000
H           -7.63306300350000       -3.01318984800000       -0.45291480580000
O           -0.80164948050000       -2.63076282800000        2.26525997600000
H           -0.30898309700000       -3.45616337320000        2.15667704920000
H           -1.58078343250000       -2.76628229170000        1.70418225790000
O            0.01166304510000        2.25726349830000       -3.77912836010000
H            0.65932695650000        1.83240697950000       -3.17662747240000
H           -0.53649912880000        2.79874204090000       -3.18531089250000
O           -1.06302825740000        6.19438516500000       -2.81712199230000
H           -1.94407756840000        6.53456837130000       -2.97535357220000
H           -1.17365212420000        5.25592298830000       -2.55024380650000
O           -5.25653841950000       -1.87521324470000        2.84717735550000
H           -5.20755047590000       -2.65424332660000        2.26880690690000
H           -5.94856392540000       -2.08313484200000        3.49034110030000
O            6.39141119470000        3.23273566250000        5.87152394370000
H            6.90670468820000        2.55601299650000        6.35507742570000
H            5.46533460070000        3.02697403640000        6.08697338690000
O           -5.02924546470000       -6.13062322650000       -2.46203061050000
H           -4.44841797150000       -6.63897000750000       -1.85122228670000
H           -5.87210826290000       -6.58166829730000       -2.52828426030000
O            4.06578169490000        4.81039756940000        1.18821610520000
H            3.40922673490000        4.39268064620000        1.78663230590000
H            3.81544645270000        4.46950173810000        0.30729926490000
O            4.27858223570000        0.75505669170000       -2.11072808700000
H            4.81525280050000        0.80464863150000       -1.30335442950000
H            4.77781506360000        1.20783235950000       -2.82373295300000
O           -0.42662415090000       -5.50133138240000        5.09155375400000
H           -0.33648543040000       -6.06134990250000        4.31445600920000
H           -1.35241462980000       -5.56088104510000        5.39853165250000
O           -5.54000301620000       -4.79601974050000        4.54600788530000
H           -6.21322412840000       -5.20078066660000        3.96935725290000
H           -5.97499122110000       -4.03924631520000        4.95076774010000
O            3.95678650370000       -4.56849159130000       -0.61687726560000
H            4.44193903920000       -5.40963136290000       -0.66392992020000
H            4.60262444760000       -3.86356670380000       -0.49735863210000
O            2.82534563320000        4.41732127410000       -6.23110863180000
H            2.99783363870000        5.28988837490000       -5.86989574840000
H            1.85365809930000        4.31003858420000       -6.23514480050000
O            6.13022218170000        3.08128073380000        1.07478229620000
H            5.44521087580000        3.77594956890000        1.16930433180000
H            6.40517722480000        2.84942108170000        1.98695712140000
O            2.21285866440000       -2.45637852960000       -5.74957590220000
H            1.99011667500000       -1.91864150510000       -4.96397338660000
H            1.80944342970000       -2.01179322540000       -6.52899874470000
O           -3.11237949130000       -0.76744692990000       -4.57730765590000
H           -2.15043255860000       -0.76903803880000       -4.73235898280000
H           -3.54003501120000       -1.13707424380000       -5.37596960280000
O            0.53215116460000       -4.61992132000000       -5.72881184380000
H            0.88716584510000       -5.01368016680000       -6.52591407840000
H            1.04684117710000       -3.80281687490000       -5.57082329280000
O            1.97801246040000        3.87540402840000        4.96723467950000
H            2.74499668170000        3.32024027840000        5.20916481070000
H            1.36437965700000        3.72150339390000        5.72194884980000
O            0.48705391490000        1.92308645220000       -7.60080537490000
H            1.07862021640000        1.44044832310000       -6.98452770660000
H           -0.35535124180000        1.43215497490000       -7.60284247660000
O            3.43990506550000        3.18881398670000       -0.77715225860000
H            3.24144578270000        2.42089381160000       -0.20222003280000
H            4.32430529460000        3.05719300670000       -1.19003301380000
O           -2.04614941400000        4.07250270580000        6.02887949090000
H           -2.36999704290000        3.15015119090000        6.11313735120000
H           -2.82519577390000        4.64668204820000        5.98842689880000
O            3.86559238000000        2.21174290170000        5.99849208980000
H            3.29859569830000        1.71769730390000        6.60426046190000
H            4.22436319500000        1.54146441640000        5.38698177040000
O           -0.47277511010000       -0.12089946970000       -4.87853040960000
H           -0.09841709820000       -0.75657242190000       -4.24551318790000
H           -0.46978533780000        0.75294684160000       -4.43780178790000
O           -5.57228044310000       -3.91989364280000       -6.35708204860000
H           -5.19679030320000       -4.78275544010000       -6.08628631340000
H           -6.11579737560000       -3.64203664690000       -5.60655424370000
O           -1.33046963330000       -2.12687700450000       -6.79040380790000
H           -1.11301660540000       -2.34527681670000       -5.86231715530000
H           -1.46346733320000       -1.16158442280000       -6.81516219090000
O           -0.84575426440000       -6.98415084580000       -0.30485882750000
H           -0.12275745680000       -7.00056869740000       -0.93919910920000
H           -0.66794651530000       -6.21469108500000        0.28934964130000
O            7.69818272950000       -5.78547103730000        3.38519353390000
H            7.28062288930000       -5.81914588100000        2.50578355070000
H            8.17244335970000       -4.93640137920000        3.41060617450000
O            2.52575510340000       -6.92732581640000        0.60946835300000
H            2.97762444340000       -6.13530913460000        0.97216389420000
H            2.10439822720000       -6.67513578420000       -0.22919897380000
O           -5.57321839620000        0.75491355950000        3.03812233570000
H           -4.70237614520000        1.08543434080000        3.33262241910000
H           -5.42494001610000       -0.17492444630000        2.77424965570000
O            9.18298179240000        4.67105195830000        2.77252693350000
H            9.77537504470000        5.30248956250000        3.17914988850000
H            9.34044343690000        3.81453441760000        3.21015782810000
O            7.97827588550000        5.08766921490000       -4.70178760010000
H            7.01844305240000        5.05003244530000       -4.55058618300000
H            8.37011710840000        5.21105110930000       -3.82822525290000
O            8.57134114050000        4.98959601100000       -1.92344637010000
H            7.75471075030000        5.48271541700000       -1.76243817050000
H            8.68756439140000        4.48297059390000       -1.09646608860000
O           -4.36325190260000       -1.46987549950000        0.13747096400000
H           -4.48866609610000       -1.28930201350000       -0.81971535050000
H           -5.23496603440000       -1.31803998190000        0.53857365150000
O            4.90939006190000        2.67285335910000       -6.54235391930000
H            4.72722772760000        1.86668201090000       -7.04992115770000
H            4.23034444780000        3.30760632690000       -6.80451017560000
O           -0.46879883610000       -0.17868538810000        3.95125407850000
H            0.18762363450000       -0.69053898800000        3.44492826220000
H           -1.24358859380000       -0.75191599590000        4.07412588130000
O           -9.85400389460000        0.07468994520000       -0.15356970640000
H           -9.58798916290000        0.23196141970000        0.76413577030000
H          -10.63010189980000        0.63578705280000       -0.33653798440000
O           -6.65070615560000        2.56378085100000       -4.61101319980000
H           -6.21130357890000        1.99684746920000       -5.26354752910000
H           -7.55698438120000        2.20337561630000       -4.50696550670000
O            6.38408938420000       -5.47088351740000        1.02136578910000
H            6.12273342370000       -6.23908298060000        0.49181703180000
H            6.77781571890000       -4.83065183040000        0.39688082340000
O            6.11177445510000       -2.68660039160000        2.07073141790000
H            6.92923359560000       -3.19106999270000        2.16658723510000
H            5.88348550820000       -2.63022718920000        1.12959925520000
O           -5.41230885990000        3.35337963530000        4.51873385690000
H           -5.06572648060000        4.15343007600000        4.94660349210000
H           -5.10654009020000        3.40364150010000        3.59764803910000
O            1.94486870030000        3.69047050790000        2.27150017600000
H            1.99851802450000        3.61614816080000        3.23950361620000
H            1.35822547390000        4.45815728340000        2.09509525130000
O           -6.03484933250000        5.29847749420000        2.62580261860000
H           -6.88218619330000        5.74776231430000        2.85316922280000
H           -5.30064611680000        5.87096689600000        2.87399469750000
O           -2.02158590880000        4.52127994180000        1.30152621450000
H           -1.34398767710000        4.53845855550000        1.99582759450000
H           -1.84563751550000        5.29414789790000        0.70481047500000
O            0.57007858460000        5.85217582290000        1.73807014980000
H            0.62407405270000        5.90697918590000        0.76309050420000
H            1.20194753730000        6.54331273470000        2.08741976810000
O            1.80399812760000       -3.78894286760000        3.01281484910000
H            1.90851255250000       -3.97060864960000        3.95769064380000
H            2.59552115170000       -4.13361505170000        2.57389073830000
O            7.19900890030000       -0.44104976640000        3.06803281280000
H            7.57992638430000       -0.01222380650000        2.28891620850000
H            6.79805986700000       -1.27942868950000        2.76182425820000
O           -4.10836743190000       -1.78002536620000       -6.84221396180000
H           -3.23913712200000       -2.09159104330000       -7.12682418770000
H           -4.67010383580000       -2.58120865420000       -6.71480927290000
O           -8.81787438470000       -0.31681193210000        2.37786710850000
H           -8.95022146900000       -1.28517146630000        2.44891195130000
H           -8.38411949640000       -0.04458404720000        3.22525171670000
O            5.79541136880000        1.55350831700000       -4.17418382220000
H            5.24446479800000        1.90387446350000       -4.89052660080000
H            6.01986099300000        0.63036760890000       -4.43351659310000
O           -3.52376437970000        2.28107666550000       -6.94836047190000
H           -3.22608154400000        2.98508145230000       -6.34469047430000
H           -4.22389537320000        1.78447779350000       -6.49929325970000
O            6.88342296370000       -2.17149742700000        5.34587188170000
H            6.85750521350000       -2.37164754000000        6.28077603270000
H            5.99113912990000       -2.35304961270000        4.99113670810000
O            4.56608507060000       -3.25014658650000        7.16894257750000
H            4.26720246980000       -3.36887290570000        6.25862893890000
H            3.77076936130000       -3.30937097640000        7.71094960070000
O            0.26445489200000       -6.87807866920000       -4.11432983530000
H           -0.69667929490000       -6.93424562550000       -3.94237511260000
H            0.39221753190000       -6.08530960360000       -4.65702646690000
O            5.36271393040000        4.43768858220000       -4.25341550210000
H            4.60883585930000        5.04001863930000       -4.15849123740000
H            5.23308455840000        3.92793263640000       -5.06211341650000
O            5.70850506270000       -4.45475437730000       -2.74392466570000
H            6.54383519910000       -4.45566951690000       -2.26938100830000
H            5.90429465410000       -4.19839899520000       -3.66124643480000
O            5.11712814430000        0.20954379470000        4.62734796610000
H            6.00153389410000        0.15872315380000        4.22092912560000
H            5.19453181090000       -0.21450818870000        5.50305306380000
O            1.60837590020000       -3.53025718590000        0.13037741530000
H            2.43898413240000       -4.00600730040000       -0.03613830890000
H            1.85036564720000       -2.58371074840000        0.07526689060000
O            4.06473214310000       -0.52757298550000        2.27519292470000
H            4.74766244950000       -0.18934968660000        1.67133303670000
H            4.35654964960000       -0.32798607660000        3.18315546100000
O           10.29243224330000       -0.83002625220000       -1.45794528600000
H           10.64342375560000       -0.64141129230000       -2.36230457020000
H           10.29011928520000        0.04094088700000       -1.02379303920000
O           -4.84732816990000       -1.28695716050000        5.81695598600000
H           -5.67017538670000       -1.73392930980000        5.60464202910000
H           -5.07482812030000       -0.35753729330000        5.99467087370000
O           -3.17383079420000       -3.14338500410000        7.18320600530000
H           -3.73570648510000       -2.46446936050000        6.78718260450000
H           -2.30986926310000       -2.72667106460000        7.34404450390000
O          -10.20949120810000        3.19246965930000       -2.47561436680000
H           -9.57776865100000        3.92956371920000       -2.56168762010000
H           -9.90224361950000        2.54145198920000       -3.13263008580000
O           -3.58807126950000       -3.61196467580000       -3.67862663340000
H           -3.22937152850000       -4.11111197270000       -2.91331732830000
H           -3.35032828820000       -4.12758567620000       -4.46854761150000
O           -0.70915488590000        4.23873782340000        3.73241006400000
H           -1.25257958490000        4.17621580100000        4.54716665040000
H            0.16603130600000        4.50520376040000        4.02881456370000
O           -8.48797316450000        6.18221982460000        2.92652761110000
H           -8.60298938000000        6.42832609860000        1.99076662820000
H           -8.95946346140000        5.34009532840000        3.03936812750000
O           -4.73219074320000       -1.03013213660000       -2.42150744360000
H           -5.01838492630000       -0.10135773270000       -2.44728647580000
H           -4.12697795360000       -1.13826290760000       -3.17524838440000
O           -6.92066891210000        3.00708844750000       -0.86091305400000
H           -7.07544872310000        3.01488829760000        0.09838497970000
H           -7.38337369700000        3.75107238940000       -1.27665476550000
O           -2.74011186500000        1.50034760530000        6.08096021510000
H           -2.79968103890000        1.46152703040000        5.10141083960000
H           -3.63428640760000        1.33829462220000        6.40836059330000
O            5.76290827860000       -5.28454069680000        5.03920351830000
H            6.51747527570000       -5.52895818860000        4.43188523390000
H            6.12937470170000       -5.17729329500000        5.91663715900000
O            5.56849297880000        0.64359993720000        0.35025018600000
H            5.58068343780000        1.60452550320000        0.58561563760000
H            6.51599653520000        0.41074197550000        0.43690190200000
O           -7.39839374130000       -5.45892571590000        2.63552421300000
H           -6.80522057460000       -4.84142156620000        2.14146718680000
H           -8.21346931350000       -4.97297562910000        2.78942196640000
O            2.05752312950000        7.70490058670000        2.73804473960000
H            2.41285428060000        7.28476129020000        3.55770097560000
H            2.84206890410000        7.83986433830000        2.18085305360000
O           -4.54214736680000       -6.14959065410000       -5.21878111490000
H           -3.58964222130000       -6.15763440990000       -5.36899651510000
H           -4.65123564670000       -6.15079504600000       -4.25495757170000
O          -11.93136070900000        1.48195682000000       -1.19922682740000
H          -11.43918098920000        2.16973042290000       -1.68042232170000
H          -12.42066816860000        0.99135728640000       -1.86147651820000
O           -7.60703806420000        0.27489501660000        4.61619032410000
H           -6.75910292660000        0.47881925260000        4.14847373360000
H           -7.90869633690000        1.14214376990000        4.95976865300000
O           -7.30645321720000       -2.41513402950000        4.61967681860000
H           -7.57120354220000       -1.49697794000000        4.80907456380000
H           -7.97928270090000       -2.75202252890000        4.00970870200000
O           -5.27254693360000       -3.81991735100000       -1.15029829790000
H           -4.84488565150000       -3.11036177520000       -1.63658310580000
H           -5.15885124240000       -4.64113314450000       -1.66577366830000
O           -6.29316332270000       -3.26745766650000       -3.74573062800000
H           -6.74245228850000       -4.06592865800000       -3.42199235350000
H           -5.32469784960000       -3.42130176750000       -3.71031254530000
O            9.73640022180000        2.63691297470000       -2.98731725550000
H            9.24924014710000        2.52737527010000       -3.84756011560000
H            9.53531503350000        3.54524742330000       -2.71962588070000
O            0.20748720950000       -4.08254838460000       -2.06229835250000
H            0.71259955510000       -4.88923083600000       -2.26334510500000
H            0.65507580820000       -3.74198221990000       -1.25996617410000
O           -5.45283357000000       -4.14445755630000        1.42248204510000
H           -4.93569560480000       -4.95592752120000        1.55567440830000
H           -5.39871070540000       -3.94127915310000        0.45930243770000
O           11.43673134540000        0.83692778080000        1.80557984660000
H           11.04812951890000        1.10798107620000        0.94282403610000
H           12.34259606520000        1.14688034260000        1.79922706300000
O           -3.53427140230000       -7.37883076970000       -0.65059794360000
H           -3.85365865560000       -7.23029762940000        0.24923787460000
H           -2.57646298380000       -7.19738658080000       -0.61259216660000
O           -5.39308851220000        0.54474985330000       -5.93576585980000
H           -5.05041563550000       -0.14931194300000       -6.51315771130000
H           -5.96672959890000        0.06244588610000       -5.29708829740000
O            0.91186555270000        5.87297740470000       -0.90617053000000
H            1.06619086710000        5.14937246970000       -1.55540394440000
H            0.11354369930000        6.32453817130000       -1.21853643600000
O            2.56648869690000       -1.14184319880000       -0.43371949760000
H            2.51563880230000       -0.25836462000000       -0.04845150160000
H            3.48600617200000       -1.43853458370000       -0.34726296280000
O            0.42884662340000        2.81579590400000       -0.08087463160000
H            0.15920315610000        2.55018092740000        0.82052699810000
H            1.08241722190000        3.50936136280000        0.03148200550000
O            3.82179720840000        0.42482937440000       -7.76074272400000
H            3.38697004510000        0.51080154950000       -8.60879766070000