 Entering Gaussian System
 *********************************************
 Gaussian 98:
 frequency output generated by the xtb code
 *********************************************
                         Standard orientation:
 --------------------------------------------------------------------
  Center     Atomic     Atomic              Coordinates (Angstroms)
  Number     Number      Type              X           Y           Z
 --------------------------------------------------------------------
    1          1             0       -0.539405   -1.179234    0.894864
    2          6             0       -0.610604   -0.542120    0.000003
    3          1             0       -0.539411   -1.179238   -0.894856
    4          6             0        0.509763    0.504487   -0.000003
    5          1             0        0.391421    1.134279    0.883057
    6          1             0        0.391415    1.134276   -0.883064
    7          8             0       -1.789436    0.207999    0.000006
    8          1             0       -2.564228   -0.365122    0.000010
    9          7             0        1.863885   -0.115145   -0.000006
   10          1             0        1.986398   -0.704244   -0.834894
   11          1             0        1.986404   -0.704241    0.834883
   12          1             0        2.592359    0.610373   -0.000010
 --------------------------------------------------------------------
     1 basis functions        1 primitive gaussians
     1 alpha electrons        1 beta electrons
 
 Harmonic frequencies (cm**-1), IR intensities (km*mol⁻¹),
 Raman scattering activities (A**4/amu), Raman depolarization ratios,
 reduced masses (AMU), force constants (mDyne/A) and normal coordinates:
                      1                      2                      3
                        a                      a                      a 
 Frequencies --    58.4501               209.7793               263.7203
 Red. masses --     9.6642                 1.6569                 9.5254
 Frc consts  --     0.0000                 0.0000                 0.0000
 IR Inten    --     0.1894                 2.1834                10.4812
 Raman Activ --     0.0000                 0.0000                 0.0000
 Depolar     --     0.0000                 0.0000                 0.0000
 Atom AN      X      Y      Z        X      Y      Z        X      Y      Z
   1   1     0.11  -0.10  -0.19     0.02   0.08   0.10    -0.14  -0.11   0.00
   2   6    -0.00  -0.00  -0.40     0.00   0.00   0.14    -0.21  -0.36   0.00
   3   1    -0.11   0.10  -0.19    -0.02  -0.08   0.10    -0.14  -0.11  -0.00
   4   6    -0.00  -0.00  -0.43    -0.00  -0.00  -0.20    -0.15  -0.44   0.00
   5   1    -0.10   0.08  -0.19    -0.01   0.06  -0.10    -0.11  -0.13  -0.00
   6   1     0.10  -0.08  -0.19     0.01  -0.06  -0.10    -0.11  -0.13   0.00
   7   8     0.00   0.00   0.48    -0.00  -0.00  -0.01     0.21   0.36  -0.00
   8   1     0.00   0.00   0.03     0.00   0.00   0.08    -0.05   0.22  -0.00
   9   7     0.00   0.00   0.33     0.00   0.00   0.02     0.19   0.31  -0.00
  10   1     0.10  -0.08   0.16     0.24   0.40  -0.24     0.17   0.11  -0.00
  11   1    -0.10   0.08   0.16    -0.24  -0.40  -0.24     0.17   0.11   0.00
  12   1     0.00   0.00   0.11     0.00   0.00   0.56    -0.09   0.23  -0.00
                      4                      5                      6
                        a                      a                      a 
 Frequencies --   301.4090               441.1256               802.6276
 Red. masses --     1.9519                12.1273                 1.7525
 Frc consts  --     0.0000                 0.0000                 0.0000
 IR Inten    --   192.7342                28.6334                24.9393
 Raman Activ --     0.0000                 0.0000                 0.0000
 Depolar     --     0.0000                 0.0000                 0.0000
 Atom AN      X      Y      Z        X      Y      Z        X      Y      Z
   1   1     0.00   0.02   0.06     0.08  -0.06   0.00    -0.12  -0.26  -0.16
   2   6     0.00   0.00   0.13     0.25  -0.21  -0.00     0.00   0.00   0.10
   3   1    -0.00  -0.02   0.06     0.08  -0.06  -0.00     0.12   0.26  -0.16
   4   6    -0.00  -0.00  -0.04    -0.25   0.14   0.00     0.00   0.00   0.23
   5   1     0.01   0.03  -0.03    -0.13   0.03   0.00    -0.03   0.44  -0.26
   6   1    -0.01  -0.03  -0.03    -0.13   0.03  -0.00     0.03  -0.44  -0.26
   7   8     0.00   0.00   0.21     0.61   0.08  -0.00    -0.00  -0.00  -0.04
   8   1    -0.00  -0.00  -0.96     0.08   0.12  -0.00     0.00   0.00   0.00
   9   7    -0.00  -0.00  -0.06    -0.51   0.00   0.00     0.00   0.00   0.06
  10   1     0.01   0.01  -0.02    -0.21  -0.02   0.00    -0.24   0.15  -0.12
  11   1    -0.01  -0.01  -0.02    -0.21  -0.02  -0.00     0.24  -0.15  -0.12
  12   1     0.00  -0.00   0.00    -0.05  -0.09   0.00    -0.00  -0.00  -0.09
                      7                      8                      9
                        a                      a                      a 
 Frequencies --   886.3977               890.3992              1018.1816
 Red. masses --     5.5976                 2.1258                10.1155
 Frc consts  --     0.0000                 0.0000                 0.0000
 IR Inten    --    48.0519                20.2462                41.2641
 Raman Activ --     0.0000                 0.0000                 0.0000
 Depolar     --     0.0000                 0.0000                 0.0000
 Atom AN      X      Y      Z        X      Y      Z        X      Y      Z
   1   1     0.09   0.09  -0.00     0.13   0.29   0.15     0.07   0.01   0.00
   2   6     0.19   0.35  -0.00    -0.00  -0.00  -0.22    -0.09  -0.03   0.00
   3   1     0.09   0.09   0.00    -0.13  -0.29   0.15     0.07   0.01  -0.00
   4   6    -0.01  -0.29   0.00    -0.00  -0.00  -0.03    -0.55   0.41   0.00
   5   1     0.07  -0.06   0.00    -0.33  -0.07  -0.00    -0.08   0.10   0.02
   6   1     0.07  -0.06  -0.00     0.33   0.07  -0.00    -0.08   0.10  -0.02
   7   8     0.06  -0.00  -0.00     0.00   0.00   0.06     0.13  -0.06  -0.00
   8   1     0.13  -0.15  -0.00    -0.00  -0.00  -0.01    -0.05   0.10   0.00
   9   7    -0.34  -0.16   0.00     0.00   0.00   0.20     0.35  -0.39  -0.00
  10   1     0.25   0.05  -0.01    -0.38   0.19  -0.14     0.27  -0.04  -0.01
  11   1     0.25   0.05   0.01     0.38  -0.19  -0.14     0.27  -0.04   0.01
  12   1    -0.50   0.37   0.00    -0.00  -0.00  -0.16    -0.11   0.10   0.00
                     10                     11                     12
                        a                      a                      a 
 Frequencies --  1058.7152              1112.9441              1138.6178
 Red. masses --     7.2104                11.8986                 5.6363
 Frc consts  --     0.0000                 0.0000                 0.0000
 IR Inten    --    40.7245                27.9965                 0.0004
 Raman Activ --     0.0000                 0.0000                 0.0000
 Depolar     --     0.0000                 0.0000                 0.0000
 Atom AN      X      Y      Z        X      Y      Z        X      Y      Z
   1   1    -0.01  -0.07   0.00    -0.12   0.07  -0.00    -0.25   0.33   0.14
   2   6    -0.36  -0.25   0.00    -0.58   0.40   0.00    -0.00  -0.00  -0.45
   3   1    -0.01  -0.07  -0.00    -0.12   0.07   0.00     0.25  -0.33   0.14
   4   6     0.40   0.29  -0.00    -0.06  -0.12   0.00     0.00   0.00   0.38
   5   1     0.29   0.12  -0.00     0.02  -0.01  -0.01     0.01   0.25  -0.08
   6   1     0.29   0.12   0.00     0.02  -0.01   0.01    -0.01  -0.25  -0.08
   7   8     0.12  -0.18  -0.00     0.50  -0.29  -0.00     0.00   0.00   0.16
   8   1    -0.24   0.32   0.00     0.20  -0.17  -0.00     0.00   0.00   0.02
   9   7    -0.23  -0.02   0.00     0.07   0.09  -0.00    -0.00  -0.00  -0.18
  10   1     0.09   0.04  -0.01    -0.06  -0.01   0.01     0.16  -0.09   0.04
  11   1     0.09   0.04   0.01    -0.06  -0.01  -0.01    -0.16   0.09   0.04
  12   1    -0.22   0.16   0.00     0.10  -0.07  -0.00     0.00   0.00   0.07
                     13                     14                     15
                        a                      a                      a 
 Frequencies --  1201.4593              1217.0728              1244.9075
 Red. masses --     3.2263                 3.7553                 1.7852
 Frc consts  --     0.0000                 0.0000                 0.0000
 IR Inten    --    29.3094                76.1969                 5.4364
 Raman Activ --     0.0000                 0.0000                 0.0000
 Depolar     --     0.0000                 0.0000                 0.0000
 Atom AN      X      Y      Z        X      Y      Z        X      Y      Z
   1   1     0.30  -0.08  -0.03    -0.35  -0.10   0.00    -0.54  -0.11  -0.01
   2   6     0.00   0.00   0.14    -0.00  -0.28   0.00     0.00   0.00   0.14
   3   1    -0.30   0.08  -0.03    -0.35  -0.10  -0.00     0.54   0.11  -0.01
   4   6     0.00   0.00   0.27     0.13   0.29  -0.00    -0.00  -0.00  -0.19
   5   1    -0.48   0.08  -0.05     0.01   0.07   0.00    -0.36  -0.17   0.02
   6   1     0.48  -0.08  -0.05     0.01   0.07  -0.00     0.36   0.17   0.02
   7   8    -0.00  -0.00  -0.10    -0.00   0.20  -0.00     0.00   0.00   0.08
   8   1    -0.00  -0.00  -0.01     0.42  -0.53  -0.00     0.00   0.00   0.03
   9   7    -0.00  -0.00  -0.28    -0.05  -0.09   0.00    -0.00  -0.00  -0.05
  10   1     0.21  -0.13   0.05     0.06   0.02  -0.02     0.02  -0.02  -0.00
  11   1    -0.21   0.13   0.05     0.06   0.02   0.02    -0.02   0.02  -0.00
  12   1     0.00   0.00   0.09    -0.10   0.07   0.00     0.00  -0.00  -0.00
                     16                     17                     18
                        a                      a                      a 
 Frequencies --  1294.6296              1364.7882              1371.4699
 Red. masses --     4.0044                 4.3715                 3.0294
 Frc consts  --     0.0000                 0.0000                 0.0000
 IR Inten    --    66.0516                 3.8164               185.2640
 Raman Activ --     0.0000                 0.0000                 0.0000
 Depolar     --     0.0000                 0.0000                 0.0000
 Atom AN      X      Y      Z        X      Y      Z        X      Y      Z
   1   1    -0.16  -0.00  -0.02    -0.52   0.02   0.02     0.02  -0.01  -0.00
   2   6     0.02   0.15  -0.00     0.40   0.17  -0.00     0.01  -0.03   0.00
   3   1    -0.16  -0.00   0.02    -0.52   0.02  -0.02     0.02  -0.01   0.00
   4   6     0.40   0.14  -0.00    -0.21  -0.04   0.00    -0.09  -0.06   0.00
   5   1    -0.53  -0.09   0.00     0.18   0.02   0.01     0.12   0.09  -0.05
   6   1    -0.53  -0.09  -0.00     0.18   0.02  -0.01     0.12   0.09   0.05
   7   8     0.04  -0.15   0.00     0.04  -0.22   0.00    -0.01   0.02  -0.00
   8   1    -0.14   0.17   0.00    -0.21   0.25   0.00     0.02  -0.02  -0.00
   9   7     0.05  -0.17   0.00     0.01   0.05  -0.00     0.36  -0.11  -0.00
  10   1    -0.05   0.04  -0.06     0.00  -0.05   0.05    -0.49   0.05  -0.12
  11   1    -0.05   0.04   0.06     0.00  -0.05  -0.05    -0.49   0.05   0.12
  12   1    -0.17   0.14   0.00     0.02  -0.00  -0.00    -0.36   0.38   0.00
                     19                     20                     21
                        a                      a                      a 
 Frequencies --  1425.7112              1432.4888              1450.0070
 Red. masses --     1.6249                 1.7141                 1.8026
 Frc consts  --     0.0000                 0.0000                 0.0000
 IR Inten    --    89.9049                91.3958                13.1842
 Raman Activ --     0.0000                 0.0000                 0.0000
 Depolar     --     0.0000                 0.0000                 0.0000
 Atom AN      X      Y      Z        X      Y      Z        X      Y      Z
   1   1    -0.01   0.00  -0.00    -0.03  -0.02  -0.02     0.01  -0.04  -0.03
   2   6    -0.00  -0.00   0.00     0.04   0.04  -0.00    -0.01   0.02  -0.00
   3   1     0.01  -0.00  -0.00    -0.03  -0.02   0.02     0.01  -0.04   0.03
   4   6    -0.00  -0.00  -0.03    -0.05  -0.07   0.00    -0.05   0.26  -0.00
   5   1     0.03  -0.01   0.00     0.04   0.05  -0.04     0.13  -0.52   0.41
   6   1    -0.03   0.01   0.00     0.04   0.05   0.04     0.13  -0.52  -0.41
   7   8     0.00   0.00   0.00     0.00  -0.02   0.00     0.00   0.01  -0.00
   8   1     0.00  -0.00   0.00    -0.02   0.03   0.00     0.01  -0.01  -0.00
   9   7    -0.00  -0.00  -0.22    -0.06  -0.20   0.00     0.02  -0.01  -0.00
  10   1    -0.38  -0.24   0.08     0.04   0.53  -0.38    -0.07   0.06  -0.05
  11   1     0.38   0.24   0.08     0.04   0.53   0.38    -0.07   0.06   0.05
  12   1     0.00   0.00   0.73     0.17  -0.20  -0.00    -0.02   0.03   0.00
                     22                     23                     24
                        a                      a                      a 
 Frequencies --  1480.0992              2855.0162              2883.5065
 Red. masses --     1.8623                 1.9914                 1.4240
 Frc consts  --     0.0000                 0.0000                 0.0000
 IR Inten    --     0.0988                39.8094                41.4640
 Raman Activ --     0.0000                 0.0000                 0.0000
 Depolar     --     0.0000                 0.0000                 0.0000
 Atom AN      X      Y      Z        X      Y      Z        X      Y      Z
   1   1     0.03  -0.55  -0.39     0.03  -0.41   0.54    -0.04   0.37  -0.59
   2   6     0.02   0.27  -0.00    -0.00  -0.00  -0.30     0.00  -0.19   0.00
   3   1     0.03  -0.55   0.39    -0.03   0.41   0.54    -0.04   0.37   0.59
   4   6    -0.02  -0.01   0.00     0.00   0.00   0.01    -0.00   0.00   0.00
   5   1     0.01   0.05  -0.03     0.00  -0.02  -0.02     0.01  -0.02  -0.02
   6   1     0.01   0.05   0.03    -0.00   0.02  -0.02     0.01  -0.02   0.02
   7   8    -0.02   0.02   0.00    -0.00  -0.00  -0.01     0.02  -0.01  -0.00
   8   1    -0.01   0.01   0.00     0.00   0.00   0.01     0.00  -0.00  -0.00
   9   7     0.00   0.01  -0.00    -0.00  -0.00  -0.00     0.00   0.00  -0.00
  10   1     0.01  -0.03   0.02    -0.00   0.00   0.00    -0.00  -0.00   0.00
  11   1     0.01  -0.03  -0.02     0.00  -0.00   0.00    -0.00  -0.00  -0.00
  12   1     0.00  -0.00  -0.00    -0.00  -0.00  -0.00    -0.00  -0.00   0.00
                     25                     26                     27
                        a                      a                      a 
 Frequencies --  3026.1854              3032.8474              3228.8065
 Red. masses --     2.0210                 1.5147                 2.0580
 Frc consts  --     0.0000                 0.0000                 0.0000
 IR Inten    --     0.2918                 0.9451                89.9656
 Raman Activ --     0.0000                 0.0000                 0.0000
 Depolar     --     0.0000                 0.0000                 0.0000
 Atom AN      X      Y      Z        X      Y      Z        X      Y      Z
   1   1     0.00  -0.02   0.02    -0.00   0.01  -0.02    -0.00   0.00  -0.00
   2   6    -0.00  -0.00  -0.02    -0.00  -0.01   0.00     0.00   0.00   0.00
   3   1    -0.00   0.02   0.02    -0.00   0.01   0.02     0.00  -0.00  -0.00
   4   6    -0.00  -0.00  -0.30     0.04  -0.21   0.00    -0.00  -0.00  -0.01
   5   1    -0.07   0.40   0.54    -0.07   0.38   0.57    -0.00   0.01   0.02
   6   1     0.07  -0.40   0.54    -0.07   0.38  -0.57     0.00  -0.01   0.02
   7   8     0.00   0.00  -0.00     0.00   0.00  -0.00    -0.00  -0.00  -0.00
   8   1    -0.00  -0.00   0.00    -0.01  -0.00   0.00     0.00  -0.00   0.00
   9   7     0.00   0.00   0.01     0.00   0.00  -0.00    -0.00  -0.00  -0.28
  10   1     0.00  -0.01  -0.02     0.00  -0.01  -0.02    -0.07   0.40   0.54
  11   1    -0.00   0.01  -0.02     0.00  -0.01   0.02     0.07  -0.40   0.54
  12   1     0.00   0.00   0.00    -0.00  -0.01   0.00    -0.00  -0.00  -0.03
                     28                     29                     30
                        a                      a                      a 
 Frequencies --  3235.5435              3250.4909              3549.7636
 Red. masses --     1.8516                 1.4594                 1.8764
 Frc consts  --     0.0000                 0.0000                 0.0000
 IR Inten    --    73.2689                60.4065                51.6973
 Raman Activ --     0.0000                 0.0000                 0.0000
 Depolar     --     0.0000                 0.0000                 0.0000
 Atom AN      X      Y      Z        X      Y      Z        X      Y      Z
   1   1    -0.00   0.00   0.00    -0.00   0.00  -0.00    -0.00  -0.00  -0.00
   2   6    -0.00  -0.00   0.00     0.00  -0.00   0.00     0.00   0.00  -0.00
   3   1    -0.00   0.00  -0.00    -0.00   0.00   0.00    -0.00  -0.00   0.00
   4   6    -0.00   0.01   0.00    -0.01   0.00   0.00     0.00   0.00  -0.00
   5   1     0.00  -0.01  -0.02     0.00  -0.00  -0.00    -0.00  -0.00  -0.00
   6   1     0.00  -0.01   0.02     0.00  -0.00   0.00    -0.00  -0.00   0.00
   7   8     0.00   0.00  -0.00     0.00  -0.00  -0.00     0.19   0.14  -0.00
   8   1     0.00  -0.00  -0.00     0.00   0.00  -0.00    -0.78  -0.57   0.00
   9   7     0.04   0.25  -0.00    -0.17  -0.08   0.00    -0.00   0.00   0.00
  10   1     0.07  -0.34  -0.52     0.02  -0.17  -0.24     0.00  -0.00  -0.00
  11   1     0.07  -0.34   0.52     0.02  -0.17   0.24     0.00  -0.00   0.00
  12   1    -0.28  -0.27   0.00     0.61   0.64  -0.00     0.00  -0.00  -0.00
