12
 energy: -14.886870549463 gnorm: 0.000397762264 xtb: 6.5.1 (579679a)
h           -0.53940177013256       -1.17923872516584        0.89485955984953
c           -0.61060078877026       -0.54212268547844       -0.00000000013071
h           -0.53940177026485       -1.17923872532777       -0.89485956000140
c            0.50976063791968        0.50448946167238       -0.00000000003810
h            0.39141220690727        1.13427958156663        0.88306038693420
h            0.39141220674798        1.13427958125441       -0.88306038699506
o           -1.78943707941551        0.20798979849154        0.00000000006033
h           -2.56422566309035       -0.36513540433781        0.00000000021167
n            1.86388523657969       -0.11513547745745        0.00000000009102
h            1.98640466120452       -0.70423205190450       -0.83488843586046
h            1.98640466105582       -0.70423205165844        0.83488843663888
h            2.59235559959460        0.61038629566953       -0.00000000098480
