39
 energy: -60.671677282970 gnorm: 0.044913788212 xtb: 6.5.1 (579679a)
h           -0.54250542236797       -1.15979968239695        0.91808737922246
c           -0.61125101768967       -0.54129568518002        0.01007491846514
h           -0.53913085058113       -1.19691447165356       -0.87124367806879
c            0.51036587524963        0.50378784395978       -0.00948718411966
h            0.39110985371409        1.15189243103056        0.86009664670295
h            0.39443993020508        1.11526701862859       -0.90564118157743
o           -1.78918255390479        0.21002581361451       -0.00773070418283
h           -2.56465822815856       -0.36207477160767        0.00267346025182
n            1.86374215708766       -0.11727809731927        0.00594752104846
h            1.98712725504032       -0.72370378895708       -0.81631063916515
h            1.98397883773239       -0.68907633476970        0.85310417775158
h            2.59308294202115        0.60724004426223       -0.00770513808498
o            4.39062102525121        0.84913956961954       -0.01618140059853
h            4.94922645302505        0.77434164795859       -0.79259627066533
h            4.92616601316488        0.60834132315967        0.74312609175473
o            2.02266870554257       -1.39437992823338        2.32629874897293
h            1.28794852950813       -0.98913731233061        2.80964027042989
h            1.72767182781143       -2.27229433988297        2.06111114397612
o           -0.27404269167524        0.04123862837407        3.01358588510853
h           -0.12259423842623        0.97878804559074        3.14211290868385
h           -1.21672061121599       -0.10678224469301        3.11066225620164
o           -4.35736927573612       -0.68787835258090       -0.04021086796917
h           -4.82768618210133       -0.32029127168445       -0.79265384456007
h           -4.89027437279471       -0.49841202485899        0.73560542045277
o            1.69464386997572       -1.34712058131826       -2.36143053431317
h            1.18848671943565       -2.15590533358123       -2.43925393149330
h            1.14358299080194       -0.66333593535771       -2.78926635382029
o           -0.34803289291039        0.26889489645282       -3.09300757303971
h           -1.19510590222147       -0.17016381591252       -3.18289017480091
h           -0.56827947687694        1.18339145840838       -2.85221983697960
o            1.11726922854288       -2.88538984820204        0.20120683563253
h            1.84973104968747       -3.13717520414221       -0.36409283962045
h            0.33805042873676       -3.36444557765640       -0.08089387599470
o           -1.37866741049118        2.35180147630686       -1.67470645372575
h           -1.14547357752636        3.09183435194851       -1.11476368297555
h           -1.75970342353970        1.67913035641518       -1.08544501309574
o           -2.05204458311750       -2.77641751971218       -0.42161000558429
h           -2.52991443198218       -3.08052088029806        0.35250261529606
h           -2.66420239832331       -2.79758220804872       -1.15978590689866
39
 energy: -60.672486859397 gnorm: 0.067848502871 xtb: 6.5.1 (579679a)
h           -0.54250542236806       -1.15979968239687        0.91808737922243
c           -0.61125101768969       -0.54129568518000        0.01007491846512
h           -0.53913085058108       -1.19691447165360       -0.87124367806873
c            0.51036587524965        0.50378784395973       -0.00948718411967
h            0.39110985371399        1.15189243103062        0.86009664670280
h            0.39443993020510        1.11526701862853       -0.90564118157746
o           -1.78918255390481        0.21002581361461       -0.00773070418299
h           -2.56465822815860       -0.36207477160749        0.00267346025156
n            1.86374215708764       -0.11727809731938        0.00594752104864
h            1.98712725504033       -0.72370378895712       -0.81631063916495
h            1.98397883773228       -0.68907633476970        0.85310417775190
h            2.59308294202115        0.60724004426222       -0.00770513808530
o            4.39436321415068        0.86778347115613       -0.01349339318232
h            4.95219523154473        0.78819529135312       -0.79008361843539
h            4.92680939781306        0.61917515852797        0.74553497157863
o            2.02828492162029       -1.39541727680602        2.33230758263215
h            1.28798659412994       -0.98992493335550        2.80662564922683
h            1.73231429842047       -2.27027089538855        2.05669522705056
o           -0.27244965251332        0.03947166583140        3.04762758833869
h           -0.12802826254399        0.98031231901615        3.16104881697227
h           -1.21870377559156       -0.10857020812669        3.10870945430114
o           -4.38294099270832       -0.74159266659913       -0.04935386240282
h           -4.82103462262180       -0.31322724733736       -0.79214603794523
h           -4.88592180547437       -0.49902852700710        0.73395391554952
o            1.70338712040780       -1.34801558126389       -2.37050989346560
h            1.19390733781446       -2.15638976619833       -2.43793825941762
h            1.14202636155054       -0.66240381364375       -2.78179902991542
o           -0.34590999726076        0.27641590486782       -3.12361513353016
h           -1.18919451023548       -0.17511407425354       -3.18739214422072
h           -0.57108063012421        1.18060461577316       -2.84802459593041
o            1.14464311879795       -2.92752652558691        0.23087936249130
h            1.84055194916628       -3.16870653760404       -0.38612344245502
h            0.31453947540551       -3.30407280599772       -0.09118030328375
o           -1.40126902831896        2.35559071650041       -1.68160092291820
h           -1.16219889464542        3.09910854355538       -1.12803984585763
h           -1.75064012059921        1.67351451919156       -1.08119944080602
o           -2.03006430401297       -2.91285782015422       -0.45759011693614
h           -2.56744849425417       -2.96944031894511        0.37445878903989
h           -2.72027219494681       -2.70571101383166       -1.13547711770489
39
 energy: -60.673684595482 gnorm: 0.047763744069 xtb: 6.5.1 (579679a)
h           -0.54250542236808       -1.15979968239685        0.91808737922242
c           -0.61125101768970       -0.54129568517999        0.01007491846512
h           -0.53913085058107       -1.19691447165362       -0.87124367806871
c            0.51036587524966        0.50378784395971       -0.00948718411968
h            0.39110985371396        1.15189243103064        0.86009664670276
h            0.39443993020511        1.11526701862851       -0.90564118157747
o           -1.78918255390482        0.21002581361464       -0.00773070418304
h           -2.56465822815861       -0.36207477160743        0.00267346025148
n            1.86374215708763       -0.11727809731942        0.00594752104869
h            1.98712725504033       -0.72370378895713       -0.81631063916489
h            1.98397883773225       -0.68907633476970        0.85310417775199
h            2.59308294202115        0.60724004426222       -0.00770513808539
o            4.39553145133868        0.87576435247328       -0.01301249272070
h            4.95332742325413        0.79440206279642       -0.78953788998089
h            4.92662626051046        0.62343610263433        0.74583219807335
o            2.02946256159635       -1.39574842865152        2.33253375193333
h            1.28703180934762       -0.99449978180239        2.80695696959707
h            1.73671930339469       -2.27071928113458        2.05221319284695
o           -0.27248820514973        0.04024642709125        3.05492445821382
h           -0.12737413428862        0.97992567973257        3.17616821976483
h           -1.21841545693083       -0.10828968907242        3.11571412438570
o           -4.39172819076110       -0.76489332648613       -0.05402128741643
h           -4.81706941669946       -0.31151308278680       -0.79169690634064
h           -4.88251625212401       -0.50282174216190        0.73226428526350
o            1.70303064041547       -1.34960621713549       -2.37067616668066
h            1.19776393426499       -2.16077051029029       -2.44068662739918
h            1.14070320274316       -0.66642879786018       -2.78430522813878
o           -0.34451859121756        0.27852549481353       -3.12731850606753
h           -1.18488345785897       -0.17663222538556       -3.19958072691891
h           -0.57505433552128        1.18145101124693       -2.85268190412081
o            1.14375742939751       -2.94158206853700        0.23767401922836
h            1.82490747601311       -3.18939497610580       -0.39424238845375
h            0.29552319144996       -3.28439498676029       -0.08798663352749
o           -1.40946281972080        2.35450732485084       -1.68541374082525
h           -1.17138442762755        3.10462403629911       -1.13992944764937
h           -1.74647998031605        1.67278997758006       -1.07665562045644
o           -2.07519212110017       -2.80826444489132       -0.43828310220764
h           -2.55608520279157       -3.01128969082026        0.35905965556733
h           -2.71998961927168       -2.74119370120537       -1.13844341916597
39
 energy: -60.674203287752 gnorm: 0.044740829521 xtb: 6.5.1 (579679a)
h           -0.54250542236812       -1.15979968239681        0.91808737922240
c           -0.61125101768971       -0.54129568517998        0.01007491846511
h           -0.53913085058104       -1.19691447165364       -0.87124367806868
c            0.51036587524967        0.50378784395969       -0.00948718411969
h            0.39110985371392        1.15189243103067        0.86009664670269
h            0.39443993020512        1.11526701862848       -0.90564118157748
o           -1.78918255390483        0.21002581361468       -0.00773070418312
h           -2.56465822815863       -0.36207477160734        0.00267346025135
n            1.86374215708762       -0.11727809731947        0.00594752104878
h            1.98712725504033       -0.72370378895715       -0.81631063916479
h            1.98397883773219       -0.68907633476970        0.85310417775215
h            2.59308294202116        0.60724004426222       -0.00770513808555
o            4.39187328453291        0.88289974087485       -0.01162552245383
h            4.95163459549896        0.80596932306236       -0.78720671078682
h            4.92315598145523        0.63201388713791        0.74757349951236
o            2.02687686513986       -1.39621947121485        2.32726141953847
h            1.28380191082217       -1.00568846791826        2.80960840495301
h            1.74315102797317       -2.27377800721238        2.04434820686408
o           -0.27545828288680        0.03852753777221        3.03803562751809
h           -0.12347101968303        0.97324457193668        3.18715093208611
h           -1.21744693785246       -0.11167048580896        3.13119181535997
o           -4.38247154496879       -0.75861317351555       -0.05594383872993
h           -4.82000004185679       -0.33011822430480       -0.79507207435842
h           -4.88587143737189       -0.52567231113747        0.72658802722030
o            1.69664730319854       -1.34957041662733       -2.36486582370482
h            1.20315460229871       -2.16652985436241       -2.45100994570533
h            1.14061149380606       -0.67176897363115       -2.79507051400574
o           -0.34257164478059        0.27714173384913       -3.10915896582844
h           -1.17946966904060       -0.17694578462329       -3.21828614221462
h           -0.58194323996945        1.18543849786733       -2.86468171167952
o            1.10891787460304       -2.91941504286187        0.21759132808441
h            1.80150396366745       -3.18870229232128       -0.38663796640510
h            0.28725062074268       -3.32014802420411       -0.06145182791053
o           -1.41066109710599        2.34561188323165       -1.68709299262808
h           -1.18209365686892        3.10479556359508       -1.15011666128712
h           -1.74980097580015        1.67052477812840       -1.07363629731550
o           -2.08961155594061       -2.82514621127258       -0.44678232214226
h           -2.56729207578119       -2.99672162781563        0.36375925287243
h           -2.75494941147497       -2.71664686519957       -1.12961534160340
39
 energy: -60.674780038470 gnorm: 0.047179391152 xtb: 6.5.1 (579679a)
h           -0.54250542236822       -1.15979968239672        0.91808737922236
c           -0.61125101768973       -0.54129568517996        0.01007491846509
h           -0.53913085058099       -1.19691447165369       -0.87124367806861
c            0.51036587524970        0.50378784395963       -0.00948718411971
h            0.39110985371380        1.15189243103075        0.86009664670252
h            0.39443993020515        1.11526701862841       -0.90564118157752
o           -1.78918255390486        0.21002581361480       -0.00773070418330
h           -2.56465822815867       -0.36207477160713        0.00267346025105
n            1.86374215708759       -0.11727809731961        0.00594752104898
h            1.98712725504034       -0.72370378895719       -0.81631063916455
h            1.98397883773206       -0.68907633476971        0.85310417775252
h            2.59308294202116        0.60724004426221       -0.00770513808591
o            4.38773615981374        0.90053931481134       -0.00885057509293
h            4.94946786923983        0.82796405125979       -0.78349264642783
h            4.91842973855342        0.64853751953158        0.75042919966569
o            2.02755763519869       -1.40195477997407        2.32291956899873
h            1.28353563457616       -1.01868224910249        2.80945702723618
h            1.74965975611378       -2.28039012040444        2.03585570555513
o           -0.27717382861354        0.03210192205182        3.03409430951875
h           -0.11792970610941        0.96377212400237        3.19512119530512
h           -1.21737891653698       -0.11577998047449        3.14806334239433
o           -4.38091285012394       -0.78518695821984       -0.06457686385619
h           -4.81292469546018       -0.34427938440647       -0.79930872298027
h           -4.88151227354312       -0.55458218216308        0.71963616420608
o            1.69588683420169       -1.35153243275285       -2.36331632293006
h            1.20734466225900       -2.17078221703712       -2.45550006028115
h            1.14087739196270       -0.67485174475816       -2.79618868641601
o           -0.33759265505576        0.27988806098107       -3.11282207546476
h           -1.16852787558651       -0.18299434018675       -3.23170830048618
h           -0.58836530012822        1.18575838539636       -2.87022900147609
o            1.08900807280296       -2.94010732972086        0.23295173310179
h            1.75877162446882       -3.20449119522496       -0.40067798066383
h            0.24486250267445       -3.29864301678648       -0.05029853216686
o           -1.42774924216585        2.33776769449741       -1.69495348964665
h           -1.20265487246119        3.10283132309057       -1.16533611145801
h           -1.75031693825212        1.66070775832873       -1.07439386803446
o           -2.11829664744520       -2.85618875449108       -0.45958119042839
h           -2.59310695733441       -2.96117727860267        0.37445267841000
h           -2.81446664599034       -2.67615047237345       -1.11198537706924
39
 energy: -60.675189061501 gnorm: 0.046199243237 xtb: 6.5.1 (579679a)
h           -0.54250542236831       -1.15979968239665        0.91808737922233
c           -0.61125101768975       -0.54129568517994        0.01007491846507
h           -0.53913085058094       -1.19691447165374       -0.87124367806855
c            0.51036587524972        0.50378784395957       -0.00948718411973
h            0.39110985371370        1.15189243103081        0.86009664670238
h            0.39443993020517        1.11526701862835       -0.90564118157754
o           -1.78918255390488        0.21002581361490       -0.00773070418347
h           -2.56465822815871       -0.36207477160694        0.00267346025078
n            1.86374215708757       -0.11727809731973        0.00594752104916
h            1.98712725504035       -0.72370378895723       -0.81631063916434
h            1.98397883773195       -0.68907633476971        0.85310417775285
h            2.59308294202116        0.60724004426221       -0.00770513808623
o            4.38250411848860        0.91799665218723       -0.00621718520354
h            4.94567552979095        0.85036091746296       -0.78031454960952
h            4.91319865377118        0.66503378227834        0.75275991233758
o            2.02953233648894       -1.41246264811092        2.31755433340180
h            1.28590334878511       -1.03129581357433        2.80574545824849
h            1.75137398021070       -2.28905369332473        2.02520852860407
o           -0.27652380689866        0.02218100851751        3.03722344788983
h           -0.11068868373001        0.95324988176697        3.19173216620873
h           -1.21700954570073       -0.11985941092721        3.15814840533645
o           -4.37858054967705       -0.81260979536662       -0.07363682477411
h           -4.80442478897978       -0.35548592680362       -0.80353908998709
h           -4.87627600429621       -0.58393546748352        0.71362169113582
o            1.69673588099039       -1.35472283000318       -2.36347226874044
h            1.20587990065621       -2.17191587137628       -2.45702155098041
h            1.14218849799042       -0.67391145272162       -2.79017711019157
o           -0.33180449641576        0.28314470416056       -3.12544450660641
h           -1.15772350093908       -0.19124618534376       -3.22960447279649
h           -0.59060908584466        1.18312096042380       -2.86786027699629
o            1.06192575528520       -2.96342250449655        0.25017662112346
h            1.71451360114466       -3.20807844810087       -0.41096442123486
h            0.20365524733069       -3.28719760955893       -0.04552254907556
o           -1.44703414266469        2.33122545048442       -1.70337421343836
h           -1.22130936042023        3.09578069632350       -1.17449451890026
h           -1.75301808636182        1.64799855173715       -1.08056363295245
o           -2.15261633452396       -2.84900205611995       -0.45422805877542
h           -2.62968460692800       -2.92141839041533        0.38491872220540
h           -2.84038196016854       -2.66204898648415       -1.10225400847505
39
 energy: -60.675574946142 gnorm: 0.046744098226 xtb: 6.5.1 (579679a)
h           -0.54250542236849       -1.15979968239649        0.91808737922226
c           -0.61125101768980       -0.54129568517990        0.01007491846502
h           -0.53913085058084       -1.19691447165383       -0.87124367806842
c            0.51036587524977        0.50378784395947       -0.00948718411976
h            0.39110985371349        1.15189243103094        0.86009664670208
h            0.39443993020522        1.11526701862822       -0.90564118157760
o           -1.78918255390493        0.21002581361511       -0.00773070418381
h           -2.56465822815880       -0.36207477160655        0.00267346025023
n            1.86374215708753       -0.11727809731997        0.00594752104954
h            1.98712725504037       -0.72370378895731       -0.81631063916391
h            1.98397883773172       -0.68907633476971        0.85310417775352
h            2.59308294202117        0.60724004426220       -0.00770513808689
o            4.37005427041958        0.94960838220299       -0.00101722259648
h            4.93588978371661        0.89332694416506       -0.77427409151524
h            4.90207206512861        0.69746167613976        0.75731153838155
o            2.03150952425846       -1.43484140076705        2.30464577617312
h            1.29154625749406       -1.05396189595681        2.79752109344675
h            1.74727183746585       -2.30638948712145        2.00365242764753
o           -0.27376029794876        0.00451810046605        3.03999889339515
h           -0.09563091567322        0.93424181811842        3.18716722718182
h           -1.21510684016344       -0.12666260526998        3.17060685874766
o           -4.37048339606896       -0.85524958255703       -0.08857563056208
h           -4.78850793540784       -0.37727346629418       -0.81201214856162
h           -4.86910252700148       -0.63651238305442        0.70266335934594
o            1.69628156890742       -1.36191397813733       -2.36029620612601
h            1.20139166788887       -2.17527780513052       -2.45985997614249
h            1.14583943388357       -0.67366191364297       -2.78084070967255
o           -0.32034239751932        0.28473424079557       -3.13839565100697
h           -1.13774024243423       -0.20795139518592       -3.22631044290610
h           -0.59451463700411        1.17703284910150       -2.86605693509671
o            1.00298558467621       -2.99586947399023        0.27194412059176
h            1.63685537650873       -3.21778388842926       -0.41546708550546
h            0.13234287268925       -3.28482737370288       -0.03222076640394
o           -1.47705167112823        2.31443818675891       -1.71974867251652
h           -1.25442443975164        3.08070013958142       -1.19313197900789
h           -1.76232373387217        1.62511883987313       -1.09352295689480
o           -2.21367822175507       -2.82690523735078       -0.43662069897505
h           -2.67476926971086       -2.91022655359097        0.39209001912496
h           -2.89667948028301       -2.58448305087812       -1.07411747501929
39
 energy: -60.675910907703 gnorm: 0.044969737268 xtb: 6.5.1 (579679a)
h           -0.54250542236862       -1.15979968239637        0.91808737922221
c           -0.61125101768983       -0.54129568517987        0.01007491846500
h           -0.53913085058077       -1.19691447165390       -0.87124367806833
c            0.51036587524981        0.50378784395939       -0.00948718411979
h            0.39110985371334        1.15189243103104        0.86009664670186
h            0.39443993020525        1.11526701862813       -0.90564118157764
o           -1.78918255390497        0.21002581361526       -0.00773070418406
h           -2.56465822815886       -0.36207477160627        0.00267346024983
n            1.86374215708749       -0.11727809732014        0.00594752104981
h            1.98712725504038       -0.72370378895737       -0.81631063916360
h            1.98397883773155       -0.68907633476972        0.85310417775400
h            2.59308294202117        0.60724004426219       -0.00770513808737
o            4.35692353373915        0.97599154510910        0.00431440930985
h            4.92447732418068        0.93148868678886       -0.76870131144613
h            4.89145715299744        0.72583641842471        0.76156850369853
o            2.03018856658624       -1.45792159742750        2.28919235792443
h            1.29656202584841       -1.07649706188503        2.79083760663302
h            1.73663258623326       -2.32411504392330        1.98133161216590
o           -0.26857621789633       -0.01122050831028        3.03667250068579
h           -0.08059513352948        0.91583783757342        3.19209977335344
h           -1.21003177542588       -0.13524176934555        3.17567131721676
o           -4.35928475944679       -0.87299015338690       -0.10094939825817
h           -4.78247195421329       -0.39728113978172       -0.82067021097068
h           -4.86881745822272       -0.68192549154186        0.69144714907973
o            1.69241828883051       -1.36609378270993       -2.35378193807429
h            1.19793511536843       -2.17836648359420       -2.46433723130892
h            1.14903730881204       -0.67473637809482       -2.77936024697684
o           -0.31179340376166        0.28306163592787       -3.13093201922822
h           -1.12278250045561       -0.21830848457060       -3.23082893190561
h           -0.59931622770393        1.17451074573317       -2.86945170746307
o            0.94410963728398       -3.00755602743514        0.27327977537906
h            1.57558613621184       -3.23382217576570       -0.40815507967177
h            0.07680101896238       -3.30360417886004       -0.01333665570246
o           -1.49518600506888        2.29739208074084       -1.73163691446889
h           -1.28101912767718        3.07028493553994       -1.21037863200950
h           -1.77409930360975        1.61051930206582       -1.10115165673693
o           -2.25762006060888       -2.81329937415880       -0.43474460385176
h           -2.69939974998595       -2.85991578600535        0.41435612678020
h           -2.94197317621081       -2.57178707839023       -1.05618235222370
39
 energy: -60.676076989359 gnorm: 0.045175638346 xtb: 6.5.1 (579679a)
h           -0.54250542236873       -1.15979968239627        0.91808737922216
c           -0.61125101768986       -0.54129568517985        0.01007491846497
h           -0.53913085058070       -1.19691447165396       -0.87124367806825
c            0.51036587524984        0.50378784395932       -0.00948718411981
h            0.39110985371321        1.15189243103112        0.86009664670166
h            0.39443993020529        1.11526701862805       -0.90564118157768
o           -1.78918255390500        0.21002581361539       -0.00773070418427
h           -2.56465822815891       -0.36207477160602        0.00267346024948
n            1.86374215708746       -0.11727809732030        0.00594752105005
h            1.98712725504039       -0.72370378895742       -0.81631063916333
h            1.98397883773140       -0.68907633476972        0.85310417775443
h            2.59308294202118        0.60724004426219       -0.00770513808779
o            4.34375304273018        1.00278836517475        0.01033202160532
h            4.91107632563540        0.96675020153479       -0.76325602714972
h            4.88077806124566        0.75233885867489        0.76582315870164
o            2.02636268628644       -1.47946439458574        2.27394986367341
h            1.29960386205762       -1.09866625364017        2.78655055450291
h            1.72366951459002       -2.34130329349801        1.96146497499435
o           -0.26085505565676       -0.02373850962682        3.03189552971107
h           -0.06561881717854        0.89984252379906        3.20229931252809
h           -1.20183465375121       -0.14297417251903        3.17454513499818
o           -4.35131755158783       -0.87174416523507       -0.11060517570278
h           -4.78472189523285       -0.40939507041341       -0.82901612218283
h           -4.87965787096466       -0.71992297005567        0.67858778348389
o            1.68825402983018       -1.37006741593158       -2.34584220371669
h            1.19638670739528       -2.18286214466845       -2.46592706889622
h            1.15126005221118       -0.67925462963578       -2.78124565488054
o           -0.30500831716455        0.27841334070361       -3.11858791920628
h           -1.11096529972799       -0.22648971006534       -3.23906581701429
h           -0.60316828232312        1.17110760506400       -2.87459830142686
o            0.89930351482814       -3.03532109493314        0.28971964528501
h            1.51250540942883       -3.24395598099015       -0.42066293585191
h            0.01873041397327       -3.30648860568650        0.00586641145571
o           -1.51026865420883        2.28285833272427       -1.74500630015624
h           -1.30346018525130        3.06312833752837       -1.23055917409644
h           -1.78404301975689        1.60021826753473       -1.10787290090898
o           -2.28231428444730       -2.81999484330814       -0.43640415891523
h           -2.69861142540056       -2.84406342110745        0.43244218227252
h           -2.98494059833481       -2.54533202708638       -1.03378211922941
39
 energy: -60.676298151570 gnorm: 0.044683168856 xtb: 6.5.1 (579679a)
h           -0.54250542236881       -1.15979968239621        0.91808737922213
c           -0.61125101768988       -0.54129568517983        0.01007491846495
h           -0.53913085058066       -1.19691447165400       -0.87124367806819
c            0.51036587524986        0.50378784395927       -0.00948718411982
h            0.39110985371312        1.15189243103117        0.86009664670154
h            0.39443993020531        1.11526701862800       -0.90564118157770
o           -1.78918255390502        0.21002581361548       -0.00773070418441
h           -2.56465822815894       -0.36207477160587        0.00267346024926
n            1.86374215708745       -0.11727809732040        0.00594752105021
h            1.98712725504040       -0.72370378895745       -0.81631063916315
h            1.98397883773130       -0.68907633476972        0.85310417775470
h            2.59308294202118        0.60724004426218       -0.00770513808806
o            4.33302852932636        1.02547129513077        0.01519399108930
h            4.89751415709573        0.99283321257778       -0.76017943812290
h            4.87232566611167        0.77178548685077        0.76810662668290
o            2.02124884590582       -1.50007316359127        2.26031196334128
h            1.30218265775520       -1.11657650138657        2.78238734608534
h            1.70389388118031       -2.35495987491389        1.94052351631215
o           -0.24907186884733       -0.03295889039916        3.03465813493404
h           -0.05157612453752        0.88899899219507        3.20929856012360
h           -1.19113877456875       -0.14826651612504        3.16411952711089
o           -4.35500430505714       -0.86350261316794       -0.11779148545319
h           -4.79055236414259       -0.39523609771423       -0.83348274771252
h           -4.89531987412740       -0.73625672944525        0.66806178403252