      -----------------------------------------------------------      
     |                   =====================                   |     
     |                           x T B                           |     
     |                   =====================                   |     
     |                         S. Grimme                         |     
     |          Mulliken Center for Theoretical Chemistry        |     
     |                    University of Bonn                     |     
      -----------------------------------------------------------      

   * xtb version 6.5.1 (579679a) compiled by 'ehlert@majestix' on 2022-07-11

   xtb is free software: you can redistribute it and/or modify it under
   the terms of the GNU Lesser General Public License as published by
   the Free Software Foundation, either version 3 of the License, or
   (at your option) any later version.
   
   xtb is distributed in the hope that it will be useful,
   but WITHOUT ANY WARRANTY; without even the implied warranty of
   MERCHANTABILITY or FITNESS FOR A PARTICULAR PURPOSE.  See the
   GNU Lesser General Public License for more details.
   
   Cite this work as:
   * C. Bannwarth, E. Caldeweyher, S. Ehlert, A. Hansen, P. Pracht,
     J. Seibert, S. Spicher, S. Grimme, WIREs Comput. Mol. Sci., 2020, 11,
     e01493. DOI: 10.1002/wcms.1493
   
   for GFN2-xTB:
   * C. Bannwarth, S. Ehlert and S. Grimme., J. Chem. Theory Comput., 2019,
     15, 1652-1671. DOI: 10.1021/acs.jctc.8b01176
   for GFN1-xTB:
   * S. Grimme, C. Bannwarth, P. Shushkov, J. Chem. Theory Comput., 2017,
     13, 1989-2009. DOI: 10.1021/acs.jctc.7b00118
   for GFN0-xTB:
   * P. Pracht, E. Caldeweyher, S. Ehlert, S. Grimme, ChemRxiv, 2019, preprint.
     DOI: 10.26434/chemrxiv.8326202.v1
   for GFN-FF:
   * S. Spicher and S. Grimme, Angew. Chem. Int. Ed., 2020, 59, 15665-15673.
     DOI: 10.1002/anie.202004239
   
   for ALPB and GBSA implicit solvation:
   * S. Ehlert, M. Stahn, S. Spicher, S. Grimme, J. Chem. Theory Comput.,
     2021, 17, 4250-4261. DOI: 10.1021/acs.jctc.1c00471
   
   for DFT-D4:
   * E. Caldeweyher, C. Bannwarth and S. Grimme, J. Chem. Phys., 2017,
     147, 034112. DOI: 10.1063/1.4993215
   * E. Caldeweyher, S. Ehlert, A. Hansen, H. Neugebauer, S. Spicher,
     C. Bannwarth and S. Grimme, J. Chem. Phys., 2019, 150, 154122.
     DOI: 10.1063/1.5090222
   * E. Caldeweyher, J.-M. Mewes, S. Ehlert and S. Grimme, Phys. Chem. Chem. Phys.
     2020, 22, 8499-8512. DOI: 10.1039/D0CP00502A
   
   for sTDA-xTB:
   * S. Grimme and C. Bannwarth, J. Chem. Phys., 2016, 145, 054103.
     DOI: 10.1063/1.4959605
   
   in the mass-spec context:
   * V. Asgeirsson, C. Bauer and S. Grimme, Chem. Sci., 2017, 8, 4879.
     DOI: 10.1039/c7sc00601b
   * J. Koopman and S. Grimme, ACS Omega 2019, 4, 12, 15120-15133.
     DOI: 10.1021/acsomega.9b02011
   
   for metadynamics refer to:
   * S. Grimme, J. Chem. Theory Comput., 2019, 155, 2847-2862
     DOI: 10.1021/acs.jctc.9b00143
   
   for SPH calculations refer to:
   * S. Spicher and S. Grimme, J. Chem. Theory Comput., 2021, 17, 1701-1714
     DOI: 10.1021/acs.jctc.0c01306
   
   with help from (in alphabetical order)
   P. Atkinson, C. Bannwarth, F. Bohle, G. Brandenburg, E. Caldeweyher
   M. Checinski, S. Dohm, S. Ehlert, S. Ehrlich, I. Gerasimov, C. Hölzer
   A. Katbashev, J. Koopman, C. Lavigne, S. Lehtola, F. März, M. Müller,
   F. Musil, H. Neugebauer, J. Pisarek, C. Plett, P. Pracht, F. Pultar,
   J. Seibert, P. Shushkov, S. Spicher, M. Stahn, M. Steiner, T. Strunk,
   J. Stückrath, T. Rose, and J. Unsleber
   
 * started run on 2022/11/03 at 00:49:15.946     

           -------------------------------------------------
          |                Calculation Setup                |
           -------------------------------------------------

          program call               : xtb cluster.xyz --gfn2 --ohess
          hostname                   : cn0272
          coordinate file            : cluster.xyz
          omp threads                :                     1

   ID    Z sym.   atoms
    1    1 H      1, 3, 5, 6, 8, 10-12, 14, 15, 17, 18, 20, 21, 23, 24, 26,
                  27, 29, 30, 32, 33, 35, 36, 38, 39, 41, 42, 44, 45, 47, 48,
                  50, 51, 53, 54, 56, 57, 59, 60, 62, 63, 65, 66, 68, 69, 71,
                  72, 74, 75, 77, 78, 80, 81, 83, 84, 86, 87, 89, 90, 92, 93,
                  95, 96, 98, 99, 101, 102, 104, 105, 107, 108, 110, 111,
                  113, 114, 116, 117, 119, 120, 122, 123, 125, 126, 128, 129,
                  131, 132, 134, 135, 137, 138, 140, 141, 143, 144, 146, 147,
                  149, 150, 152, 153, 155, 156, 158, 159, 161, 162, 164, 165,
                  167, 168, 170, 171, 173, 174, 176, 177, 179, 180, 182, 183,
                  185, 186, 188, 189, 191, 192, 194, 195, 197, 198, 200, 201,
                  203, 204, 206, 207, 209, 210, 212, 213, 215, 216, 218, 219,
                  221, 222, 224, 225, 227, 228, 230, 231, 233, 234, 236, 237,
                  239, 240, 242, 243, 245, 246, 248, 249, 251, 252, 254, 255,
                  257, 258, 260, 261, 263, 264, 266, 267, 269, 270, 272, 273,
                  275, 276, 278, 279, 281, 282, 284, 285, 287, 288, 290, 291,
                  293, 294, 296, 297, 299, 300, 302, 303, 305, 306, 308, 309,
                  311, 312, 314, 315, 317, 318, 320, 321, 323, 324, 326, 327,
                  329, 330, 332, 333, 335, 336, 338, 339, 341, 342, 344, 345,
                  347, 348, 350, 351, 353, 354, 356, 357, 359, 360, 362, 363,
                  365, 366, 368, 369, 371, 372, 374, 375, 377, 378, 380, 381,
                  383, 384, 386, 387, 389, 390, 392, 393, 395, 396, 398, 399,
                  401, 402, 404, 405, 407, 408, 410, 411, 413, 414, 416, 417,
                  419, 420, 422, 423, 425, 426, 428, 429, 431, 432, 434, 435,
                  437, 438, 440, 441, 443, 444, 446, 447, 449, 450, 452, 453,
                  455, 456, 458, 459, 461, 462, 464, 465, 467, 468, 470, 471,
                  473, 474, 476, 477, 479, 480, 482, 483, 485, 486, 488, 489,
                  491, 492, 494, 495, 497, 498, 500, 501, 503, 504, 506, 507,
                  509, 510, 512, 513, 515, 516, 518, 519, 521, 522, 524, 525,
                  527, 528, 530, 531, 533, 534, 536, 537, 539, 540, 542, 543,
                  545, 546, 548, 549, 551, 552, 554, 555, 557, 558, 560, 561,
                  563, 564, 566, 567, 569, 570, 572, 573, 575, 576, 578, 579,
                  581, 582, 584, 585, 587, 588, 590, 591, 593, 594, 596, 597,
                  599, 600, 602, 603, 605, 606, 608, 609, 611, 612
    2    6 C      2, 4
    3    8 O      7, 13, 16, 19, 22, 25, 28, 31, 34, 37, 40, 43, 46, 49, 52,
                  55, 58, 61, 64, 67, 70, 73, 76, 79, 82, 85, 88, 91, 94, 97,
                  100, 103, 106, 109, 112, 115, 118, 121, 124, 127, 130, 133,
                  136, 139, 142, 145, 148, 151, 154, 157, 160, 163, 166, 169,
                  172, 175, 178, 181, 184, 187, 190, 193, 196, 199, 202, 205,
                  208, 211, 214, 217, 220, 223, 226, 229, 232, 235, 238, 241,
                  244, 247, 250, 253, 256, 259, 262, 265, 268, 271, 274, 277,
                  280, 283, 286, 289, 292, 295, 298, 301, 304, 307, 310, 313,
                  316, 319, 322, 325, 328, 331, 334, 337, 340, 343, 346, 349,
                  352, 355, 358, 361, 364, 367, 370, 373, 376, 379, 382, 385,
                  388, 391, 394, 397, 400, 403, 406, 409, 412, 415, 418, 421,
                  424, 427, 430, 433, 436, 439, 442, 445, 448, 451, 454, 457,
                  460, 463, 466, 469, 472, 475, 478, 481, 484, 487, 490, 493,
                  496, 499, 502, 505, 508, 511, 514, 517, 520, 523, 526, 529,
                  532, 535, 538, 541, 544, 547, 550, 553, 556, 559, 562, 565,
                  568, 571, 574, 577, 580, 583, 586, 589, 592, 595, 598, 601,
                  604, 607, 610
    4    7 N      9

molecular fragmentation (1/2 indicates fragments):
111111111111222222222222222222222222222222222222222222222222222222222222
222222222222222222222222222222222222222222222222222222222222222222222222
222222222222222222222222222222222222222222222222222222222222222222222222
222222222222222222222222222222222222222222222222222222222222222222222222
222222222222222222222222222222222222222222222222222222222222222222222222
222222222222222222222222222222222222222222222222222222222222222222222222
222222222222222222222222222222222222222222222222222222222222222222222222
222222222222222222222222222222222222222222222222222222222222222222222222
222222222222222222222222222222222222
# atoms in fragment 1/2:    12   600
 fragment masses (1/2) :       62.09     3603.06
CMA distance (Bohr)    :   3.660
constraining FC (au)   :  0.0500

           -------------------------------------------------
          |                 G F N 2 - x T B                 |
           -------------------------------------------------

        Reference                      10.1021/acs.jctc.8b01176
      * Hamiltonian:
        H0-scaling (s, p, d)           1.850000    2.230000    2.230000
        zeta-weighting                 0.500000
      * Dispersion:
        s8                             2.700000
        a1                             0.520000
        a2                             5.000000
        s9                             5.000000
      * Repulsion:
        kExp                           1.500000    1.000000
        rExp                           1.000000
      * Coulomb:
        alpha                          2.000000
        third order                    shell-resolved
        anisotropic                    true
        a3                             3.000000
        a5                             4.000000
        cn-shift                       1.200000
        cn-exp                         4.000000
        max-rad                        5.000000


          ...................................................
          :                      SETUP                      :
          :.................................................:
          :  # basis functions                1224          :
          :  # atomic orbitals                1224          :
          :  # shells                          816          :
          :  # electrons                      1626          :
          :  max. iterations                   250          :
          :  Hamiltonian                  GFN2-xTB          :
          :  restarted?                      false          :
          :  GBSA solvation                  false          :
          :  PC potential                    false          :
          :  electronic temp.          300.0000000     K    :
          :  accuracy                    1.0000000          :
          :  -> integral cutoff          0.2500000E+02      :
          :  -> integral neglect         0.1000000E-07      :
          :  -> SCF convergence          0.1000000E-05 Eh   :
          :  -> wf. convergence          0.1000000E-03 e    :
          :  Broyden damping             0.4000000          :
          ...................................................

 iter      E             dE          RMSdq      gap      omega  full diag
   1  -1039.6640571 -0.103966E+04  0.406E+00    7.91       0.0  T
   2  -1039.7810943 -0.117037E+00  0.241E+00    8.09       1.0  T
   3  -1039.8061936 -0.250993E-01  0.229E-01    8.00       1.0  T
   4  -1039.8102475 -0.405394E-02  0.909E-02    8.04       1.0  T
   5  -1039.8107657 -0.518139E-03  0.291E-02    8.06       1.0  T
   6  -1039.8107932 -0.274900E-04  0.132E-02    8.06       1.0  T
   7  -1039.8107981 -0.492146E-05  0.190E-03    8.07       2.1  T
   8  -1039.8107985 -0.464193E-06  0.639E-04    8.07       6.3  T
   9  -1039.8107986 -0.200466E-07  0.203E-04    8.07      19.9  T

   *** convergence criteria satisfied after 9 iterations ***

         #    Occupation            Energy/Eh            Energy/eV
      -------------------------------------------------------------
         1        2.0000           -0.7407853             -20.1578
       ...           ...                  ...                  ...
       807        2.0000           -0.4613554             -12.5541
       808        2.0000           -0.4612929             -12.5524
       809        2.0000           -0.4606687             -12.5354
       810        2.0000           -0.4597015             -12.5091
       811        2.0000           -0.4576439             -12.4531
       812        2.0000           -0.4555167             -12.3952
       813        2.0000           -0.4515844             -12.2882 (HOMO)
       814                         -0.1551552              -4.2220 (LUMO)
       815                         -0.1429254              -3.8892
       816                         -0.1314684              -3.5774
       817                         -0.1300140              -3.5379
       818                         -0.1214535              -3.3049
       ...                                ...                  ...
      1224                          0.3687498              10.0342
      -------------------------------------------------------------
                  HL-Gap            0.2964292 Eh            8.0662 eV
             Fermi-level           -0.3033698 Eh           -8.2551 eV

 SCC (total)                   0 d,  0 h,  0 min, 17.019 sec
 SCC setup                      ...        0 min,  0.035 sec (  0.208%)
 Dispersion                     ...        0 min,  0.087 sec (  0.511%)
 classical contributions        ...        0 min,  0.021 sec (  0.122%)
 integral evaluation            ...        0 min,  0.704 sec (  4.138%)
 iterations                     ...        0 min,  6.431 sec ( 37.785%)
 molecular gradient             ...        0 min,  9.669 sec ( 56.812%)
 printout                       ...        0 min,  0.072 sec (  0.423%)

         :::::::::::::::::::::::::::::::::::::::::::::::::::::
         ::                     SUMMARY                     ::
         :::::::::::::::::::::::::::::::::::::::::::::::::::::
         :: total energy           -1033.466678249375 Eh    ::
         :: gradient norm              0.000128099031 Eh/a0 ::
         :: HOMO-LUMO gap              8.066249862044 eV    ::
         ::.................................................::
         :: SCC energy             -1039.810798564890 Eh    ::
         :: -> isotropic ES            5.732449949133 Eh    ::
         :: -> anisotropic ES         -1.308975932307 Eh    ::
         :: -> anisotropic XC         -0.097338031794 Eh    ::
         :: -> dispersion             -0.638444220752 Eh    ::
         :: repulsion energy           6.219817399619 Eh    ::
         :: add. restraining           0.000000000000 Eh    ::
         :: total charge               1.000000000000 e     ::
         :::::::::::::::::::::::::::::::::::::::::::::::::::::

      ----------------------------------------------------------- 
     |                       L-ANC optimizer                     |
      ----------------------------------------------------------- 
          low memory version by Sebastian Ehlert

          ...................................................
          :                      SETUP                      :
          :.................................................:
          :   energy convergence        0.5000000E-05 Eh    :
          :   grad. convergence         0.1000000E-02 Eh/a0 :
          :   optimization log               true           :
          :   writing optlog all                1     steps :
          :   Hessian reset                    20     steps :
          :   maximium step len.        1.0000000     a0    :
          :   LBFGS images                     20           :
          ...................................................
 * calculating model hessian...
Using Lindh-Hessian (1995)
 Shifting diagonal of input Hessian by   1.000000000000000E-002
 Lowest  eigenvalues of input Hessian
    0.000000    0.000000    0.000000    0.000000    0.000000    0.000000
    0.010008    0.010017    0.010040    0.010091    0.010108    0.010154
    0.010171    0.010181    0.010200    0.010207    0.010220    0.010234
 Highest eigenvalues
    1.441208    1.448458    1.448632    1.449543    1.457361    1.506721
 

........................................................................
.............................. CYCLE    1 ..............................
........................................................................
   1  -1039.8106672 -0.103981E+04  0.523E-04    8.07       0.0  T
   2  -1039.8106672 -0.376326E-08  0.318E-04    8.07      12.7  T
   3  -1039.8106672 -0.123191E-08  0.360E-05    8.07     112.3  T
     SCC iter.                  ...        0 min,  2.008 sec
     gradient                   ...        0 min,  9.487 sec
 * total energy  : -1033.4666781 Eh     change        0.1803876E-06 Eh
   gradient norm :     0.0002144 Eh/a0  converged?    E=F G=T D=F
   step length   :     0.0069864 a0

........................................................................
.............................. CYCLE    2 ..............................
........................................................................
   1  -1039.8107076 -0.103981E+04  0.327E-04    8.07       0.0  T
   2  -1039.8107076 -0.123669E-08  0.199E-04    8.07      20.3  T
   3  -1039.8107076 -0.460659E-09  0.195E-05    8.07     207.7  T
     SCC iter.                  ...        0 min,  1.976 sec
     gradient                   ...        0 min,  9.539 sec
 * total energy  : -1033.4666784 Eh     change       -0.3447997E-06 Eh
   gradient norm :     0.0000672 Eh/a0  converged?    E=T G=T D=F
   step length   :     0.0044663 a0

   *** GEOMETRY OPTIMIZATION CONVERGED AFTER 2 CYCLES ***

------------------------------------------------------------------------
 total energy gain   :        -0.0000002 Eh       -0.0001 kcal/mol
 total RMSD          :         0.0001995 a0        0.0001 Å
 total power (kW/mol):        -0.0002158 (step)   -0.0000 (real)
------------------------------------------------------------------------

 L-ANCopt (total)              0 d,  0 h,  0 min, 31.292 sec
 setup                          ...        0 min,  0.022 sec (  0.072%)
 model hessian                  ...        0 min,  4.789 sec ( 15.305%)
 ANC generation                 ...        0 min,  1.608 sec (  5.140%)
 coordinate transformation      ...        0 min,  0.013 sec (  0.042%)
 Rational function              ...        0 min,  0.002 sec (  0.007%)
 singlepoint calculation        ...        0 min, 24.835 sec ( 79.366%)
 optimization log               ...        0 min,  0.017 sec (  0.053%)
 hessian update                 ...        0 min,  0.000 sec (  0.000%)

================
 final structure:
================
612
 xtb: 6.5.1 (579679a)
H           -1.27407796936338        0.94755935216800       -0.92010417625626
C           -0.47251293779386        1.23855683089811       -0.24920570269912
H            0.24098539418335        0.41840108065969       -0.19510574885567
C           -1.03952884454305        1.57132140298045        1.12699702838263
H           -1.00886462463426        2.64730962100375        1.24743594336896
H           -0.44573789502823        1.11586206955184        1.91073387970547
O            0.18545575312054        2.40186387241410       -0.74551691248715
H            0.33502439099762        2.33497197805066       -1.71180629869764
N           -2.43357994778715        1.15519864160001        1.27065565646066
H           -2.55068948852167        0.11268113320085        1.15244507568834
H           -3.01472464037336        1.63725479998304        0.55929736384282
H           -2.75407382217122        1.39150221329902        2.23182761469631
O            2.90314835082660        4.93466556835762        1.02912226332963
H            2.38438405308799        5.58551135336151        1.54317707544392
H            2.43532457219718        4.81441563334498        0.17656988581405
O            3.54541240743533        3.26723570803790       -4.08941281068267
H            3.39322875668034        4.23336126781894       -4.21300853368145
H            3.64484662221554        2.91964858628981       -4.98664576520429
O            7.80269711432339        3.01971251023918       -0.90903615454823
H            8.38964286009322        2.39618238427079       -0.47068980482994
H            7.14953910474193        2.52574330944544       -1.43369393432785
O           -0.58447856574242        3.77887342246681        3.15091509025621
H           -0.14901477386028        2.98994877871894        3.54973324927976
H           -0.49375877979971        4.51368796767721        3.77434768492828
O           -5.38978923251892        4.25058568955949       -0.31066836540000
H           -5.50843103702226        3.60065026986455        0.40261878075847
H           -4.43219316277399        4.44632885284819       -0.29984145178172
O           -3.87589572920795       -4.91345759263804       -5.30899740199952
H           -4.68643123468964       -4.38179204941424       -5.37352807812842
H           -3.14591708337477       -4.27909255887374       -5.47044430917587
O            2.21044802962291        3.04544083072428        2.74445418662542
H            2.35304793772652        3.58728158832148        1.94271310959957
H            1.94207520276675        2.14638771644086        2.49076756781632
O            6.90612201638778        5.58548517808641       -0.96556301667100
H            6.34665009435588        5.83334350544311       -0.21548167074873
H            7.23466808260060        4.70136724600437       -0.74782894116264
O            1.84543045715769        0.47309260883158        2.01924282688577
H            2.31993343627440        0.74210315282448        1.21469026915142
H            1.25433304688848       -0.25836552698050        1.75496541142973
O           -3.26163746096015       -3.15456702921974       -2.23919431666211
H           -2.66542019715548       -2.87802417600687       -2.94434402576132
H           -3.50893085232281       -4.08797364812521       -2.39617454572702
O            2.10036642046876        4.78846224580678       -1.45621528740657
H            1.58440045503356        4.12959796589525       -1.93329659707058
H            3.04929092651999        4.63022986034167       -1.67855332811945
O            6.07618445929321        1.71752163104420       -2.62861516877527
H            6.45354498341518        0.87212672525571       -2.93106096103549
H            5.11620866043936        1.53753208759502       -2.51596047549287
O           -4.74922148687846       -0.03197262698221        2.09717338866118
H           -4.87514813827364       -0.87345201501697        2.55885052843780
H           -5.02348744299039       -0.18578639019514        1.17373025239852
O            0.49521988495801        1.70153161216162        4.38659029773662
H            0.32601333979594        2.06034302814478        5.27606686796135
H           -0.05178231558497        0.89621907662931        4.27500483245643
O            1.57424936000575        4.87462008391978        4.59197301959124
H            2.47519404216835        5.20651347702387        4.75150443193139
H            1.71960096446688        4.12927215825236        3.96927196196951
O            3.93965640860953       -0.67066202162777        0.34082806687236
H            4.69784876212292       -0.40670690504297       -0.19668845012230
H            4.10196293020652       -0.30892081479390        1.23571307010337
O           -3.96497154796154       -5.24835916585624        4.88263731445751
H           -3.03444304508786       -5.16026430404875        5.14187048207266
H           -4.44743879262598       -4.51963790044649        5.31751765798767
O            0.09576909548761       -1.43442567335981        1.56834392456849
H           -0.30034012680130       -1.64580235862565        0.69988343287225
H            0.15255346703662       -2.27774947088021        2.04268088132627
O           -1.05062405359569       -0.41345232256686        3.84111127138887
H           -1.07396283614372       -1.13356798793567        4.48911236421995
H           -0.72423519131333       -0.79767881307642        3.00549626397124
O           -1.81997452902906        0.85871290158202        6.46340973973751
H           -2.00846070628698        1.34390801856632        7.26433611698347
H           -0.88568793044673        0.56621086197200        6.52127238136093
O            6.21749122377084        2.35651447302742        5.11435390794012
H            5.75939938550463        2.59706213901044        4.27775520810490
H            7.04583269874134        2.85739884279768        5.10006616811704
O           -2.77463578712195        4.78636985740792       -0.02750049470438
H           -2.83069332208651        4.57371385991687        0.92660316064230
H           -2.85127869599394        5.75505680366781       -0.10970439676938
O           -5.42968226991197        0.92189496456649        4.66971969237902
H           -6.00936120181474        0.98925155308502        3.87390521484483
H           -5.95316611620041        0.35153916140892        5.27861883798682
O           -0.91515368953227       -2.23012397386539       -0.78835849800163
H           -1.68092021587486       -1.63310644481768       -0.91907994420361
H           -1.22608899247712       -2.99280842003328       -0.28077254901424
O            1.72018561763466       -1.06901206087656       -1.14313296069415
H            2.52002134584895       -0.85200923731957       -0.63101851336551
H            1.37528269939730       -1.88981122161785       -0.74294691543847
O           10.25317763448694        1.62896432231317       -0.14037730317031
H           10.75526626704205        1.87596036334257       -0.94047977484994
H           10.86513951899258        1.13588278970657        0.43859435538339
O           -2.88046172216430        1.60103023554492        3.89129724403317
H           -3.78125517021526        1.32593597955672        4.12803001949512
H           -2.29586916863953        0.84221855124650        4.07978659335729
O            3.57766762994550        0.88395921540834       -2.42064692740547
H            3.96125177642988       -0.01131101094376       -2.29387898975817
H            3.12455123935870        0.87729124550645       -3.29126361867129
O           -0.57322775470515       -2.27200841650470        6.01123130163870
H           -1.38565136116800       -2.61352720443908        6.41104691040279
H           -0.29581388703259       -1.50160621838337        6.52400210217231
O           -2.46576761326433       -3.04912206170716        3.37527445210101
H           -2.16711151014416       -3.41264213242383        4.21315484639883
H           -1.97776607789168       -3.53090462924191        2.66717217448498
O            0.15546130470390       -4.97722421401840       -6.73142641219587
H            0.84595699807956       -4.36015357444018       -7.03054648260792
H           -0.09230038192815       -5.53117068782812       -7.46963302626405
O            4.67813744335351        6.81832277321703       -2.63991089241902
H            5.02586292555034        5.99159503908781       -2.26983311586425
H            4.34912608820630        7.31702167678969       -1.87631639309846
O            0.50616687554124        2.27497929094342       -5.70054359955998
H            0.79942907662165        3.09778712838817       -6.12826934463335
H            1.29804862802644        1.71578361956179       -5.58471600262792
O            4.89827702115688       -1.40847721978245       -2.28690952631301
H            5.55086731299556       -1.20692967410207       -2.97103353616171
H            4.18338441072928       -1.91743513954481       -2.71313288116280
O           -1.23300066275749       -4.16184859299790        1.31268222576081
H           -0.48983658256838       -4.76595076043398        1.47134596190425
H           -1.90220981475537       -4.68686493725599        0.83216033352891
O           -9.37469453512176       -1.94588556786418       -0.91459793651845
H          -10.28042775584069       -1.62246179844786       -1.07911692464993
H           -9.42244451759914       -2.74500147700692       -0.37588983708580
O           -7.40986916934611       -1.50901208718869        1.75356712937229
H           -6.88766497062819       -2.01233891007616        2.38399829930287
H           -7.11382056413127       -1.79064276352894        0.86432081344228
O           -2.61564891448165       -1.46021630682012        1.19113571134486
H           -2.48054235382350       -1.71740823244013        2.11054744620836
H           -3.28430211601900       -2.08302459779021        0.84613714552283
O            1.08367521220447        2.86696498060011       -3.19637064536305
H            2.03733443195577        2.82335575836812       -3.43670160855384
H            0.63130640036990        2.50556485075066       -3.98619896478512
O           -1.59002427085001        6.91009219272484       -2.64571509363559
H           -2.15054348776961        7.28430022649049       -1.95970511187529
H           -2.12703221327078        6.80357263188689       -3.44430749926003
O           -7.23315157523792        0.97027622787774        2.71921445924358
H           -8.13886389453251        1.16747987167338        3.01308108995564
H           -7.26928680309061        0.07466694076600        2.32909398953378
O            9.08078979579288        1.13775417865565        3.99596446324510
H            8.47120921650472        1.14039810602204        3.22944552323315
H            9.10885860042180        2.05993566152817        4.29223119163101
O           -2.77330199146495       -5.47913176890415       -0.40151839492618
H           -3.05446654926802       -6.40362895982615       -0.28078168047197
H           -1.96607258392591       -5.48169594869920       -0.94190218195873
O            2.70077600424951        1.85622371737071       -0.12965832180661
H            1.81923319267415        2.24348243541599       -0.27607176469534
H            2.95954517175591        1.46096455278023       -0.98813890444861
O            5.15423768570201        2.60543750555036        0.37015157849367
H            5.62820985069824        1.80360042492372        0.11796346690393
H            4.20252173586482        2.38560333548358        0.29352990713512
O            0.51333636028671       -6.62577672086538        4.13558181791106
H            0.60845566125411       -6.42821011838375        3.17515251605915
H            1.36322097588459       -6.37433780896092        4.52377830674415
O           -6.18637025155971       -6.94386780399671        4.27620489835010
H           -6.10192021049204       -7.21400664006437        3.35003561350925
H           -5.32560236327598       -6.59259517977752        4.54206869995354
O            1.25493671885382       -7.53419500679163       -5.07781920201792
H            0.31197139859240       -7.33527255232152       -5.13432098904011
H            1.71880968767639       -6.77085893152862       -5.45367965485016
O            1.59060329382741        4.57125716632271       -6.72100662791644
H            1.96650281971069        5.19656503638739       -6.08920218701578
H            2.34629337453128        4.06116452703720       -7.04821859083343
O            4.64077345507854        4.19563739799770       -1.78918155858348
H            4.60011976342332        3.61700586208753       -2.56205967343781
H            4.98067726003959        3.68214197218929       -1.03446536770794
O            2.60106997737100       -2.35945100830628       -3.31120483179928
H            2.62251191744576       -3.28495613568694       -2.99330237093432
H            2.17703612960421       -1.83620841809355       -2.59600217235254
O           -1.98232921604725        1.82509720905439       -3.30860756901053
H           -1.24386344725153        1.18495768708454       -3.30017416687033
H           -1.63255390857706        2.64285986003493       -2.91913873377068
O           -1.72589011676709       -3.35224679918285       -5.68419239785704
H           -1.03768301203825       -3.97663073503380       -5.97889691418783
H           -1.39544836105209       -2.90521294477220       -4.88553078607710
O            5.50099431276132        5.61177372871184        1.37871862472686
H            4.66852589421882        5.14294469900323        1.18815224627688
H            5.22984387153526        6.41661136169079        1.85025412529725
O           -3.28567185595516        6.23686310161332       -4.77604939352563
H           -2.51593705442885        6.03120274879247       -5.32990679160352
H           -3.93871066856851        5.55696934073927       -5.01513048193607
O            4.67232594520911        0.31452869635129        2.71837448627845
H            5.54652334997507        0.73389810234639        2.63947678389975
H            4.17392738982976        0.76289505208593        3.42453831840264
O           -2.47768627097917        3.61870272052371        5.63177726591161
H           -3.33514103671085        3.56503301505156        6.07182022849792
H           -2.50631701454102        2.88646144087416        4.97229456796704
O            4.11510415791999        3.39466637174172        6.34206476228107
H            4.10399862521833        4.26315621948729        5.91967078282616
H            4.99949239289704        3.02631344712536        6.13933853903142
O            0.08971171374590        0.14746913045455       -3.03407917949655
H            0.72001125618255       -0.07693646672286       -2.33670523463764
H           -0.28946176615024       -0.69841903151412       -3.29877311425768
O           -1.04611695237166        0.07822398320235       -5.79885046011952
H           -0.78011464804754        0.99950227404590       -5.94118821789564
H           -1.47339998115118       -0.27952855120071       -6.61179690926095
O           -1.32035474925044        4.23429766711363       -2.18805498968773
H           -1.65557451543214        4.33826058354513       -1.27905660367999
H           -1.05839129274285        5.12401734460357       -2.48374295160827
O           -0.19585867655254       -5.31040946370775       -1.23588278830865
H           -0.06209857107509       -6.19523765883518       -0.84969729228876
H            0.33059734150644       -4.67238786106913       -0.71595052705509
O            5.43551640038503       -4.46472346061786        3.90557697465351
H            6.01156860744152       -4.20163206612489        4.62785762869511
H            4.94896209367572       -3.64508897617417        3.66995340939766
O            2.32695699866078       -7.41136324484761        0.00861649211819
H            2.26219139908378       -7.39127136836170       -0.96254810514618
H            3.16898688092560       -6.97048551607484        0.21196054535937
O           -7.03038578344259        3.75442019118963        3.40421007345401
H           -6.44729598500572        3.17057997392300        2.86658445227330
H           -7.34444749084470        3.22344290102917        4.15252812684934
O            8.47630251366620        3.77467462235172        4.49307580447312
H            8.10680476386000        3.89011352911425        3.58002126942948
H            9.05058793553750        4.52167888077587        4.65373505989042
O            9.92583877953627        4.71637199383677       -1.71292133449943
H            9.12730832418903        4.16768943388756       -1.64876933963079
H           10.62412220329415        4.15055225435837       -2.05152927215950
O            9.90338966215147        4.17189606508253        0.96844999623746
H           10.10547179862935        3.25016182608277        0.73591338602149
H            9.95721344001800        4.66162742116588        0.12875093850936
O           -2.82084628591289       -0.45122173997602       -1.53479886112735
H           -2.82427371114420       -0.68412690156872       -2.48506780125664
H           -3.69368239859011       -0.67062913740878       -1.18021650402597
O            3.82710204375130        3.03622804756507       -6.88454017619932
H            4.58247220031348        3.63354177797170       -6.84063486424477
H            4.16325407114181        2.14786308384383       -7.05154208405472
O           -3.47948882130067       -1.01435873987318        5.33847793410377
H           -4.23083098987289       -0.52016060400653        4.99292041194657
H           -2.90983783736457       -0.37019061630991        5.78998030458016
O           -7.77545600626530        0.03632784589022       -1.83719206183294
H           -8.18766949763888       -0.81892979493940       -1.63537751848134
H           -7.60374068558305        0.03298033307669       -2.80182947656838
O           -7.66589688921397       -0.07000514188663       -4.50442850935160
H           -6.98875808664771        0.44173913633422       -5.00340514683589
H           -8.51398882284306        0.31182423400366       -4.74400154272351
O            6.98443848158055       -4.81638448016516        1.71732908367255
H            7.82663568714214       -4.55832121934337        2.11252273194680
H            6.34840246122578       -4.75306828867714        2.45774543989524
O            8.44049548574215       -2.70353469624927       -3.81778476226202
H            8.64017652514061       -3.12977480449371       -2.95907371561585
H            7.70333611355589       -3.21658346105661       -4.19845510996888
O           -5.17177732437213        3.22075477520020        6.05987508934300
H           -5.25966293984895        2.39314455636498        5.53362946556506
H           -6.03723936127317        3.35316143400928        6.45013904601356
O            1.54684097029555        6.71207652435598        2.53515239462820
H            1.27129656604046        6.18455069623945        3.30455431517130
H            0.76344421095307        7.00277329455730        2.04171355102272
O           -8.41291254211670        4.53453460697962        1.23873830518404
H           -7.90970262429371        5.34129910773375        0.98136686493324
H           -8.06579744715340        4.31601053271145        2.12669037274767
O           -3.12498029129877        4.08526714975456        2.48815950421918
H           -2.24635387799427        3.90217595946528        2.87161667802651
H           -3.64804258350045        4.60133380810644        3.13508867024729
O            4.12253403275630        7.67805208491156        2.50550017458679
H            4.15504398895051        8.17052473844736        1.67701225444465
H            3.18505704940348        7.43713220596592        2.60455316932421
O            0.43356013409212       -3.13771475250193        3.58134719727240
H           -0.07437305096839       -3.65584545705703        4.22071612046869
H            0.81381693376251       -2.36411578621608        4.05179169246907
O            7.10303752944987       -2.48648624123028        0.13302750155650
H            7.83160734876329       -2.02942471046882        0.61350537788593
H            6.71441764437941       -3.13925539204145        0.74165711874882
O           -2.19650867582594       -1.44479624156018       -7.58872547073809
H           -3.12834436177233       -1.26487641755806       -7.39401019562395
H           -1.99429777455065       -2.21262694815752       -7.02187469968720
O           -9.80825720835327        1.51750962378964        3.43021810094260
H          -10.38461874383199        0.75226692787856        3.48097739895805
H          -10.08372804307701        2.01752219896772        2.63254494966114
O            2.55833839014932        0.69735261239351       -4.88349530322719
H            3.33615578201687        0.61117312010701       -5.47257786314294
H            2.04576701984160       -0.13040343928191       -4.97238664868688
O           -1.12763107924348        5.07460537213959       -5.98870734326777
H           -1.55896226130117        4.18565279921401       -5.96155435650603
H           -0.43108875600899        5.01802955602621       -6.64905687553419
O            7.10627699665826       -0.16989839013939        5.26537309274858
H            6.59140803424929        0.66097041140021        5.29208342830977
H            8.00435586261806        0.13245039867378        5.04099721745031
O            3.53124191594452       -0.61372307861064        6.71086282943481
H            3.36250443835900       -0.09854188085575        7.50136400164691
H            3.45608787739579        0.01667405762849        5.96141615533256
O            2.67744868422734       -5.09228470164128       -5.19496302756660
H            2.58130242575807       -4.44640300268413       -5.89761848497179
H            1.91879875830561       -4.96673876813552       -4.58859191054755
O            5.58581797920289        5.00347993928540       -5.57894045280809
H            4.77362501674423        5.46201881051007       -5.32981872675508
H            6.23407511861802        5.23016209831860       -4.89009307431960
O            2.98929423565141       -4.65447917398776       -2.08156567243611
H            3.95864263985183       -4.59802381825407       -1.94853733244348
H            2.76920795843215       -5.56589769380519       -2.35655915494049
O            4.16527355395250       -2.10009572587848        3.81441255558530
H            4.53247247276766       -1.35555159036859        3.30075007556076
H            4.65475205799095       -2.10886767699844        4.66626579935482
O           -0.42452998187441       -7.79176038513578       -0.26352892062888
H            0.41659503401184       -8.21602333856189       -0.07776161916262
H           -0.85657611022872       -7.61673346465148        0.59750251273590
O            1.80571105585011       -1.01807839700115        4.34007971288395
H            1.80250062756005       -0.38102741244517        3.60937354988913
H            2.66832784338628       -1.48214334033661        4.24902905828430
O            9.05172385728627       -0.92690900350099        0.92909516008738
H            9.57696551815933       -1.03097151833050        1.74881588332300
H            9.67458740069572       -1.02195432413491        0.19713082165956
O           -7.98768796457378        2.14632951097395        5.49224291266131
H           -7.76041509501996        1.29526451027139        5.88176135790738
H           -8.79477829044649        1.99875926321442        4.98079144872906
O           -2.99741579885590       -3.20552686953931        6.77015620307464
H           -3.33766052640238       -2.47737777152457        6.20671740455407
H           -3.71515763310153       -3.43290543545455        7.36017230677858
O          -10.11061268250256        1.64191137014607       -4.30325108750315
H          -10.73050880902150        2.12948267703520       -4.84419460405275
H           -9.23910445721045        2.13930023558617       -4.34751964261247
O           -0.43281068787747       -2.56181130972529       -3.37680038632937
H           -0.57875824418991       -2.48531311704046       -2.40769136047882
H           -0.03805667525217       -3.45492575469294       -3.50153448520500
O            4.23019953776490        5.46242356979240        4.45432647295099
H            4.39173415628969        6.31117229285536        4.03187555086429
H            4.56775051161484        4.77699607302731        3.84064022688568
O           -8.78563411638621        4.26819088987005       -1.69126309696828
H           -8.75433351868803        4.64747488711800       -0.81017120019424
H           -9.16576490472450        3.37963641907193       -1.60615596946044
O           -4.27963731042352       -3.38986431042763        0.49801729605611
H           -3.83295801088380       -3.94144520295313       -0.16065156872838
H           -5.12148335988336       -3.09453821100867        0.09320946407440
O           -6.35050052153376        2.49853479066303       -2.13253581395086
H           -5.96466955416448        3.31566986716855       -1.76739753129719
H           -6.88993049140438        2.16214947164748       -1.39417831916571
O            0.14992097171925        3.41036139565012        6.45060113675013
H            0.63455144949880        4.04661771538330        5.89063038384040
H           -0.79955237007268        3.52833587690278        6.27972452538910
O            4.58912202720959       -5.89356172210240        0.29997700752978
H            5.31102406603613       -6.10142535655980        0.89654003852253
H            4.52307453338242       -4.91501002071037        0.32529983618756
O            5.58261776415943       -4.11648401833521       -1.81552392974645
H            5.63701159227143       -3.29551999845087       -1.31030812995621
H            5.80671362059746       -3.90204106475710       -2.75089918764154
O           -7.48656574342348       -4.61553785195608        4.30963937305142
H           -7.19651369860074       -5.53738642258194        4.47248555338602
H           -7.22616772526619       -4.46198383182151        3.38639988784237
O           -0.52928725443472        7.22947790221304        0.71254880409122
H            0.01709249368366        7.47841089958698       -0.06584214946188
H           -0.45052735499426        6.24466277936338        0.69850217014642
O           -8.07466095895784       -4.29491123766898       -2.00204384739215
H           -8.21082728449804       -3.68092952355916       -2.76280152180096
H           -8.94430072956673       -4.59321570705540       -1.73834437331857
O          -11.59616014443815       -0.44594342539115       -1.16433556896472
H          -11.96371462969593       -0.40501064807872       -0.26744496121913
H          -11.07317613952964        0.37546244745535       -1.26405813076353
O          -10.01482634297967       -1.96660613550101        2.44800180851854
H          -10.76282987340275       -1.41227259214728        2.19402741451707
H           -9.20171957823426       -1.52271785256369        2.12174850009400
O           -8.78494468907997       -2.20102891237072        4.88334473488841
H           -9.34908293365681       -2.09662518945938        4.10332059899614
H           -8.43837289692470       -3.10278198531747        4.82773041367718
O           -3.75615026480567       -5.47218263141683        2.25535196905995
H           -3.86278575897813       -5.27018111340957        3.20904406035016
H           -3.92052669160492       -4.66937082326342        1.73070920532869
O           -4.55551431487637       -1.16868587069132       -6.22651204828282
H           -5.04095369717563       -0.33360076069879       -6.26253268172402
H           -5.18505345084421       -1.87373803533017       -6.00030962976416
O            8.48708675893448        0.89665676369818       -5.69835416676088
H            8.52977370068767        1.67027748017940       -5.09106409764333
H            8.05068747925916        1.21397407154388       -6.48910467068451
O           -1.47260547129061       -6.59944200103512       -4.75041820496839
H           -1.75574584556561       -7.11667437132629       -3.97944264717738
H           -2.26798097235875       -6.21742436771292       -5.13768339273748
O           -5.05455344043649       -2.55876612035334        3.13219568486886
H           -5.39828361210182       -3.24401070547516        2.53840434521447
H           -4.08933047106198       -2.72993666015422        3.23311283882759
O           11.16027823248730        2.18942039253917       -2.64541553200441
H           11.57460031860763        1.46036087663852       -3.10863091007461
H           10.33852782032708        2.39251921585223       -3.14206327991369
O           -2.25065464670524       -7.71355905517189       -2.34969218753884
H           -1.46088048998491       -7.74301807265332       -1.78532114496337
H           -2.91439614363083       -8.18285592548189       -1.82665812284305
O           -5.71501229377138        1.27594896194552       -5.72141277907881
H           -5.81973618014150        2.23187175263542       -5.80381967358912
H           -5.19862579125160        1.14830510563834       -4.88732218064377
O            0.95370676826776        7.24659994699629       -1.49471886854490
H            0.28648038561754        7.27633879736649       -2.19286662236257
H            1.31324184994787        6.33689270294078       -1.54283791528928
O            1.57400690227218       -3.57125755093307       -0.13923685913086
H            2.17534082181551       -3.96268943771983       -0.80863908199564
H            2.02649800924638       -3.64452299652964        0.70718261207572
O            0.14193380912151        4.72243654483492        0.74917108893757
H           -0.03910382495431        4.34767652768061        1.63041300791787
H            0.08645487954333        4.01013708193413        0.09698937569416
O            2.05343706928285       -3.03604740851774       -7.17788648102659
H            1.61491506590081       -2.40276868488581       -6.53814997380494
H            2.01590749110502       -2.61886550898376       -8.03824434402600
O           -7.82315719645269        2.83558214263286       -4.34600696796517
H           -7.86786386665579        3.79602009578154       -4.37696536051542
H           -7.29894897016019        2.64825807129594       -3.53328418431960
O          -11.76663943500605        0.10435549095904        1.53591973696361
H          -10.83460901781471        0.30106312541076        1.26039589786646
H          -12.18325202584258        0.95692970320731        1.66971768491944
O            8.55006454539900        0.52193682717128       -1.98854457547226
H            9.02234034810945        0.04250888831997       -2.69166304793446
H            9.20105399232022        0.67610873135350       -1.28277693317970
O           -4.46310924807072        7.14519415349248        2.12291543992904
H           -4.75699783090711        6.52097805127122        2.79871156768247
H           -3.66599000598405        7.55414442508776        2.51928322523363
O           10.63396160706737       -3.73238789664560        0.88715123852830
H           10.02886707876650       -3.64003804667169        1.64041303551181
H           10.08753605373901       -3.86150297252767        0.10005257317239
O            2.56261919353404       -4.12158402338310        2.49715948956120
H            2.89812910718052       -4.62557197705950        3.26693889099023
H            1.80584269778999       -3.62338056908924        2.88801435538581
O            8.90574302029967       -3.28133069492615        3.00663343939514
H            9.61533825984056       -2.75891347716600        3.39724872061488
H            8.12858973209996       -2.67483261814101        2.99475096918241
O           -4.08292696506979       -5.63862194002846       -2.77217811198388
H           -3.43803348925213       -6.34753184558886       -2.62443746458754
H           -4.11236610576209       -5.47731747454488       -3.74003982453142
O            6.23055349638781        2.37844118575225       -5.23378623439791
H            6.03605605018329        3.31407016498896       -5.40293229243852
H            6.15901134525994        2.27178353256787       -4.26604082838337
O           -6.90610218060233       -0.72937322143033        6.08587541710213
H           -7.68787159440402       -1.12661371823215        5.64979849137342
H           -6.34047038587814       -1.50215584064479        6.25088307122765
O           10.58658230129107       -1.47383761620841       -1.44188380064234
H           10.67138457321046       -1.16595016226445       -2.35146088424624
H           10.14616057945507       -2.33557262697677       -1.48428770710800
O            8.90238618022515       -3.70179676023860       -1.36716766343888
H            8.58993677081402       -4.63316673739515       -1.32330486796025
H            8.19446402257577       -3.20552511241008       -0.88429219781293
O            3.21055432770918        1.32285389895099        4.81177136000118
H            2.27711112578494        1.46520824638327        4.56985769897933
H            3.49339102135897        2.11437855370929        5.30269729364137
O            5.59346513264574       -2.28357506868539        6.05278356924063
H            6.29595785664102       -1.62712986014576        5.92369515175152
H            4.92259243805824       -1.83145216920498        6.58621775845979
O           -1.76069228476385       -7.32385349681546        2.05479223793388
H           -2.42198527071473       -6.60708413958225        2.12949452540666
H           -1.25648464270912       -7.32950311237687        2.87063493936989
O           -9.41787028843781       -4.05959269297828        0.94092315570329
H           -9.69990801016397       -3.36526948091336        1.58410785852754
H           -9.82846484406133       -4.87691865879903        1.22200517704674
O           -5.38850425415599        0.01202796814928       -0.48275948032728
H           -5.00880627090865        0.89889910358053       -0.60626793172584
H           -6.26659858770532        0.02737547794683       -0.89797938891060
O           -5.98994992573854       -3.15625360880531       -5.05070763382121
H           -6.93259924892694       -3.34095979253367       -5.03664221838772
H           -5.80588110027685       -2.67520798724495       -4.20981246769464
O            3.06282068811458        5.84466219081675       -4.48591789801676
H            3.59944517185453        6.32942718003385       -3.81474146932943
H            2.13007409467798        5.89713694214430       -4.17885912267591
O            6.06487204104361       -3.71291717300970       -4.37836117057707
H            5.81358777084598       -4.64426640780190       -4.60718324050801
H            5.44044597431707       -3.12966705104049       -4.84874394928477
O          -10.83022585059205       -1.09423174970725       -3.77875386737250
H          -11.33459687940847       -1.02635738927307       -2.95941124045083
H          -10.64260687180930       -0.18587271391937       -4.04702405552734
O          -10.54159877321373        2.78174038815337        1.11932764950982
H          -10.35488959553192        2.39335916159675        0.25417234615545
H           -9.98291379118316        3.57126384642316        1.18060659739225
O           -3.55190372373590       -8.10646282669260        0.01233549070772
H           -4.39790357730760       -7.98218454060722        0.48806034457966
H           -2.90427356451698       -8.30251046506110        0.69786022641001
O           12.11176084866080        0.32567276327800        1.38955126271015
H           12.35178368904944       -0.55404444013635        0.97041181168189
H           12.93670359677805        0.77916648300873        1.55803033913926
O           -4.73836284944500        6.54182255172517       -2.38199027926982
H           -4.37142132329634        7.05177297263399       -1.65091590474321
H           -4.31073964397401        6.82395061512793       -3.20152166758579
O           -9.27085001863740        0.18691757194779        0.80885632229595
H           -9.12543958175950       -0.54096831234031        0.18525547658405
H           -8.67100885770162        0.91179818806949        0.54929210633891
O           -5.38651202849333       -1.72891314004040       -2.87167432368289
H           -5.11918216527574       -0.82094733333143       -3.09592746858526
H           -4.56201435027118       -2.22278368886463       -2.63605140511553
O           -1.23525909861581        5.85019858500856        4.80766833269508
H           -1.85248906110534        5.16444791795450        5.13825630164997
H           -0.81729329263421        6.25251870116957        5.56840946629377
O            7.43160514765004       -5.82879946347144       -0.84996089763813
H            6.69809012071672       -5.29637067771837       -1.22462322433121
H            7.38398221925984       -5.66781668097707        0.10330424118185
O            0.51597861660391        5.47204366352086       -3.87730614593639
H            0.62477762883785        4.53525547399869       -3.63178733670836
H           -0.09258187584600        5.46630027314363       -4.63763207133256
O            0.85071428162724       -5.90148442764071        1.60537119746747
H            1.31416227857256       -6.52935132017600        1.01352266446303
H            1.54221885850268       -5.25660704631191        1.87270890635320
O           -6.73347236382164       -4.28566445600686        1.66507978887773
H           -6.28684649958366       -4.72356948886142        0.92209049597418
H           -7.64394460510814       -4.14568098657070        1.35795678010955
O            2.09462556365049       -3.15337472785668        6.30073133502865
H            1.16671914667246       -2.89590154063765        6.19463531712616
H            2.58879772193317       -2.33523128292868        6.44318090637174
O            2.92983148662357       -5.28822577681531        4.85432240100482
H            3.89568518437524       -5.28863720561245        4.84840429829803
H            2.66005691517717       -4.54362514206075        5.43169836811780
O            0.44506405780555       -4.97561544570764       -3.73664393196021
H           -0.21124210234751       -5.49985206398646       -4.23249697321127
H            0.32612684140488       -5.22528975069075       -2.79165680566002
O           10.06795712984124       -0.58293915938704       -4.01377382031992
H            9.62390174918937       -1.44130237877015       -4.13573864232815
H            9.76787572389975       -0.04344370287821       -4.75906124975677
O           -6.72534960280181        6.42899051670663        0.46018727631210
H           -6.20034747666767        5.71221893399911        0.04486320543472
H           -6.12545297360648        6.87424247571386        1.06786162359568
O           -7.03198928026051        5.35300302834223       -3.51522250181465
H           -6.39625596672321        5.91628415914143       -3.05734347756684
H           -7.66075356950248        5.07269121657179       -2.82832638553363
O            7.17702501003792        1.25847475366749        2.08046669573887
H            7.22976049841160        2.23379264747118        1.98922766333756
H            7.16044783354360        0.88447910804442        1.18068090496999
O           10.51284077302237       -0.99128410095689        3.19942056786888
H           11.26349347327548       -0.59574038835755        2.73029619349426
H           10.08135765703493       -0.24511001145974        3.64907154530126
O           -5.61403495557810       -7.20900612285985        1.47661001548240
H           -6.01453496733081       -6.77893241501742        0.70749335736531
H           -4.93325298112967       -6.56931249975522        1.78905490872986
O            2.16649700139498        1.97953492497045        7.71247014868163
H            1.42678575827053        2.57825272210446        7.53842095345866
H            2.94586899162256        2.45622715274849        7.38846939659462
O           -5.07272141478647        4.02697222479694       -5.08022106098420
H           -5.88120858251154        4.50264745353779       -4.84485707883922
H           -4.66026840468765        3.83652552825177       -4.20812080409448
O           -7.54574515969946        2.15440181483670        0.26563866241087
H           -7.85000996184174        3.05093487887371        0.50968183661690
H           -7.03896484240784        1.84027101231166        1.03345750916734
O           -8.55678410526700       -2.59421335551309       -3.98714405126592
H           -8.04309589649546       -1.78214575971073       -4.13844878865267
H           -9.47383213958291       -2.27428580815846       -3.92993996803895
O            5.13519086617976       -7.14129514644779       -2.08721163033699
H            4.90441979272578       -6.64254385787583       -1.27796287848052
H            6.06803331310678       -7.34771041214157       -1.99089688081830
O            7.46886491148090        5.10094951768919       -3.53247536966035
H            8.22431622130953        5.68466368543137       -3.62107263108965
H            7.11376441200155        5.30268819299106       -2.63907290880178
O            5.13245539857509       -6.12001877861568       -4.66133081020736
H            4.21432867596208       -5.87197895050828       -4.86383585681353
H            5.12966421610154       -6.49892581026251       -3.76633846092903
O           -9.88707822383264        1.67955031890819       -1.59997525217111
H          -10.12661517003440        1.74188867341643       -2.54140370440466
H           -9.05858351870460        1.14203089741720       -1.59478097467972
O            8.73693516164759        2.68359833950657       -3.71883582095355
H            8.23455280473321        3.52329034645460       -3.68344183574844
H            8.35600899390342        2.09188979439725       -3.04622506377855
O            0.69656856510494       -0.01193574417755        6.63297528438573
H            1.17797158237866       -0.30852798230351        5.83222815997391
H            1.27923152733154        0.61689085173852        7.09512899949680
O            6.50259367067607        0.11434208850102       -0.29030379213641
H            7.15628260211393        0.27247101125294       -0.99489768118516
H            6.58259235381128       -0.84281537776331       -0.11808615730832
O            4.47148669842011       -3.27064704807567        0.78852687115509
H            4.27887364994088       -2.34954318750945        0.53207638070775
H            3.96947962629058       -3.42371042866571        1.60138672544882
O           -4.60992316807743        0.89849556875340       -3.38876908767859
H           -5.17847886365125        1.51328889883359       -2.87911928050086
H           -3.69812985067216        1.23321756765975       -3.38260948991754
O            3.44206346747682        7.57965054489981       -0.27209443276330
H            2.58344733988940        7.73998003932029       -0.68666332145852
H            3.42200467175251        6.66092224105196        0.02778059036771
O           -3.07734593757682        7.44471470095907       -0.21941280678785
H           -2.18610713538843        7.60176193250728        0.15564199943552
H           -3.69158912730768        7.49003016055140        0.53482102832476
O           -4.91668282809442        5.19181554296681        4.12072012655121
H           -5.76680959729368        4.82860470635402        3.78756378861608
H           -4.80831181840765        4.73263292882787        4.96681406197480
O           -5.21156959703286        2.57182112126785        1.84937351157221
H           -4.39794878732861        3.03747930215267        2.11840840288971
H           -5.07533624118640        1.62050329451483        2.01923317276181
O            1.02940873291831       -1.42874452028529       -5.43223048693204
H            0.81468431057856       -1.90780631782665       -4.61470983249624
H            0.23358403414634       -0.86228783748276       -5.62131012386618
O            4.83738012702219        3.22895978502697        3.01837664815462
H            3.87549930030010        3.03411725128464        3.02330442815856
H            5.12382432916019        3.10818902768758        2.09502778695953
O           -2.02567716254339        7.81791363010707        3.00801411989397
H           -1.76394518393385        7.13529660301463        3.64490802902336
H           -1.42407920501100        7.74494919172991        2.25576631241218
O           -2.50121326869856        2.80696092224399       -5.79349380418089
H           -2.32090631702422        2.38778456524479       -4.92910520855887
H           -3.42500695203139        3.07367551077071       -5.79630063633458
O           12.59748381657172       -1.96390176227666        0.28668697767240
H           12.09917259823241       -1.79372972686969       -0.53046717453421
H           12.08666324052522       -2.68102032589353        0.70909094148920
O            4.17316273380747       -2.11855614060643       -5.48741804614838
H            3.70133154058518       -2.50368295397778       -6.23432735824744
H            3.53099790868529       -2.12206533266772       -4.75018646218562
O           -3.69617755635541        2.04714543193591       -0.90114273559925
H           -3.79679888939330        2.81503201571831       -1.49347033148906
H           -3.21934049591166        1.35907545388269       -1.39612272403012
O           -3.90458848439493        4.00474437183570       -2.71895586833298
H           -4.30348578885112        4.86234614442721       -2.47826463765622
H           -2.93642174087438        4.15549404795525       -2.73231544589002
O            7.52102197098668        3.90331433269957        2.04262952563881
H            8.35903376407032        4.10521263866387        1.56079283752232
H            6.84492630231116        4.55386176871648        1.78019494660275
O            6.82778745825027       -0.52537633580486       -4.02490382991154
H            7.28127879098749       -0.01387198652389       -4.71839845164334
H            7.40477256161495       -1.29793896384955       -3.87471751075782
O           -6.55605249248523       -2.51045801565585       -0.60810321549149
H           -7.15999491669789       -3.17815382168300       -0.97244564216323
H           -6.16905224492508       -2.06985576249957       -1.39213319210829
O           -2.77410855456859       -1.13106525201511       -4.14326246127749
H           -2.09138854627343       -0.61474455182261       -4.60372749930820
H           -3.48304011893744       -1.20760031179381       -4.80685472101081
O           -5.97100182280007       -5.54802813316087       -0.70782015708182
H           -5.22567477027325       -5.62322427586211       -1.32583628346598
H           -6.71737706872257       -5.25883840338196       -1.24969613141463
O            2.41001832964494       -7.20416641638166       -2.69524685979027
H            1.93670768881456       -7.40722247832781       -3.53527666600789
H            3.30454784715331       -7.55325141246221       -2.78344077217077
O           -5.63535520854289       -3.18172171716439        5.67729341333679
H           -5.37482181490920       -2.77854412058731        4.82412525267436
H           -6.40638613432555       -3.72982890149049        5.43908293551862
O            4.77266031011726        0.45172814665011       -6.34967147618326
H            5.41761824401583        1.02919763529877       -5.88632279862781
H            4.91175948086457       -0.45730187462279       -6.04424541676820
O            6.90664333103009       -1.52131031907612        2.94316212878701
H            6.89498958071387       -1.10766988626310        3.82803188069911
H            7.24415415460777       -0.84060368793001        2.35416021995419
O           -1.18542969249690       -4.89466951772130        5.10716589361845
H           -1.00360572234875       -4.80000723756163        6.04235531682933
H           -0.59439495913638       -5.61624762056378        4.76645458508237
 
 Bond Distances (Angstroems)
 ---------------------------
H1-C2=1.0850         C2-H1=1.0850         C2-H3=1.0884         C2-C4=1.5252         C2-O7=1.4257         H3-C2=1.0884         
C4-C2=1.5252         C4-H5=1.0831         C4-H6=1.0836         C4-N9=1.4619         H5-C4=1.0831         H6-C4=1.0836         
O7-C2=1.4257         O7-H8=0.9801         H8-O7=0.9801         N9-C4=1.4619         N9-H10=1.0557        N9-H11=1.0374        
N9-H12=1.0404        H10-N9=1.0557        H11-N9=1.0374        H12-N9=1.0404        O13-H14=0.9782       O13-H15=0.9799       
H14-O13=0.9782       H15-O13=0.9799       O16-H17=0.9858       O16-H18=0.9673       H17-O16=0.9858       H18-O16=0.9673       
O19-H20=0.9620       O19-H21=0.9726       H20-O19=0.9620       H21-O19=0.9726       O22-H23=0.9854       O22-H24=0.9679       
H23-O22=0.9854       H24-O22=0.9679       O25-H26=0.9723       O25-H27=0.9775       H26-O25=0.9723       H27-O25=0.9775       
O28-H29=0.9715       O28-H30=0.9805       H29-O28=0.9715       H30-O28=0.9805       O31-H32=0.9781       O31-H33=0.9719       
H32-O31=0.9781       H33-O31=0.9719       O34-H35=0.9680       O34-H36=0.9680       H35-O34=0.9680       H36-O34=0.9680       
O37-H38=0.9720       O37-H39=0.9769       H38-O37=0.9720       H39-O37=0.9769       O40-H41=0.9639       O40-H42=0.9783       
H41-O40=0.9639       H42-O40=0.9783       O43-H44=0.9633       O43-H45=0.9874       H44-O43=0.9633       H45-O43=0.9874       
O46-H47=0.9739       O46-H48=0.9832       H47-O46=0.9739       H48-O46=0.9832       O49-H50=0.9680       O49-H51=0.9755       
H50-O49=0.9680       H51-O49=0.9755       O52-H53=0.9739       O52-H54=0.9799       H53-O52=0.9739       H54-O52=0.9799       
O55-H56=0.9733       O55-H57=0.9821       H56-O55=0.9733       H57-O55=0.9821       O58-H59=0.9662       O58-H60=0.9788       
H59-O58=0.9662       H60-O58=0.9788       O61-H62=0.9700       O61-H63=0.9762       H62-O61=0.9700       H63-O61=0.9762       
O64-H65=0.9777       O64-H66=0.9692       H65-O64=0.9777       H66-O64=0.9692       O67-H68=0.9690       O67-H69=0.9759       
H68-O67=0.9690       H69-O67=0.9759       O70-H71=0.9552       O70-H72=0.9807       H71-O70=0.9552       H72-O70=0.9807       
O73-H74=0.9837       O73-H75=0.9681       H74-O73=0.9837       H75-O73=0.9681       O76-H77=0.9791       O76-H78=0.9752       
H77-O76=0.9791       H78-O76=0.9752       O79-H80=0.9869       O79-H81=0.9849       H80-O79=0.9869       H81-O79=0.9849       
O82-H83=0.9798       O82-H84=0.9675       H83-O82=0.9798       H84-O82=0.9675       O85-H86=0.9742       O85-H87=0.9761       
H86-O85=0.9742       H87-O85=0.9761       O88-H89=0.9764       O88-H90=0.9761       H89-O88=0.9764       H90-O88=0.9761       
O91-H92=0.9712       O91-H93=0.9763       H92-O91=0.9712       H93-O91=0.9763       O94-H95=0.9822       O94-H96=0.9815       
H95-O94=0.9822       H96-O94=0.9815       O97-H98=0.9677       O97-H99=0.9661       H98-O97=0.9677       H99-O97=0.9661       
O100-H101=0.9609     O100-H102=0.9857     H101-O100=0.9609     H102-O100=0.9857     O103-H104=0.9732     O103-H105=0.9556     
H104-O103=0.9732     H105-O103=0.9556     O106-H107=0.9702     O106-H108=0.9695     H107-O106=0.9702     H108-O106=0.9695     
O109-H110=0.9726     O109-H111=0.9763     H110-O109=0.9726     H111-O109=0.9763     O112-H113=0.9667     O112-H114=0.9756     
H113-O112=0.9667     H114-O112=0.9756     O115-H116=0.9708     O115-H117=0.9769     H116-O115=0.9708     H117-O115=0.9769     
O118-H119=0.9757     O118-H120=0.9649     H119-O118=0.9757     H120-O118=0.9649     O121-H122=0.9610     O121-H123=0.9786     
H122-O121=0.9610     H123-O121=0.9786     O124-H125=0.9642     O124-H126=0.9767     H125-O124=0.9642     H126-O124=0.9767     
O127-H128=0.9844     O127-H129=0.9793     H128-O127=0.9844     H129-O127=0.9793     O130-H131=0.9617     O130-H132=0.9682     
H131-O130=0.9617     H132-O130=0.9682     O133-H134=0.9724     O133-H135=0.9776     H134-O133=0.9724     H135-O133=0.9776     
O136-H137=0.9794     O136-H138=0.9690     H137-O136=0.9794     H138-O136=0.9690     O139-H140=0.9738     O139-H141=0.9714     
H140-O139=0.9738     H141-O139=0.9714     O142-H143=0.9739     O142-H144=0.9799     H143-O142=0.9739     H144-O142=0.9799     
O145-H146=0.9650     O145-H147=0.9798     H146-O145=0.9650     H147-O145=0.9798     O148-H149=0.9851     O148-H150=0.9676     
H149-O148=0.9851     H150-O148=0.9676     O151-H152=0.9685     O151-H153=0.9670     H152-O151=0.9685     H153-O151=0.9670     
O154-H155=0.9654     O154-H156=0.9691     H155-O154=0.9654     H156-O154=0.9691     O157-H158=0.9651     O157-H159=0.9687     
H158-O157=0.9651     H159-O157=0.9687     O160-H161=0.9663     O160-H162=0.9741     H161-O160=0.9663     H162-O160=0.9741     
O163-H164=0.9788     O163-H165=0.9824     H164-O163=0.9788     H165-O163=0.9824     O166-H167=0.9773     O166-H168=0.9710     
H167-O166=0.9773     H168-O166=0.9710     O169-H170=0.9749     O169-H171=0.9731     H170-O169=0.9749     H171-O169=0.9731     
O172-H173=0.9742     O172-H174=0.9714     H173-O172=0.9742     H174-O172=0.9714     O175-H176=0.9703     O175-H177=0.9726     
H176-O175=0.9703     H177-O175=0.9726     O178-H179=0.9728     O178-H180=0.9737     H179-O178=0.9728     H180-O178=0.9737     
O181-H182=0.9653     O181-H183=0.9859     H182-O181=0.9653     H183-O181=0.9859     O184-H185=0.9658     O184-H186=0.9792     
H185-O184=0.9658     H186-O184=0.9792     O187-H188=0.9664     O187-H189=0.9640     H188-O187=0.9664     H189-O187=0.9640     
O190-H191=0.9694     O190-H192=0.9856     H191-O190=0.9694     H192-O190=0.9856     O193-H194=0.9744     O193-H195=0.9735     
H194-O193=0.9744     H195-O193=0.9735     O196-H197=0.9747     O196-H198=0.9770     H197-O196=0.9747     H198-O196=0.9770     
O199-H200=0.9606     O199-H201=0.9819     H200-O199=0.9606     H201-O199=0.9819     O202-H203=0.9735     O202-H204=0.9720     
H203-O202=0.9735     H204-O202=0.9720     O205-H206=0.9848     O205-H207=0.9698     H206-O205=0.9848     H207-O205=0.9698     
O208-H209=0.9917     O208-H210=0.9558     H209-O208=0.9917     H210-O208=0.9558     O211-H212=0.9710     O211-H213=0.9604     
H212-O211=0.9710     H213-O211=0.9604     O214-H215=0.9719     O214-H216=0.9736     H215-O214=0.9719     H216-O214=0.9736     
O217-H218=0.9784     O217-H219=0.9673     H218-O217=0.9784     H219-O217=0.9673     O220-H221=0.9640     O220-H222=0.9644     
H221-O220=0.9640     H222-O220=0.9644     O223-H224=0.9634     O223-H225=0.9712     H224-O223=0.9634     H225-O223=0.9712     
O226-H227=0.9706     O226-H228=0.9798     H227-O226=0.9706     H228-O226=0.9798     O229-H230=0.9846     O229-H231=0.9604     
H230-O229=0.9846     H231-O229=0.9604     O232-H233=0.9654     O232-H234=0.9781     H233-O232=0.9654     H234-O232=0.9781     
O235-H236=0.9793     O235-H237=0.9755     H236-O235=0.9793     H237-O235=0.9755     O238-H239=0.9847     O238-H240=0.9586     
H239-O238=0.9847     H240-O238=0.9586     O241-H242=0.9727     O241-H243=0.9704     H242-O241=0.9727     H243-O241=0.9704     
O244-H245=0.9851     O244-H246=0.9781     H245-O244=0.9851     H246-O244=0.9781     O247-H248=0.9760     O247-H249=0.9790     
H248-O247=0.9760     H249-O247=0.9790     O250-H251=0.9644     O250-H252=0.9730     H251-O250=0.9644     H252-O250=0.9730     
O253-H254=0.9671     O253-H255=0.9820     H254-O253=0.9671     H255-O253=0.9820     O256-H257=0.9852     O256-H258=0.9734     
H257-O256=0.9852     H258-O256=0.9734     O259-H260=0.9688     O259-H261=0.9756     H260-O259=0.9688     H261-O259=0.9756     
O262-H263=0.9594     O262-H264=0.9809     H263-O262=0.9594     H264-O262=0.9809     O265-H266=0.9795     O265-H267=0.9777     
H266-O265=0.9795     H267-O265=0.9777     O268-H269=0.9884     O268-H270=0.9615     H269-O268=0.9884     H270-O268=0.9615     
O271-H272=0.9778     O271-H273=0.9738     H272-O271=0.9778     H273-O271=0.9738     O274-H275=0.9585     O274-H276=0.9822     
H275-O274=0.9585     H276-O274=0.9822     O277-H278=0.9592     O277-H279=0.9793     H278-O277=0.9592     H279-O277=0.9793     
O280-H281=0.9654     O280-H282=0.9727     H281-O280=0.9654     H282-O280=0.9727     O283-H284=0.9801     O283-H285=0.9771     
H284-O283=0.9801     H285-O283=0.9771     O286-H287=0.9762     O286-H288=0.9825     H287-O286=0.9762     H288-O286=0.9825     
O289-H290=0.9602     O289-H291=0.9791     H290-O289=0.9602     H291-O289=0.9791     O292-H293=0.9694     O292-H294=0.9837     
H293-O292=0.9694     H294-O292=0.9837     O295-H296=0.9791     O295-H297=0.9658     H296-O295=0.9791     H297-O295=0.9658     
O298-H299=0.9632     O298-H300=0.9668     H299-O298=0.9632     H300-O298=0.9668     O301-H302=0.9815     O301-H303=0.9565     
H302-O301=0.9815     H303-O301=0.9565     O304-H305=0.9564     O304-H306=1.0044     H305-O304=0.9564     H306-O304=1.0044     
O307-H308=0.9830     O307-H309=0.9844     H308-O307=0.9830     H309-O307=0.9844     O310-H311=0.9617     O310-H312=0.9800     
H311-O310=0.9617     H312-O310=0.9800     O313-H314=0.9598     O313-H315=0.9702     H314-O313=0.9598     H315-O313=0.9702     
O316-H317=0.9683     O316-H318=0.9797     H317-O316=0.9683     H318-O316=0.9797     O319-H320=0.9746     O319-H321=0.9743     
H320-O319=0.9746     H321-O319=0.9743     O322-H323=0.9763     O322-H324=0.9719     H323-O322=0.9763     H324-O322=0.9719     
O325-H326=0.9593     O325-H327=0.9811     H326-O325=0.9593     H327-O325=0.9811     O328-H329=0.9655     O328-H330=0.9855     
H329-O328=0.9655     H330-O328=0.9855     O331-H332=0.9800     O331-H333=0.9715     H332-O331=0.9800     H333-O331=0.9715     
O334-H335=0.9831     O334-H336=0.9881     H335-O334=0.9831     H336-O334=0.9881     O337-H338=0.9870     O337-H339=0.9564     
H338-O337=0.9870     H339-O337=0.9564     O340-H341=0.9701     O340-H342=0.9789     H341-O340=0.9701     H342-O340=0.9789     
O343-H344=0.9650     O343-H345=0.9822     H344-O343=0.9650     H345-O343=0.9822     O346-H347=0.9683     O346-H348=0.9677     
H347-O346=0.9683     H348-O346=0.9677     O349-H350=0.9807     O349-H351=0.9730     H350-O349=0.9807     H351-O349=0.9730     
O352-H353=0.9666     O352-H354=0.9719     H353-O352=0.9666     H354-O352=0.9719     O355-H356=0.9844     O355-H357=0.9573     
H356-O355=0.9844     H357-O355=0.9573     O358-H359=0.9706     O358-H360=0.9636     H359-O358=0.9706     H360-O358=0.9636     
O361-H362=0.9697     O361-H363=0.9855     H362-O361=0.9697     H363-O361=0.9855     O364-H365=0.9580     O364-H366=0.9814     
H365-O364=0.9580     H366-O364=0.9814     O367-H368=0.9711     O367-H369=0.9666     H368-O367=0.9711     H369-O367=0.9666     
O370-H371=0.9652     O370-H372=0.9893     H371-O370=0.9652     H372-O370=0.9893     O373-H374=0.9662     O373-H375=0.9794     
H374-O373=0.9662     H375-O373=0.9794     O376-H377=0.9813     O376-H378=0.9626     H377-O376=0.9813     H378-O376=0.9626     
O379-H380=0.9746     O379-H381=0.9674     H380-O379=0.9746     H381-O379=0.9674     O382-H383=1.0013     O382-H384=0.9569     
H383-O382=1.0013     H384-O382=0.9569     O385-H386=0.9620     O385-H387=0.9851     H386-O385=0.9620     H387-O385=0.9851     
O388-H389=0.9916     O388-H390=0.9583     H389-O388=0.9916     H390-O388=0.9583     O391-H392=0.9733     O391-H393=0.9725     
H392-O391=0.9733     H393-O391=0.9725     O394-H395=0.9658     O394-H396=0.9797     H395-O394=0.9658     H396-O394=0.9797     
O397-H398=0.9706     O397-H399=0.9668     H398-O397=0.9706     H399-O397=0.9668     O400-H401=0.9794     O400-H402=0.9868     
H401-O400=0.9794     H402-O400=0.9868     O403-H404=0.9639     O403-H405=0.9859     H404-O403=0.9639     H405-O403=0.9859     
O406-H407=0.9697     O406-H408=0.9817     H407-O406=0.9697     H408-O406=0.9817     O409-H410=0.9705     O409-H411=0.9762     
H410-O409=0.9705     H411-O409=0.9762     O412-H413=0.9794     O412-H414=0.9718     H413-O412=0.9794     H414-O412=0.9718     
O415-H416=0.9640     O415-H417=0.9687     H416-O415=0.9640     H417-O415=0.9687     O418-H419=0.9834     O418-H420=0.9903     
H419-O418=0.9834     H420-O418=0.9903     O421-H422=0.9747     O421-H423=0.9734     H422-O421=0.9747     H423-O421=0.9734     
O424-H425=0.9701     O424-H426=0.9690     H425-O424=0.9701     H426-O424=0.9690     O427-H428=0.9781     O427-H429=0.9591     
H428-O427=0.9781     H429-O427=0.9591     O430-H431=0.9876     O430-H432=0.9569     H431-O430=0.9876     H432-O430=0.9569     
O433-H434=0.9726     O433-H435=0.9714     H434-O433=0.9726     H435-O433=0.9714     O436-H437=0.9607     O436-H438=0.9861     
H437-O436=0.9607     H438-O436=0.9861     O439-H440=0.9866     O439-H441=0.9834     H440-O439=0.9866     H441-O439=0.9834     
O442-H443=0.9914     O442-H444=0.9754     H443-O442=0.9914     H444-O442=0.9754     O445-H446=0.9645     O445-H447=0.9655     
H446-O445=0.9645     H447-O445=0.9655     O448-H449=0.9665     O448-H450=0.9691     H449-O448=0.9665     H450-O448=0.9691     
O451-H452=0.9785     O451-H453=0.9632     H452-O451=0.9785     H453-O451=0.9632     O454-H455=1.0036     O454-H456=0.9563     
H455-O454=1.0036     H456-O454=0.9563     O457-H458=0.9639     O457-H459=0.9665     H458-O457=0.9639     H459-O457=0.9665     
O460-H461=0.9695     O460-H462=0.9760     H461-O460=0.9695     H462-O460=0.9760     O463-H464=0.9727     O463-H465=0.9896     
H464-O463=0.9727     H465-O463=0.9896     O466-H467=0.9801     O466-H468=0.9567     H467-O466=0.9801     H468-O466=0.9567     
O469-H470=0.9808     O469-H471=0.9679     H470-O469=0.9808     H471-O469=0.9679     O472-H473=0.9745     O472-H474=0.9739     
H473-O472=0.9745     H474-O472=0.9739     O475-H476=0.9794     O475-H477=0.9826     H476-O475=0.9794     H477-O475=0.9826     
O478-H479=0.9712     O478-H480=0.9710     H479-O478=0.9712     H480-O478=0.9710     O481-H482=0.9688     O481-H483=0.9664     
H482-O481=0.9688     H483-O481=0.9664     O484-H485=0.9659     O484-H486=0.9801     H485-O484=0.9659     H486-O484=0.9801     
O487-H488=0.9754     O487-H489=0.9846     H488-O487=0.9754     H489-O487=0.9846     O490-H491=0.9741     O490-H492=0.9678     
H491-O490=0.9741     H492-O490=0.9678     O493-H494=0.9808     O493-H495=0.9630     H494-O493=0.9808     H495-O493=0.9630     
O496-H497=0.9649     O496-H498=0.9725     H497-O496=0.9649     H498-O496=0.9725     O499-H500=0.9810     O499-H501=0.9746     
H500-O499=0.9810     H501-O499=0.9746     O502-H503=0.9695     O502-H504=0.9722     H503-O502=0.9695     H504-O502=0.9722     
O505-H506=0.9679     O505-H507=0.9850     H506-O505=0.9679     H507-O505=0.9850     O508-H509=0.9674     O508-H510=0.9693     
H509-O508=0.9674     H510-O508=0.9693     O511-H512=0.9671     O511-H513=0.9833     H512-O511=0.9671     H513-O511=0.9833     
O514-H515=0.9777     O514-H516=0.9721     H515-O514=0.9777     H516-O514=0.9721     O517-H518=0.9727     O517-H519=0.9729     
H518-O517=0.9727     H519-O517=0.9729     O520-H521=0.9782     O520-H522=0.9602     H521-O520=0.9782     H522-O520=0.9602     
O523-H524=0.9588     O523-H525=0.9823     H524-O523=0.9588     H525-O523=0.9823     O526-H527=0.9724     O526-H528=0.9719     
H527-O526=0.9724     H528-O526=0.9719     O529-H530=0.9734     O529-H531=0.9876     H530-O529=0.9734     H531-O529=0.9876     
O532-H533=0.9791     O532-H534=0.9735     H533-O532=0.9791     H534-O532=0.9735     O535-H536=0.9803     O535-H537=0.9739     
H536-O535=0.9803     H537-O535=0.9739     O538-H539=0.9740     O538-H540=0.9758     H539-O538=0.9740     H540-O538=0.9758     
O541-H542=0.9753     O541-H543=0.9676     H542-O541=0.9753     H543-O541=0.9676     O544-H545=0.9803     O544-H546=0.9713     
H545-O544=0.9803     H546-O544=0.9713     O547-H548=0.9668     O547-H549=0.9666     H548-O547=0.9668     H549-O547=0.9666     
O550-H551=0.9796     O550-H552=0.9738     H551-O550=0.9796     H552-O550=0.9738     O553-H554=0.9827     O553-H555=0.9687     
H554-O553=0.9827     H555-O553=0.9687     O556-H557=0.9753     O556-H558=0.9759     H557-O556=0.9753     H558-O556=0.9759     
O559-H560=0.9716     O559-H561=0.9950     H560-O559=0.9716     H561-O559=0.9950     O562-H563=0.9814     O562-H564=0.9743     
H563-O562=0.9814     H564-O562=0.9743     O565-H566=0.9696     O565-H567=0.9660     H566-O565=0.9696     H567-O565=0.9660     
O568-H569=0.9774     O568-H570=0.9615     H569-O568=0.9774     H570-O568=0.9615     O571-H572=0.9721     O571-H573=0.9765     
H572-O571=0.9721     H573-O571=0.9765     O574-H575=0.9638     O574-H576=0.9777     H575-O574=0.9638     H576-O574=0.9777     
O577-H578=0.9750     O577-H579=0.9725     H578-O577=0.9750     H579-O577=0.9725     O580-H581=0.9760     O580-H582=0.9799     
H581-O580=0.9760     H582-O580=0.9799     O583-H584=0.9875     O583-H585=0.9743     H584-O583=0.9875     H585-O583=0.9743     
O586-H587=0.9738     O586-H588=0.9759     H587-O586=0.9738     H588-O586=0.9759     O589-H590=0.9712     O589-H591=0.9791     
H590-O589=0.9712     H591-O589=0.9791     O592-H593=0.9720     O592-H594=0.9741     H593-O592=0.9720     H594-O592=0.9741     
O595-H596=0.9711     O595-H597=0.9666     H596-O595=0.9711     H597-O595=0.9666     O598-H599=0.9853     O598-H600=0.9643     
H599-O598=0.9853     H600-O598=0.9643     O601-H602=0.9789     O601-H603=0.9755     H602-O601=0.9789     H603-O601=0.9755     
O604-H605=0.9819     O604-H606=0.9690     H605-O604=0.9819     H606-O604=0.9690     O607-H608=0.9768     O607-H609=0.9614     
H608-O607=0.9768     H609-O607=0.9614     O610-H611=0.9574     O610-H612=0.9930     H611-O610=0.9574     H612-O610=0.9930     
 C  H  Rav=1.0851 sigma=0.0021  Rmin=1.0831  Rmax=1.0884     4
 C  C  Rav=1.5252 sigma=0.0000  Rmin=1.5252  Rmax=1.5252     1
 N  H  Rav=1.0445 sigma=0.0080  Rmin=1.0374  Rmax=1.0557     3
 N  C  Rav=1.4619 sigma=0.0000  Rmin=1.4619  Rmax=1.4619     1
 O  H  Rav=0.9736 sigma=0.0083  Rmin=0.9552  Rmax=1.0044   401
 O  C  Rav=1.4257 sigma=0.0000  Rmin=1.4257  Rmax=1.4257     1
 
 selected bond angles (degree)
 --------------------
H3-C2-H1=108.24                C4-C2-H1=109.99                C4-C2-H3=111.30                O7-C2-H1=110.15                
O7-C2-H3=109.25                O7-C2-C4=107.92                H5-C4-C2=107.85                H6-C4-C2=110.93                
H6-C4-H5=108.76                N9-C4-C2=112.40                N9-C4-H5=107.39                N9-C4-H6=109.38                
H8-O7-C2=110.98                H10-N9-C4=112.08               H11-N9-C4=109.55               H11-N9-H10=108.66              
H12-N9-C4=108.66               H12-N9-H10=107.07              H12-N9-H11=110.82              
 
 selected dihedral angles (degree)
 ---------------------------------
H5-C4-C2-H1=253.68            H5-C4-C2-H3=133.74            H5-C4-C2-O7= 13.88            H6-C4-C2-H1=134.68            
H6-C4-C2-H3= 14.73            H6-C4-C2-O7=254.87            N9-C4-C2-H1= 11.87            N9-C4-C2-H3=251.92            
N9-C4-C2-O7=132.06            H8-O7-C2-H1=316.75            H8-O7-C2-H3= 75.52            H8-O7-C2-C4=196.67            
H10-N9-C4-C2= 60.76           H10-N9-C4-H5=179.22           H10-N9-C4-H6=297.08           H11-N9-C4-C2=300.07           
H11-N9-C4-H5= 58.53           H11-N9-C4-H6=176.39           H12-N9-C4-C2=178.88           H12-N9-C4-H5=297.34           
H12-N9-C4-H6= 55.20           
 
 CMA Distance (Angstroems)
 ---------------------------
R(CMA):  1.9367
           -------------------------------------------------
          |                Final Singlepoint                |
           -------------------------------------------------

          ...................................................
          :                      SETUP                      :
          :.................................................:
          :  # basis functions                1224          :
          :  # atomic orbitals                1224          :
          :  # shells                          816          :
          :  # electrons                      1626          :
          :  max. iterations                   250          :
          :  Hamiltonian                  GFN2-xTB          :
          :  restarted?                      false          :
          :  GBSA solvation                  false          :
          :  PC potential                    false          :
          :  electronic temp.          300.0000000     K    :
          :  accuracy                    1.0000000          :
          :  -> integral cutoff          0.2500000E+02      :
          :  -> integral neglect         0.1000000E-07      :
          :  -> SCF convergence          0.1000000E-05 Eh   :
          :  -> wf. convergence          0.1000000E-03 e    :
          :  Broyden damping             0.4000000          :
          ...................................................

 iter      E             dE          RMSdq      gap      omega  full diag
   1  -1039.8107076 -0.103981E+04  0.578E-06    8.07       0.0  T
   2  -1039.8107076 -0.477485E-11  0.353E-06    8.07    1144.3  T
   3  -1039.8107076  0.227374E-12  0.423E-07    8.07    9553.1  T

   *** convergence criteria satisfied after 3 iterations ***

         #    Occupation            Energy/Eh            Energy/eV
      -------------------------------------------------------------
         1        2.0000           -0.7407947             -20.1580
       ...           ...                  ...                  ...
       807        2.0000           -0.4613621             -12.5543
       808        2.0000           -0.4612930             -12.5524
       809        2.0000           -0.4606749             -12.5356
       810        2.0000           -0.4597071             -12.5093
       811        2.0000           -0.4576388             -12.4530
       812        2.0000           -0.4555245             -12.3955
       813        2.0000           -0.4515870             -12.2883 (HOMO)
       814                         -0.1551593              -4.2221 (LUMO)
       815                         -0.1429267              -3.8892
       816                         -0.1314722              -3.5775
       817                         -0.1300200              -3.5380
       818                         -0.1214563              -3.3050
       ...                                ...                  ...
      1224                          0.3687515              10.0342
      -------------------------------------------------------------
                  HL-Gap            0.2964277 Eh            8.0662 eV
             Fermi-level           -0.3033732 Eh           -8.2552 eV

 SCC (total)                   0 d,  0 h,  0 min, 12.515 sec
 SCC setup                      ...        0 min,  0.032 sec (  0.256%)
 Dispersion                     ...        0 min,  0.082 sec (  0.657%)
 classical contributions        ...        0 min,  0.021 sec (  0.165%)
 integral evaluation            ...        0 min,  0.703 sec (  5.620%)
 iterations                     ...        0 min,  1.960 sec ( 15.658%)
 molecular gradient             ...        0 min,  9.648 sec ( 77.087%)
 printout                       ...        0 min,  0.070 sec (  0.556%)

         :::::::::::::::::::::::::::::::::::::::::::::::::::::
         ::                     SUMMARY                     ::
         :::::::::::::::::::::::::::::::::::::::::::::::::::::
         :: total energy           -1033.466678413816 Eh    ::
         :: gradient norm              0.000067040676 Eh/a0 ::
         :: HOMO-LUMO gap              8.066208874498 eV    ::
         ::.................................................::
         :: SCC energy             -1039.810707576018 Eh    ::
         :: -> isotropic ES            5.732547530403 Eh    ::
         :: -> anisotropic ES         -1.308963666246 Eh    ::
         :: -> anisotropic XC         -0.097332752123 Eh    ::
         :: -> dispersion             -0.638444618509 Eh    ::
         :: repulsion energy           6.219726465465 Eh    ::
         :: add. restraining           0.000000000000 Eh    ::
         :: total charge               1.000000000000 e     ::
         :::::::::::::::::::::::::::::::::::::::::::::::::::::

           ------------------------------------------------- 
          |                Numerical Hessian                |
           ------------------------------------------------- 
step length          :   0.00500
SCC accuracy         :   0.30000
Hessian scale factor :   1.00000
frozen atoms in %    :   0.00000    0
RMS gradient         :   0.00007
estimated CPU  time    757.82 min
estimated wall time    759.71 min
