      -----------------------------------------------------------      
     |                   =====================                   |     
     |                           x T B                           |     
     |                   =====================                   |     
     |                         S. Grimme                         |     
     |          Mulliken Center for Theoretical Chemistry        |     
     |                    University of Bonn                     |     
      -----------------------------------------------------------      

   * xtb version 6.5.1 (579679a) compiled by 'ehlert@majestix' on 2022-07-11

   xtb is free software: you can redistribute it and/or modify it under
   the terms of the GNU Lesser General Public License as published by
   the Free Software Foundation, either version 3 of the License, or
   (at your option) any later version.
   
   xtb is distributed in the hope that it will be useful,
   but WITHOUT ANY WARRANTY; without even the implied warranty of
   MERCHANTABILITY or FITNESS FOR A PARTICULAR PURPOSE.  See the
   GNU Lesser General Public License for more details.
   
   Cite this work as:
   * C. Bannwarth, E. Caldeweyher, S. Ehlert, A. Hansen, P. Pracht,
     J. Seibert, S. Spicher, S. Grimme, WIREs Comput. Mol. Sci., 2020, 11,
     e01493. DOI: 10.1002/wcms.1493
   
   for GFN2-xTB:
   * C. Bannwarth, S. Ehlert and S. Grimme., J. Chem. Theory Comput., 2019,
     15, 1652-1671. DOI: 10.1021/acs.jctc.8b01176
   for GFN1-xTB:
   * S. Grimme, C. Bannwarth, P. Shushkov, J. Chem. Theory Comput., 2017,
     13, 1989-2009. DOI: 10.1021/acs.jctc.7b00118
   for GFN0-xTB:
   * P. Pracht, E. Caldeweyher, S. Ehlert, S. Grimme, ChemRxiv, 2019, preprint.
     DOI: 10.26434/chemrxiv.8326202.v1
   for GFN-FF:
   * S. Spicher and S. Grimme, Angew. Chem. Int. Ed., 2020, 59, 15665-15673.
     DOI: 10.1002/anie.202004239
   
   for ALPB and GBSA implicit solvation:
   * S. Ehlert, M. Stahn, S. Spicher, S. Grimme, J. Chem. Theory Comput.,
     2021, 17, 4250-4261. DOI: 10.1021/acs.jctc.1c00471
   
   for DFT-D4:
   * E. Caldeweyher, C. Bannwarth and S. Grimme, J. Chem. Phys., 2017,
     147, 034112. DOI: 10.1063/1.4993215
   * E. Caldeweyher, S. Ehlert, A. Hansen, H. Neugebauer, S. Spicher,
     C. Bannwarth and S. Grimme, J. Chem. Phys., 2019, 150, 154122.
     DOI: 10.1063/1.5090222
   * E. Caldeweyher, J.-M. Mewes, S. Ehlert and S. Grimme, Phys. Chem. Chem. Phys.
     2020, 22, 8499-8512. DOI: 10.1039/D0CP00502A
   
   for sTDA-xTB:
   * S. Grimme and C. Bannwarth, J. Chem. Phys., 2016, 145, 054103.
     DOI: 10.1063/1.4959605
   
   in the mass-spec context:
   * V. Asgeirsson, C. Bauer and S. Grimme, Chem. Sci., 2017, 8, 4879.
     DOI: 10.1039/c7sc00601b
   * J. Koopman and S. Grimme, ACS Omega 2019, 4, 12, 15120-15133.
     DOI: 10.1021/acsomega.9b02011
   
   for metadynamics refer to:
   * S. Grimme, J. Chem. Theory Comput., 2019, 155, 2847-2862
     DOI: 10.1021/acs.jctc.9b00143
   
   for SPH calculations refer to:
   * S. Spicher and S. Grimme, J. Chem. Theory Comput., 2021, 17, 1701-1714
     DOI: 10.1021/acs.jctc.0c01306
   
   with help from (in alphabetical order)
   P. Atkinson, C. Bannwarth, F. Bohle, G. Brandenburg, E. Caldeweyher
   M. Checinski, S. Dohm, S. Ehlert, S. Ehrlich, I. Gerasimov, C. Hölzer
   A. Katbashev, J. Koopman, C. Lavigne, S. Lehtola, F. März, M. Müller,
   F. Musil, H. Neugebauer, J. Pisarek, C. Plett, P. Pracht, F. Pultar,
   J. Seibert, P. Shushkov, S. Spicher, M. Stahn, M. Steiner, T. Strunk,
   J. Stückrath, T. Rose, and J. Unsleber
   
 * started run on 2022/11/24 at 09:07:52.365     

           -------------------------------------------------
          |                Calculation Setup                |
           -------------------------------------------------

          program call               : xtb solvent_cluster.coord --gfn2 --input xcontrol --opt 1
          hostname                   : cn0341
          coordinate file            : solvent_cluster.coord
          omp threads                :                     2

   ID    Z sym.   atoms
    1    8 o      1, 4, 7, 10, 13, 16, 19, 22, 25, 28, 31, 34, 37, 40, 43,
                  46, 49, 52, 55, 58, 61, 64, 67, 70, 73, 76, 79, 82, 85, 88,
                  91, 94, 97, 100, 103, 106, 109, 112, 115, 118, 121, 124,
                  127, 130, 133, 136, 139, 142, 145, 148, 151, 154, 157, 160,
                  163, 166, 169, 172, 175, 178, 181, 184, 187, 190, 193, 196,
                  199, 202, 205, 208, 211, 214, 217, 220, 223, 226, 229, 232,
                  235, 238, 241, 244, 247, 250, 253, 256, 259, 262, 265, 268,
                  271, 274, 277, 280, 283, 286, 289, 292, 295, 298, 301, 304,
                  307, 310, 313, 316, 319, 322, 325, 328, 331, 334, 337, 340,
                  343, 346, 349, 352, 355, 358, 361, 364, 367, 370, 373, 376,
                  379, 382, 385, 388, 391, 394, 397, 400, 403, 406, 409, 412,
                  415, 418, 421, 424, 427, 430, 433, 436, 439, 442, 445, 448,
                  451, 454, 457, 460, 463, 466, 469, 472, 475, 478, 481, 484,
                  487, 490, 493, 496, 499, 502, 505, 508, 511, 514, 517, 520,
                  523, 526, 529, 532, 535, 538, 541, 544, 547, 550, 553, 556,
                  559, 562, 565, 568, 571, 574, 577, 580, 583, 586, 589, 592,
                  595, 598, 601, 604, 607, 610, 613, 616, 619, 622, 625, 628,
                  631, 634, 637, 640, 643, 646, 649, 652, 655, 658, 661, 664,
                  667, 670, 673, 676, 679, 682, 685, 688, 691, 694, 697, 700,
                  703, 706, 709, 712, 715, 718, 721, 724, 727, 730, 733, 736,
                  739, 742, 745, 748, 751, 754
    2    1 h      2, 3, 5, 6, 8, 9, 11, 12, 14, 15, 17, 18, 20, 21, 23, 24,
                  26, 27, 29, 30, 32, 33, 35, 36, 38, 39, 41, 42, 44, 45, 47,
                  48, 50, 51, 53, 54, 56, 57, 59, 60, 62, 63, 65, 66, 68, 69,
                  71, 72, 74, 75, 77, 78, 80, 81, 83, 84, 86, 87, 89, 90, 92,
                  93, 95, 96, 98, 99, 101, 102, 104, 105, 107, 108, 110, 111,
                  113, 114, 116, 117, 119, 120, 122, 123, 125, 126, 128, 129,
                  131, 132, 134, 135, 137, 138, 140, 141, 143, 144, 146, 147,
                  149, 150, 152, 153, 155, 156, 158, 159, 161, 162, 164, 165,
                  167, 168, 170, 171, 173, 174, 176, 177, 179, 180, 182, 183,
                  185, 186, 188, 189, 191, 192, 194, 195, 197, 198, 200, 201,
                  203, 204, 206, 207, 209, 210, 212, 213, 215, 216, 218, 219,
                  221, 222, 224, 225, 227, 228, 230, 231, 233, 234, 236, 237,
                  239, 240, 242, 243, 245, 246, 248, 249, 251, 252, 254, 255,
                  257, 258, 260, 261, 263, 264, 266, 267, 269, 270, 272, 273,
                  275, 276, 278, 279, 281, 282, 284, 285, 287, 288, 290, 291,
                  293, 294, 296, 297, 299, 300, 302, 303, 305, 306, 308, 309,
                  311, 312, 314, 315, 317, 318, 320, 321, 323, 324, 326, 327,
                  329, 330, 332, 333, 335, 336, 338, 339, 341, 342, 344, 345,
                  347, 348, 350, 351, 353, 354, 356, 357, 359, 360, 362, 363,
                  365, 366, 368, 369, 371, 372, 374, 375, 377, 378, 380, 381,
                  383, 384, 386, 387, 389, 390, 392, 393, 395, 396, 398, 399,
                  401, 402, 404, 405, 407, 408, 410, 411, 413, 414, 416, 417,
                  419, 420, 422, 423, 425, 426, 428, 429, 431, 432, 434, 435,
                  437, 438, 440, 441, 443, 444, 446, 447, 449, 450, 452, 453,
                  455, 456, 458, 459, 461, 462, 464, 465, 467, 468, 470, 471,
                  473, 474, 476, 477, 479, 480, 482, 483, 485, 486, 488, 489,
                  491, 492, 494, 495, 497, 498, 500, 501, 503, 504, 506, 507,
                  509, 510, 512, 513, 515, 516, 518, 519, 521, 522, 524, 525,
                  527, 528, 530, 531, 533, 534, 536, 537, 539, 540, 542, 543,
                  545, 546, 548, 549, 551, 552, 554, 555, 557, 558, 560, 561,
                  563, 564, 566, 567, 569, 570, 572, 573, 575, 576, 578, 579,
                  581, 582, 584, 585, 587, 588, 590, 591, 593, 594, 596, 597,
                  599, 600, 602, 603, 605, 606, 608, 609, 611, 612, 614, 615,
                  617, 618, 620, 621, 623, 624, 626, 627, 629, 630, 632, 633,
                  635, 636, 638, 639, 641, 642, 644, 645, 647, 648, 650, 651,
                  653, 654, 656, 657, 659, 660, 662, 663, 665, 666, 668, 669,
                  671, 672, 674, 675, 677, 678, 680, 681, 683, 684, 686, 687,
                  689, 690, 692, 693, 695, 696, 698, 699, 701, 702, 704, 705,
                  707, 708, 710, 711, 713, 714, 716, 717, 719, 720, 722, 723,
                  725, 726, 728, 729, 731, 732, 734, 735, 737, 738, 740, 741,
                  743, 744, 746, 747, 749, 750, 752, 753, 755, 756

molecular fragmentation (1/2 indicates fragments):
111222222222222222222222222222222222222222222222222222222222222222222222
222222222222222222222222222222222222222222222222222222222222222222222222
222222222222222222222222222222222222222222222222222222222222222222222222
222222222222222222222222222222222222222222222222222222222222222222222222
222222222222222222222222222222222222222222222222222222222222222222222222
222222222222222222222222222222222222222222222222222222222222222222222222
222222222222222222222222222222222222222222222222222222222222222222222222
222222222222222222222222222222222222222222222222222222222222222222222222
222222222222222222222222222222222222222222222222222222222222222222222222
222222222222222222222222222222222222222222222222222222222222222222222222
222222222222222222222222222222222222
# atoms in fragment 1/2:     3   753
 fragment masses (1/2) :       18.02     4521.84
CMA distance (Bohr)    :  16.340
constraining FC (au)   :  0.0500

           -------------------------------------------------
          |                 G F N 2 - x T B                 |
           -------------------------------------------------

        Reference                      10.1021/acs.jctc.8b01176
      * Hamiltonian:
        H0-scaling (s, p, d)           1.850000    2.230000    2.230000
        zeta-weighting                 0.500000
      * Dispersion:
        s8                             2.700000
        a1                             0.520000
        a2                             5.000000
        s9                             5.000000
      * Repulsion:
        kExp                           1.500000    1.000000
        rExp                           1.000000
      * Coulomb:
        alpha                          2.000000
        third order                    shell-resolved
        anisotropic                    true
        a3                             3.000000
        a5                             4.000000
        cn-shift                       1.200000
        cn-exp                         4.000000
        max-rad                        5.000000


          ...................................................
          :                      SETUP                      :
          :.................................................:
          :  # basis functions                1512          :
          :  # atomic orbitals                1512          :
          :  # shells                         1008          :
          :  # electrons                      2016          :
          :  max. iterations                   250          :
          :  Hamiltonian                  GFN2-xTB          :
          :  restarted?                      false          :
          :  GBSA solvation                  false          :
          :  PC potential                    false          :
          :  electronic temp.          300.0000000     K    :
          :  accuracy                    1.0000000          :
          :  -> integral cutoff          0.2500000E+02      :
          :  -> integral neglect         0.1000000E-07      :
          :  -> SCF convergence          0.1000000E-05 Eh   :
          :  -> wf. convergence          0.1000000E-03 e    :
          :  Broyden damping             0.4000000          :
          ...................................................

 iter      E             dE          RMSdq      gap      omega  full diag
   1  -1291.0365073 -0.129104E+04  0.407E+00    8.46       0.0  T
   2  -1291.1101532 -0.736459E-01  0.241E+00    8.14       1.0  T
   3  -1291.1413561 -0.312028E-01  0.210E-01    7.17       1.0  T
   4  -1291.1465204 -0.516436E-02  0.455E-02    7.45       1.0  T
   5  -1291.1465952 -0.747921E-04  0.306E-02    7.41       1.0  T
   6  -1291.1466334 -0.382159E-04  0.424E-03    7.43       1.0  T
   7  -1291.1466357 -0.230522E-05  0.775E-04    7.43       4.7  T
   8  -1291.1466358 -0.338096E-07  0.408E-04    7.43       8.9  T
   9  -1291.1466358 -0.163604E-07  0.650E-05    7.43      56.0  T

   *** convergence criteria satisfied after 9 iterations ***

         #    Occupation            Energy/Eh            Energy/eV
      -------------------------------------------------------------
         1        2.0000           -0.7109391             -19.3456
       ...           ...                  ...                  ...
      1002        2.0000           -0.4070603             -11.0767
      1003        2.0000           -0.4059591             -11.0467
      1004        2.0000           -0.4050017             -11.0207
      1005        2.0000           -0.4045282             -11.0078
      1006        2.0000           -0.4011048             -10.9146
      1007        2.0000           -0.3994540             -10.8697
      1008        2.0000           -0.3834931             -10.4354 (HOMO)
      1009                         -0.1104459              -3.0054 (LUMO)
      1010                         -0.0982004              -2.6722
      1011                         -0.0835603              -2.2738
      1012                         -0.0815032              -2.2178
      1013                         -0.0768959              -2.0924
       ...                                ...                  ...
      1512                          0.4273379              11.6285
      -------------------------------------------------------------
                  HL-Gap            0.2730471 Eh            7.4300 eV
             Fermi-level           -0.2469695 Eh           -6.7204 eV

 SCC (total)                   0 d,  0 h,  0 min, 21.925 sec
 SCC setup                      ...        0 min,  0.042 sec (  0.190%)
 Dispersion                     ...        0 min,  0.110 sec (  0.503%)
 classical contributions        ...        0 min,  0.023 sec (  0.105%)
 integral evaluation            ...        0 min,  0.607 sec (  2.771%)
 iterations                     ...        0 min,  8.679 sec ( 39.582%)
 molecular gradient             ...        0 min, 12.400 sec ( 56.555%)
 printout                       ...        0 min,  0.064 sec (  0.293%)

         :::::::::::::::::::::::::::::::::::::::::::::::::::::
         ::                     SUMMARY                     ::
         :::::::::::::::::::::::::::::::::::::::::::::::::::::
         :: total energy           -1283.344652398020 Eh    ::
         :: gradient norm              0.045932744950 Eh/a0 ::
         :: HOMO-LUMO gap              7.429990773326 eV    ::
         ::.................................................::
         :: SCC energy             -1291.146635787799 Eh    ::
         :: -> isotropic ES            7.161244054730 Eh    ::
         :: -> anisotropic ES         -1.622904825289 Eh    ::
         :: -> anisotropic XC         -0.126474607548 Eh    ::
         :: -> dispersion             -0.794266127294 Eh    ::
         :: repulsion energy           7.644378214988 Eh    ::
         :: add. restraining           0.000000000000 Eh    ::
         :: total charge              -0.000000000000 e     ::
         :::::::::::::::::::::::::::::::::::::::::::::::::::::

      ----------------------------------------------------------- 
     |                       L-ANC optimizer                     |
      ----------------------------------------------------------- 
          low memory version by Sebastian Ehlert

          ...................................................
          :                      SETUP                      :
          :.................................................:
          :   energy convergence        0.1000000E-05 Eh    :
          :   grad. convergence         0.8000000E-03 Eh/a0 :
          :   optimization log               true           :
          :   writing optlog all                1     steps :
          :   Hessian reset                    20     steps :
          :   maximium step len.        1.0000000     a0    :
          :   LBFGS images                     20           :
          ...................................................
 * calculating model hessian...
Using Lindh-Hessian (1995)
 Shifting diagonal of input Hessian by   1.000019564768650E-002
 Lowest  eigenvalues of input Hessian
    0.010000    0.010000   -0.000000   -0.000000   -0.000000   -0.000000
   -0.000000   -0.000000   -0.000000   -0.000000   -0.000000   -0.000000
   -0.000000   -0.000000   -0.000000   -0.000000   -0.000000   -0.000000
 Highest eigenvalues
    0.310624    0.325760    1.214455    1.236075    1.411526    1.455156
 

........................................................................
.............................. CYCLE    1 ..............................
........................................................................
   1  -1291.1425517 -0.129114E+04  0.355E-02    7.47       0.0  T
   2  -1291.1425763 -0.245570E-04  0.213E-02    7.50       1.0  T
   3  -1291.1425824 -0.618009E-05  0.273E-03    7.53       1.3  T
   4  -1291.1425832 -0.746169E-06  0.532E-04    7.52       6.8  T
   5  -1291.1425832 -0.541468E-08  0.805E-05    7.52      45.2  T
     SCC iter.                  ...        0 min,  3.603 sec
     gradient                   ...        0 min, 12.406 sec
 * total energy  : -1283.3471357 Eh     change       -0.2483276E-02 Eh
   gradient norm :     0.0296938 Eh/a0  converged?    E=F G=F D=F
   step length   :     0.4312263 a0

........................................................................
.............................. CYCLE    2 ..............................
........................................................................
   1  -1291.1463118 -0.129115E+04  0.240E-02    7.65       0.0  T
   2  -1291.1463190 -0.723523E-05  0.145E-02    7.66       1.0  T
   3  -1291.1463211 -0.208154E-05  0.141E-03    7.68       2.6  T
   4  -1291.1463213 -0.228170E-06  0.376E-04    7.68       9.7  T
   5  -1291.1463213 -0.266004E-08  0.506E-05    7.68      71.9  T
     SCC iter.                  ...        0 min,  3.496 sec
     gradient                   ...        0 min, 12.355 sec
 * total energy  : -1283.3489833 Eh     change       -0.1847584E-02 Eh
   gradient norm :     0.0197963 Eh/a0  converged?    E=F G=F D=F
   step length   :     0.4982618 a0

........................................................................
.............................. CYCLE    3 ..............................
........................................................................
   1  -1291.1479990 -0.129115E+04  0.117E-02    7.73       0.0  T
   2  -1291.1480031 -0.411107E-05  0.712E-03    7.75       1.0  T
   3  -1291.1480044 -0.124749E-05  0.112E-03    7.77       3.2  T
   4  -1291.1480045 -0.143072E-06  0.317E-04    7.76      11.5  T
   5  -1291.1480045 -0.383670E-08  0.395E-05    7.76      92.1  T
     SCC iter.                  ...        0 min,  3.386 sec
     gradient                   ...        0 min, 12.372 sec
 * total energy  : -1283.3501148 Eh     change       -0.1131563E-02 Eh
   gradient norm :     0.0128769 Eh/a0  converged?    E=F G=F D=F
   step length   :     0.4161131 a0

........................................................................
.............................. CYCLE    4 ..............................
........................................................................
   1  -1291.1489402 -0.129115E+04  0.156E-02    7.82       0.0  T
   2  -1291.1489496 -0.946906E-05  0.938E-03    7.85       1.0  T
   3  -1291.1489516 -0.196782E-05  0.173E-03    7.85       2.1  T
   4  -1291.1489519 -0.296077E-06  0.335E-04    7.85      10.8  T
   5  -1291.1489519 -0.421505E-08  0.571E-05    7.85      63.6  T
     SCC iter.                  ...        0 min,  3.339 sec
     gradient                   ...        0 min, 12.422 sec
 * total energy  : -1283.3508559 Eh     change       -0.7410462E-03 Eh
   gradient norm :     0.0126066 Eh/a0  converged?    E=F G=F D=F
   step length   :     0.5128328 a0

........................................................................
.............................. CYCLE    5 ..............................
........................................................................
   1  -1291.1517300 -0.129115E+04  0.555E-03    7.85       0.0  T
   2  -1291.1517312 -0.116926E-05  0.327E-03    7.85       1.1  T
   3  -1291.1517315 -0.288648E-06  0.626E-04    7.85       5.8  T
   4  -1291.1517315 -0.366285E-07  0.158E-04    7.85      23.0  T
     SCC iter.                  ...        0 min,  2.612 sec
     gradient                   ...        0 min, 13.047 sec
 * total energy  : -1283.3510164 Eh     change       -0.1605761E-03 Eh
   gradient norm :     0.0059536 Eh/a0  converged?    E=F G=F D=F
   step length   :     0.1254912 a0

........................................................................
.............................. CYCLE    6 ..............................
........................................................................
   1  -1291.1501264 -0.129115E+04  0.119E-02    7.84       0.0  T
   2  -1291.1501294 -0.305866E-05  0.720E-03    7.84       1.0  T
   3  -1291.1501301 -0.664957E-06  0.917E-04    7.84       4.0  T
   4  -1291.1501302 -0.108073E-06  0.189E-04    7.84      19.3  T
     SCC iter.                  ...        0 min,  2.580 sec
     gradient                   ...        0 min, 12.433 sec
 * total energy  : -1283.3511691 Eh     change       -0.1526640E-03 Eh
   gradient norm :     0.0137343 Eh/a0  converged?    E=F G=F D=F
   step length   :     0.2508475 a0

........................................................................
.............................. CYCLE    7 ..............................
........................................................................
   1  -1291.1513071 -0.129115E+04  0.439E-03    7.84       0.0  T
   2  -1291.1513077 -0.563200E-06  0.260E-03    7.84       1.4  T
   3  -1291.1513079 -0.144820E-06  0.442E-04    7.84       8.2  T
   4  -1291.1513079 -0.168927E-07  0.107E-04    7.84      33.9  T
     SCC iter.                  ...        0 min,  2.598 sec
     gradient                   ...        0 min, 12.496 sec
 * total energy  : -1283.3512977 Eh     change       -0.1285736E-03 Eh
   gradient norm :     0.0063334 Eh/a0  converged?    E=F G=F D=F
   step length   :     0.0848015 a0

........................................................................
.............................. CYCLE    8 ..............................
........................................................................
   1  -1291.1515106 -0.129115E+04  0.358E-03    7.84       0.0  T
   2  -1291.1515107 -0.109581E-06  0.217E-03    7.84       1.7  T
   3  -1291.1515108 -0.395628E-07  0.181E-04    7.84      20.1  T
   4  -1291.1515108 -0.336968E-08  0.550E-05    7.84      66.2  T
     SCC iter.                  ...        0 min,  2.584 sec
     gradient                   ...        0 min, 12.529 sec
 * total energy  : -1283.3513800 Eh     change       -0.8231770E-04 Eh
   gradient norm :     0.0037416 Eh/a0  converged?    E=F G=F D=F
   step length   :     0.0618498 a0

........................................................................
.............................. CYCLE    9 ..............................
........................................................................
   1  -1291.1513941 -0.129115E+04  0.867E-03    7.84       0.0  T
   2  -1291.1513948 -0.695590E-06  0.527E-03    7.84       1.0  T
   3  -1291.1513950 -0.222446E-06  0.410E-04    7.84       8.9  T
   4  -1291.1513950 -0.211883E-07  0.108E-04    7.84      33.6  T
     SCC iter.                  ...        0 min,  2.579 sec
     gradient                   ...        0 min, 12.511 sec
 * total energy  : -1283.3514927 Eh     change       -0.1126762E-03 Eh
   gradient norm :     0.0057320 Eh/a0  converged?    E=F G=F D=F
   step length   :     0.1442761 a0

........................................................................
.............................. CYCLE   10 ..............................
........................................................................
   1  -1291.1517761 -0.129115E+04  0.434E-03    7.84       0.0  T
   2  -1291.1517767 -0.600027E-06  0.261E-03    7.83       1.4  T
   3  -1291.1517769 -0.163214E-06  0.433E-04    7.83       8.4  T
   4  -1291.1517769 -0.190817E-07  0.114E-04    7.83      31.9  T
     SCC iter.                  ...        0 min,  2.549 sec
     gradient                   ...        0 min, 12.461 sec
 * total energy  : -1283.3515391 Eh     change       -0.4639135E-04 Eh
   gradient norm :     0.0015820 Eh/a0  converged?    E=F G=F D=F
   step length   :     0.0758094 a0

........................................................................
.............................. CYCLE   11 ..............................
........................................................................
   1  -1291.1510897 -0.129115E+04  0.616E-03    7.83       0.0  T
   2  -1291.1510906 -0.925108E-06  0.369E-03    7.83       1.0  T
   3  -1291.1510908 -0.191121E-06  0.535E-04    7.83       6.8  T
   4  -1291.1510908 -0.302089E-07  0.917E-05    7.83      39.6  T
     SCC iter.                  ...        0 min,  2.537 sec
     gradient                   ...        0 min, 12.566 sec
 * total energy  : -1283.3515449 Eh     change       -0.5787741E-05 Eh
   gradient norm :     0.0049599 Eh/a0  converged?    E=F G=F D=F
   step length   :     0.1075183 a0

........................................................................
.............................. CYCLE   12 ..............................
........................................................................
   1  -1291.1518382 -0.129115E+04  0.162E-03    7.83       0.0  T
   2  -1291.1518383 -0.647242E-07  0.958E-04    7.83       3.8  T
   3  -1291.1518383 -0.141272E-07  0.146E-04    7.83      24.8  T
     SCC iter.                  ...        0 min,  1.913 sec
     gradient                   ...        0 min, 12.612 sec
 * total energy  : -1283.3515622 Eh     change       -0.1737669E-04 Eh
   gradient norm :     0.0012691 Eh/a0  converged?    E=F G=F D=F
   step length   :     0.0244194 a0

........................................................................
.............................. CYCLE   13 ..............................
........................................................................
   1  -1291.1521180 -0.129115E+04  0.183E-03    7.83       0.0  T
   2  -1291.1521181 -0.975404E-07  0.108E-03    7.83       3.4  T
   3  -1291.1521181 -0.183045E-07  0.182E-04    7.83      20.0  T
   4  -1291.1521181 -0.300292E-08  0.331E-05    7.83     109.9  T
     SCC iter.                  ...        0 min,  2.450 sec
     gradient                   ...        0 min, 12.589 sec
 * total energy  : -1283.3515687 Eh     change       -0.6493681E-05 Eh
   gradient norm :     0.0014633 Eh/a0  converged?    E=F G=F D=F
   step length   :     0.0327831 a0

........................................................................
.............................. CYCLE   14 ..............................
........................................................................
   1  -1291.1521748 -0.129115E+04  0.982E-04    7.83       0.0  T
   2  -1291.1521749 -0.206360E-07  0.594E-04    7.83       6.1  T
   3  -1291.1521749 -0.701380E-08  0.804E-05    7.83      45.2  T
     SCC iter.                  ...        0 min,  1.833 sec
     gradient                   ...        0 min, 12.590 sec
 * total energy  : -1283.3515718 Eh     change       -0.3124560E-05 Eh
   gradient norm :     0.0008733 Eh/a0  converged?    E=F G=F D=F
   step length   :     0.0167466 a0

........................................................................
.............................. CYCLE   15 ..............................
........................................................................
   1  -1291.1519776 -0.129115E+04  0.907E-04    7.83       0.0  T
   2  -1291.1519776 -0.150817E-07  0.540E-04    7.83       6.7  T
   3  -1291.1519776 -0.322825E-08  0.679E-05    7.83      53.6  T
     SCC iter.                  ...        0 min,  1.834 sec
     gradient                   ...        0 min, 12.533 sec
 * total energy  : -1283.3515731 Eh     change       -0.1272463E-05 Eh
   gradient norm :     0.0002881 Eh/a0  converged?    E=F G=T D=F
   step length   :     0.0180186 a0

........................................................................
.............................. CYCLE   16 ..............................
........................................................................
   1  -1291.1520410 -0.129115E+04  0.321E-04    7.83       0.0  T
   2  -1291.1520410 -0.287309E-08  0.194E-04    7.83      18.7  T
   3  -1291.1520410 -0.684622E-09  0.285E-05    7.83     127.7  T
     SCC iter.                  ...        0 min,  1.821 sec
     gradient                   ...        0 min, 12.482 sec
 * total energy  : -1283.3515734 Eh     change       -0.3066816E-06 Eh
   gradient norm :     0.0001324 Eh/a0  converged?    E=T G=T D=F
   step length   :     0.0080621 a0

   *** GEOMETRY OPTIMIZATION CONVERGED AFTER 16 CYCLES ***

------------------------------------------------------------------------
 total energy gain   :        -0.0069210 Eh       -4.3430 kcal/mol
 total RMSD          :         0.0762679 a0        0.0404 Å
 total power (kW/mol):        -1.1356975 (step)   -0.0684 (real)
------------------------------------------------------------------------

 L-ANCopt (total)              0 d,  0 h,  4 min, 25.848 sec
 setup                          ...        0 min,  0.030 sec (  0.011%)
 model hessian                  ...        0 min,  7.754 sec (  2.917%)
 ANC generation                 ...        0 min,  2.483 sec (  0.934%)
 coordinate transformation      ...        0 min,  0.001 sec (  0.000%)
 Rational function              ...        0 min,  0.000 sec (  0.000%)
 singlepoint calculation        ...        4 min, 15.463 sec ( 96.093%)
 optimization log               ...        0 min,  0.112 sec (  0.042%)
 hessian update                 ...        0 min,  0.000 sec (  0.000%)

================
 final structure:
================
$coord
       -4.79793779498400      -10.62091701483900      -11.32992413865300      o
       -5.89023409150300       -9.40035647903700      -12.14227689016700      h
       -5.88706837119200      -11.59071503431600      -10.23259095090400      h
        0.95466792318300       -3.73972877424900       -3.84807118091200      o
        1.27459476981300       -2.09896901937900       -4.65216368084300      h
        1.82812799703400       -3.70195596235600       -2.23878140020600      h
        5.91872217638400        3.29278663675000       -2.96542877371600      o
        6.63876487568600        4.32945523471700       -1.62500610022400      h
        4.69130146352100        2.18940106817900       -2.12997606681000      h
        8.44594512243400        1.04031576167900        1.01976602131400      o
        9.62100568399300        0.76197363904100        2.43925998067300      h
        9.35693397728400        2.13499260625800       -0.14912507880600      h
        2.22356955739200        0.63717600355700       -5.91103033187800      o
        1.05941526776900        2.05258759682900       -5.91854536285300      h
        3.83798180840200        1.33874627964900       -5.48058485506400      h
       -7.72385051636600       -9.28068479907800        2.04397344341700      o
       -9.22793700961400       -9.80403338061000        2.97567866181600      h
       -7.64559934453700       -7.40703408362600        2.07099985872400      h
        8.20954506000500       -4.31782376740800        3.11596015236900      o
        8.75182334932500       -5.15810158811400        4.64346448862900      h
        6.80084943238100       -3.23811779345900        3.63057023160800      h
       -2.66950254873000       -6.36758440092500        3.23281469596800      o
       -1.69932156551900       -7.88338958027000        2.95496505424300      h
       -3.13630662700800       -5.77922683015500        1.54658233311100      h
        6.14302357947100       -8.95762208130400        1.99568103304400      o
        5.82149173530200       -9.36527994740400        0.21296101177900      h
        6.97961049856900       -7.31109694490700        2.04268651566800      h
        4.33482364699500        3.29382249248600        3.25475742910800      o
        6.00710241989600        2.73567625884000        2.73666891638500      h
        3.99148863558500        4.84000062096400        2.32067040163400      h
        3.25512042051800        3.88968818274600        8.16296197516100      o
        1.91672525062800        2.65072257451100        8.41989158850100      h
        3.77360164191500        3.70813924562800        6.39333309466100      h
       -0.96228042130900        1.08153785217500        8.25716229643000      o
       -1.50038662678000        2.29707626098700        7.01270148116300      h
       -0.84513569857500       -0.57174301367400        7.44581610271800      h
       -1.72946787490500       -6.38215861505500      -12.93659054094700      o
       -1.99716337943200       -6.03471843347900      -11.13548794821600      h
       -2.20290542983600       -8.11635581544100      -13.16584424130400      h
       -1.69378132064900        5.37726671739400        4.94002279444100      o
       -1.98971478120600        5.99909490668600        3.22608172051800      h
       -0.32283523823400        6.44307843122400        5.54965086443800      h
       11.10856035367100        3.84726114553800       -2.33688787817500      o
       12.42167473882000        2.64960723765800       -2.79566591712600      h
       11.78607303496000        5.53267502008700       -2.52907031587100      h
       -4.45008159534300       -2.30314643017700      -14.25887806006600      o
       -3.42701946149400       -3.80573113591500      -13.93761429090900      h
       -3.21343571093700       -1.09327659922500      -14.94071780559900      h
       -0.84757137296500        4.75927563572900       -5.79117843045600      o
       -1.16504073172000        5.22660631921300       -7.55290060876800      h
       -2.43150925910900        4.26388712451500       -5.01930481782200      h
      -13.27988083917300       -1.65959286156800       -5.70186123833100      o
      -13.57405125949700       -2.93419990628500       -7.00751397064900      h
      -12.04666359737400       -2.44489409125400       -4.57121420391300      h
       -9.19228967718700        1.12866123952500       -7.09171430684700      o
      -10.72244740259600        0.14071346414200       -6.76111285488700      h
       -8.60232052960900        1.64696433478600       -5.44608340596500      h
       -7.29199610618200        5.21029151706200        1.67653997792700      o
       -6.49046515831000        6.66462625623800        2.47474743774900      h
       -7.19848442977300        3.77196726083800        2.80887583963800      h
       -4.59986930730900        2.82637221712800       -9.09592797165900      o
       -5.07958979624300        4.49053696355000       -8.49913076858200      h
       -5.62766004646500        2.49793966052100      -10.59545825816500      h
        6.29207601891300        0.57057677195000       -9.79651081624300      o
        4.89791939717900       -0.55973516038800       -9.49983285203900      h
        7.45236141666400        0.28905376149400       -8.37273931253200      h
       -7.76411195333700       -4.39821624213400        1.89037783142800      o
       -9.38610948834000       -3.81919836615800        2.48919494669900      h
       -7.36483092017200       -3.27933779732000        0.49153179579200      h
       -6.39713775909400       -0.50331876751500       -1.12496964344200      o
       -7.87551695683200        0.56923786445400       -1.29346651819500      h
       -5.33301812251000        0.15306206676400        0.30280149358600      h
       -5.56839593806400       -3.13533810277500        6.32937971427600      o
       -6.88655541982300       -4.19447189246200        7.01545722410700      h
       -4.77359205873700       -4.21365974872000        5.08470320002000      h
      -10.34686315583600        2.67361105596300       -2.25711832496400      o
       -9.99437824728100        4.44141395418200       -1.85852655535500      h
      -11.89400833475000        2.19887288429600       -1.36432784375500      h
       -0.61349580327800        0.69169088388300      -15.62467216883100      o
        0.43307886567200       -0.74588514007600      -16.12078583837900      h
       -0.14731613372800        1.01725374556000      -13.85460011622600      h
        6.66633816502200       -2.86179288524200       -1.55595501118100      o
        5.21849013769000       -3.48980821662700       -0.62969149600300      h
        7.32121073475500       -1.42222623776400       -0.58558762067700      h
      -12.70800810658400       -4.99678326238000       -1.63497549403400      o
      -14.07585507207900       -5.84168005764300       -2.50973875483600      h
      -11.16813668013600       -5.85029909108300       -2.20938263976000      h
        7.86251660606100        6.42310085527900        0.82867071234300      o
        7.76367815011600        7.91545549444100       -0.23909136609500      h
        9.65178698457300        6.12115060556500        1.13343479517600      h
      -13.77669107361100       -5.53108639570000       -9.00725218389000      o
      -13.22619174111900       -4.48909937456500      -10.46707750499300      h
      -12.24208732514300       -6.50378715744500       -8.60406835887100      h
      -10.70716464800500       -1.22947217667700        8.55785992599200      o
       -9.06449136986700       -0.62515290150600        9.16085502521400      h
      -10.46305937409300       -2.98388948648300        8.05750743389800      h
        8.45072959616600       10.70434425243400       -9.95599312260700      o
       10.16345082080800       10.81072399634100       -9.28162253438500      h
        8.25751288802500        8.95453818896100      -10.46964745291600      h
        9.01352792257200       -8.04828058125600        6.67273809951700      o
       10.29847537326200       -8.52387001701500        5.44203441848600      h
        7.56522974588900       -9.10920115501600        6.40764940730800      h
       12.79241564801900       -2.97430996940400        0.31415562452600      o
       12.93033699615100       -1.39576906554900       -0.59863619819900      h
       11.15634183430300       -3.09136498741500        1.12493873848600      h
      -12.54581489499400       -6.73209521550500        3.11154178280400      o
      -13.48914303384800       -8.30749289075600        2.93215345081200      h
      -12.62017538584300       -5.94985831930900        1.43252012378600      h
        3.00936962767400        7.51588081902800        0.42984971444200      o
        1.17392273942400        7.41125247294300        0.44879977438900      h
        3.46346438960700        7.52412625912900       -1.35453909300600      h
       -0.05605536507700       -3.62623949090300        6.68404903226600      o
       -0.91856789859000       -4.65067238622500        5.42045080357400      h
       -0.82024598827200       -4.12363385153800        8.28948151513500      h
       -5.22063391083700        4.30881616568300       -3.08108367676300      o
       -6.14961181816500        4.52911256938700       -1.50656568141300      h
       -5.97234822996700        5.48601441755100       -4.28289767799200      h
        9.25786594817000        0.38707093611700       -5.76972249261100      o
        8.36294249605500        1.11340342799300       -4.34158091827300      h
        9.84218879605700       -1.31749170041800       -5.35805045874400      h
       10.67149506896800      -11.65501474250800       -2.07932526654700      o
       10.06660765789500       -9.98496471182500       -1.56774936039400      h
       11.25798153703700      -11.40404909065800       -3.79646393422100      h
        7.89945797066200        6.60682749746300       -6.24306036525500      o
        9.45755419932400        5.99677208351700       -6.97526071471800      h
        7.21481582768700        5.19755821933800       -5.28242846943200      h
       -8.68070119282900       -3.79961696747900       -4.68143147798900      o
       -8.84786857904700       -5.16794723548800       -5.88881063464400      h
       -7.14388602752900       -2.93552727851500       -5.13401602952500      h
       -7.15550166630400        2.22988812973600      -13.44336511361100      o
       -6.89137752102200        0.54480638094700      -14.07934613176700      h
       -5.86301710527000        3.29650746368100      -14.25682382308000      h
       14.37697715412000        0.15878317465900       -3.48203308566200      o
       16.08459907271900        0.60169304969800       -2.97671229353300      h
       14.49103943506600       -0.69720548668300       -5.09713978223500      h
       11.79182016475900        3.78299679619600       -8.26682274725900      o
       13.34670110446500        4.26396532874400       -7.39131995222200      h
       10.97048675806700        2.50612018645700       -7.17354612422300      h
        5.89322973345500       -3.54147390800600       -6.47948910389700      o
        4.13723778342300       -3.43156418871800       -6.98245933867200      h
        6.02248928931700       -3.13083526472800       -4.69027011534800      h
      -17.79424067277600       -2.06692065811700       -3.29138604236300      o
      -18.94831177741800       -2.95543275763600       -4.42014898996200      h
      -16.18523670934000       -1.82921240625500       -4.18462821890700      h
        1.81312310680200        8.86860492984900        5.83873688374300      o
        3.54314594206100        8.18958981816400        5.68538973537900      h
        1.93447064089600       10.31559764624100        6.93801445341800      h
       -9.84397043459500        5.10453908374700      -10.11760908981600      o
       -9.78192722888400        3.65324951397200       -8.95429258751600      h
       -9.09899192833800        4.49501033623400      -11.67068632616600      h
        5.18182033502300      -10.24961067771500       -2.78673062935500      o
        6.19158017277600       -9.20585929864000       -3.94581120719400      h
        3.43123591176200       -9.88841221276200       -3.27159519798700      h
        0.08154045697300        1.50788740336300      -10.75919561755200      o
       -1.56336575838500        1.99972676017900      -10.10169986310400      h
        1.31149460466200        2.74832625914400      -10.11229531027100      h
       10.71700760308600       13.83146321007800       -0.55011693926500      o
       10.83901539476600       13.18984684942800        1.14810035544600      h
        9.01484524675200       14.45112834705000       -0.77050508651900      h
        9.40462240440900        3.97006509576800        7.51676616073800      o
       10.45963776070000        2.97289122117600        6.37798626739900      h
        8.33558316772700        2.71284763275700        8.33548716775900      h
        6.41263286105700        4.48351353155300       12.18511923112500      o
        5.38216018050400        4.17457403933000       10.68246252588400      h
        5.79786808507200        3.33805009724000       13.47941993803700      h
       15.95736007136800        1.00093313779200        1.82772201303600      o
       16.17071674735200        2.53404861274700        0.84111184029300      h
       17.13863396851200        1.02156217729400        3.23883733193700      h
      -12.51601833778700        5.22774874037500        2.51520051598600      o
      -10.69145623698900        5.30452416284900        2.33916925795300      h
      -13.19608379241400        5.76406395448700        0.89422669485100      h
       -8.24521557918000        1.03377495964200        4.50672508414300      o
       -7.39825227958600       -0.37542810475300        5.33505507398400      h
       -9.55074031639200        0.27089041562400        3.45426685587400      h
       -8.13093824950100      -12.51962915488800       -7.63256137291300      o
       -6.70124396067200      -12.87761871192300       -6.47472017240500      h
       -9.57847672177000      -13.32756387623300       -6.90642291053900      h
      -24.69104428334700       -1.36485104405300        0.40661752831200      o
      -23.10429545536400       -0.40297852481400        0.27993208551700      h
      -25.46306877680300       -0.86529440210600        1.96680818748700      h
       12.24280418720200       -7.81181633050500        2.81236586243300      o
       13.96459181428200       -8.18578339193900        2.26817850997600      h
       11.33474532163400       -7.29415018154800        1.29468731857400      h
      -13.27804744066300        4.11579393566500       -6.20285314697800      o
      -14.97957280477200        3.84844035985200       -5.54040999928800      h
      -12.14421901689400        3.52424252546300       -4.86259569014700      h
       -6.87264377233400        8.81481887203500      -13.40444265953500      o
       -5.58036939172300        9.93679392081200      -12.75690112515400      h
       -5.98099717758100        7.56217222901800      -14.37770373182700      h
        6.36305322832700       -7.38168073397600       13.71357279997300      o
        5.10360948881300       -8.55606723917000       14.27346329999100      h
        5.76685617405400       -6.79626519495600       12.04668392534500      h
      -19.92955268089200        5.08765065188200        7.11533347767100      o
      -19.45583223606400        3.63674638362200        8.15147362416900      h
      -18.94746610691500        4.86970704636900        5.56537254907700      h
      -14.98474976381300        1.65139440988100       -0.75416193734400      o
      -16.06477841092400        1.88724099482300       -2.19408832307000      h
      -15.78439959551500        0.43129132438500        0.36363794619600      h
       12.70107830351600        8.84363553509500       -2.88161442368100      o
       11.25701133302700        9.84144480131300       -2.32586445702500      h
       14.20427322462800        9.58819815197700       -2.14316986429100      h
       -1.86180643722300       -8.06306424731900        8.67648764215600      o
       -0.28317919273400       -8.27183486833900        7.79801836326100      h
       -3.13819947950900       -8.82357867702000        7.61837711185900      h
      -18.04534210842700        3.29534803309600       -4.89482711898800      o
      -18.42420846579800        4.72918181272600       -5.98836883750400      h
      -18.32478637082800        1.79297476199200       -5.94988451695800      h
        1.86444028528400       -3.75332734838200      -15.94517654613500      o
        3.40206418110300       -4.06410268876600      -14.98529954405100      h
        0.60860698606000       -4.79734183248900      -15.12156169276800      h
       -2.63572514472700       -5.19224693668800       -8.07627868722100      o
       -3.19838839333300       -3.61593597861700       -7.31956008521600      h
       -3.44499019477900       -6.52146786844200       -7.08390588401300      h
       -3.31679635251100       -4.73856734641200       -1.52476232860000      o
       -4.49726483163700       -3.35585083361300       -1.66365624384500      h
       -1.79658632137700       -4.23631134357500       -2.47382589663800      h
        7.79788791736800       10.04173313116300       -2.65102404816100      o
        7.94810944842900        8.76423707265900       -3.99056428615200      h
        6.98958301515100       11.45573873091200       -3.47877221897300      h
        4.88678056007200       -5.68368042005400        9.18840532584500      o
        3.88703830886500       -6.79036873202000        8.11526731760900      h
        3.79719769685500       -4.31424438117400        9.75080717470700      h
       -9.48414135444900        7.71826079261200       -2.19256726640100      o
      -10.22433275496400        8.58411163567400       -0.73531858700800      h
      -10.50112832531800        8.19059079976300       -3.64618680987900      h
       -4.34707165742500      -13.09361479327400       -4.40736969933300      o
       -4.17735008737900      -11.23862913837200       -4.43334371718800      h
       -5.32306832440200      -13.49587526701400       -2.87041528069400      h
       -4.96953221364800        4.95937458877200        8.79274233004600      o
       -6.70530225807500        5.27978663709000        8.20863521894300      h
       -3.82629029259500        5.34715549266000        7.40252894068000      h
        2.57409842913500       -1.59880289413800       11.34113254507600      o
        1.04960517615600       -0.74078196746400       10.83526767382300      h
        2.37715808026200       -2.03082215947800       13.12689240217900      h
       -9.68300594624900       -6.17404190573100        7.35792093144700      o
      -10.91599770953900       -6.63752601500700        8.66229835329700      h
      -10.44684844677600       -6.61714347475900        5.75029849959900      h
      -18.63166833983000       -0.12161134871900       -8.57841514221500      o
      -19.98482007938100        0.94151339307400       -9.25485436789200      h
      -17.07112425522600        0.37630095801900       -9.44679545016700      h
      -10.38757033928500       10.75452544956300      -10.29492375428200      o
       -9.33352950899700        9.80591506993300      -11.47528779260100      h
       -9.30519274940100       12.04724500671100       -9.62027856450200      h
      -13.79072104836900      -11.48596577487100       -2.77870177263500      o
      -14.46268650773100      -11.51067605493900       -1.08006191649300      h
      -14.81182636967400      -10.25322590675900       -3.67324276689400      h
      -17.96392883530200        0.71867723737800        8.79804287943100      o
      -17.11110480276500        0.15736528682300       10.31364787670600      h
      -16.57623721000400        1.03285568072200        7.59754026543000      h
        3.06054812597200        9.31788594638400      -11.33955188985300      o
        2.39084237179800       10.66173364063300      -10.23501241020800      h
        4.69700503910500        9.87410453843000      -11.88091520259200      h
        5.64721404279500       11.53149714029700        2.46685204538100      o
        4.72993619737200       10.07942611366200        1.78883738541600      h
        5.76064717539100       12.75730664446900        1.09467762598100      h
        3.09813168672400        7.94574285429400       -4.65302731942800      o
        2.02182309270100        6.56967107108900       -5.19818340663400      h
        4.55486380839600        7.87169431505800       -5.74457241662300      h
        3.48907482645800        4.74461470717800       -8.99177444737500      o
        3.77848979243700        6.28293622726700       -9.93912254789600      h
        4.90399854502400        3.62794057779400       -9.34549290572300      h
       15.34200619656300       -2.09759336691800       -8.14255195300700      o
       14.22719162611000       -1.62232716027900       -9.51392732956800      h
       16.79579065623500       -0.97989021013500       -8.28938443311000      h
       12.60717564677700       -8.52412640671700      -12.36436432170200      o
       11.65962092721100       -7.01050364012200      -11.89093327064000      h
       14.21703517116400       -8.35903080831600      -11.53239887405600      h
       -9.46156137661700        5.48232164719200       14.60795324632800      o
       -8.89549423382300        3.77320412067600       14.99905588724700      h
       -7.95169794408800        6.42951060708800       14.16120323065300      h
       17.18624962153500       -3.91855205323800        2.97959123167900      o
       18.69157627181500       -3.32377870885800        2.13897011579800      h
       15.76223821957100       -3.39623688894000        1.94300491011300      h
       13.12844035985200       -3.96483469924600        5.96512840574400      o
       14.90753407449900       -3.66735654022600        5.68856885554800      h
       12.72439589940100       -5.36153581183700        4.81059347202500      h
       11.83254528529800        0.71717116755900        4.49671743982300      o
       12.07685808607900       -0.93122747130100        5.28724478693600      h
       13.37153200952000        0.95999588039700        3.46124246382000      h
      -11.70560938370600       -2.58597552226600      -12.36346754979600      o
      -12.51189764068800       -0.98745467993100      -11.98527581608500      h
      -10.04425649998600       -2.54093315064200      -11.50259167126700      h
      -17.16628001229700       -1.50596423115400        2.64956452286000      o
      -18.75427305001700       -1.26531690080600        3.55438298690300      h
      -17.30085467448100       -3.19030682686600        1.89520867090900      h
      -11.84171639726200       -1.44105899902000        2.06951169046800      o
      -12.35282644647300       -2.09819306918100        0.44693722723500      h
      -13.33608610884000       -0.86996171453000        2.96103309390100      h
        1.52574071947100       12.34881707426400       -2.51112831624700      o
        1.99602845538000       10.80621536288200       -3.40615458154800      h
        0.91607202225600       11.83254237852200       -0.84469621994000      h
       -7.77482727167800        0.59831759701800       14.85736800292600      o
       -6.16581433960300        0.22445147699700       15.66974613894000      h
       -7.33344304704200        0.59226431668700       13.05273909842600      h
       18.45213925840300        0.81136999405500        6.22797008681000      o
       17.02070339832800        0.98708461338600        7.36212593923600      h
       19.19716840118900       -0.82311071284500        6.67438403211100      h
        4.29071877313900       -1.79012480713900        4.89810167447500      o
        5.23798572656000       -0.88153827566200        6.20756599915100      h
        2.88246173238800       -2.55871277726500        5.79590308926000      h
       19.84195494795100       -3.08011763903100       -4.87178572809400      o
       19.77900534728200       -1.48652089320700       -3.91586241139700      h
       20.56365800752700       -2.66654922851400       -6.47686972735800      h
       12.38605617180100        0.16641830603200      -11.81244977042300      o
       11.13605531273200        0.49462959273800      -13.12081573611100      h
       12.21457723523500        1.57806462507500      -10.62596188600400      h
        7.34904780923500       -8.13919822367300       -6.62694166317700      o
        6.96438666582200       -6.29447724775600       -6.62795800579200      h
        9.16696839146100       -8.33301923366900       -6.67140811719700      h
      -24.48957088802300       -1.28656699174900       -4.84295966270400      o
      -25.03032019403100       -1.38755719095000       -3.09920082242400      h
      -23.90713050292400        0.41545740627600       -5.10326015256200      h
      -21.97336420729800        3.58389630896100       -9.46688677930000      o
      -20.81312179854400        4.99984190288100       -9.53236271282700      h
      -22.79794905170300        3.70763791834100       -7.84235795714300      h
       -8.05394791832100       13.18735141661200        5.39048365192400      o
       -9.39997472397100       12.10211533749600        6.02674408420300      h
       -7.23982923793800       13.96000126347100        6.80859608347500      h
       -5.18543425486600       10.31892934099200       -1.58927478554200      o
       -6.63761822512900        9.21490474288300       -1.88995863144200      h
       -5.91270948868800       11.90406282121800       -1.00050175190800      h
        5.43087993142400       -4.88895580093500      -12.40022113270700      o
        5.25783217196400       -6.71392447532600      -12.14682737935500      h
        4.15146550836300       -4.17320163757600      -11.26654180321400      h
      -11.42339066931900       10.58067932529800        1.44634399785100      o
      -13.04674020648600       11.28583171601100        1.00655977224000      h
      -11.53418147824400       10.05621268589700        3.23269026904100      h
       -2.74602580258300       14.91722837277600       -3.47424087459800      o
       -1.21332750258400       13.87318178921700       -3.28662595630100      h
       -2.23436101052400       16.40046895873800       -4.36996276370600      h
        9.41611899876400      -12.03143665394800      -10.46530177487200      o
       10.55358536041400      -11.06059149990700      -11.54993988271500      h
        7.74259083090600      -11.41732633768100      -10.89144236961400      h
       -7.31212252903700       -2.59093492698500       -9.97845109160600      o
       -5.98633232312400       -2.22384664828600      -11.18245411509200      h
       -7.55374662112300       -1.12508218437100       -8.89937001809200      h
       -2.84284941401300       -0.53438622192500       15.33738264773500      o
       -2.84777726711100       -1.51579484500100       13.75938407425100      h
       -2.01207743507300        1.05976725927300       14.93033133321000      h
       -9.28082184313800       -7.53410869507100       -8.22578316762900      o
       -8.86093078621700       -9.31019754798200       -7.96914681972500      h
       -8.37024405848400       -6.94711291146600       -9.70372994164600      h
       -4.89639981808700       -8.19359072572400       -4.69453772201000      o
       -6.71196479191100       -8.29766063700500       -4.39402006957000      h
       -4.26729599302900       -7.07177993967500       -3.35469499577500      h
      -14.87629876801600        6.91431759218100       -1.76263447204800      o
      -15.16898915743300        8.64760368236500       -1.25232628174500      h
      -16.48378839483800        6.18247703652300       -2.17943438952800      h
       -9.51352855071700       -8.79327200511200       -2.73394031104100      o
      -10.91459427942900       -9.98475109758100       -2.89386161151400      h
       -8.79831073882500       -9.05754349761700       -1.05861724349200      h
       15.58705860565500       -4.30319409832500       10.65316644521000      o
       15.19925910006000       -5.80257938200100        9.64867303538300      h
       14.82037862246800       -4.56337690342200       12.27075402918900      h
       -1.49727384959800        6.85511188557100      -10.48185134032400      o
       -2.43399261997800        8.43160387542000      -10.25361781022100      h
        0.19063250903900        7.38676240585200      -10.93877499781500      h
       13.01046411537000       10.86675268377900       -7.49548939234500      o
       13.25610954956800       12.53372000754500       -6.73712125252700      h
       12.64429459043600        9.79265745395000       -6.02439211125600      h
      -22.94698503711200       -6.13455915395900       -0.42420747728300      o
      -23.74232305862900       -4.49854535982900       -0.12136590090800      h
      -22.80713242950000       -6.30464152068800       -2.23493761769000      h
        6.56776809740500        7.53328283928900        5.59598156088600      o
        6.92323826481100        7.26380117429800        3.79818666905700      h
        7.39587171640700        6.10248044048600        6.43584314564100      h
       -0.01332869424500        3.52905230375900       14.20944350273100      o
        0.14323533970500        4.87440803881100       12.95417413854900      h
        1.67166131760800        3.10139207153400       14.73538019207400      h
       -2.40458906964400       -3.56707833571700       11.28850647909500      o
       -1.32244387561200       -4.82041554828000       12.11696188097700      h
       -4.00134646753300       -4.48592437116400       11.10166769996900      h
        2.72725036257200      -10.61345989243800       11.06328104631700      o
        1.29037920828300      -11.65104388574800       10.59103983285300      h
        4.19359505886600      -11.37878541776300       10.29167571373000      h
       -2.01513824063400        6.83982369442700        0.05092783144200      o
       -2.77689242126500        5.63896906813400       -1.10765233128100      h
       -3.05171347007600        8.35917599425900       -0.13258815524300      h
        5.00777892723500        0.92032813012400       15.58791865905200      o
        6.41156247643700       -0.22776095461800       15.24397058010400      h
        3.75577333916400       -0.15683977690200       16.36122129170900      h
       -6.67612823498900      -13.94080913605400       -0.08915743337100      o
       -7.19840428460600      -12.33848789723100        0.62398817288600      h
       -5.19262183375000      -14.41742887307700        0.87519651657000      h
       -8.12239606252200       14.12154356632800        0.05536552761200      o
       -7.20955761628900       15.10416648137900        1.28382150737200      h
       -9.22540727827200       12.97102562324800        0.99715900622800      h
        6.86000030897000       11.36988494989400        9.12744608564600      o
        6.09713470680900       10.73131136681900       10.70584476192300      h
        6.65906339002500       10.02847159664400        7.88256819501300      h
       18.74122469718400        1.68094397159100       -8.53464239714300      o
       18.62676042768700        2.37875525036700      -10.19978494143900      h
       17.78962379298000        2.85172991522700       -7.41043836917700      h
       15.40972091809100       -5.53120024677600       -3.17752397750400      o
       14.46682721513800       -4.60243350196100       -1.88269173320100      h
       16.87787139152600       -4.53451102830800       -3.60283730068100      h
      -17.88818993336900        4.55130974165400        2.50907058137800      o
      -16.06942236123300        4.33751755262500        2.51051668414500      h
      -18.56339255526600        3.24249471679900        1.40399042052600      h
        2.17419820666500      -15.15393978815300       -7.89045502182000      o
        3.89992295776300      -14.74259163366200       -7.27635143845800      h
        2.35318847261100      -16.49384498967300       -9.08719336333500      h
      -11.54968624086400        9.55451121293500        6.28886288481100      o
      -13.19727585289700        9.31326870035900        7.08125094491000      h
      -10.71848407412700        7.91392296845900        6.48744947978300      h
        0.34611312833100       -9.80869432900400        0.68742256611700      o
        0.03034314135100       -9.53354309952800       -1.10907446552000      h
        1.76438720836200      -10.99376640542000        0.76312353614700      h
      -16.86450371166700       11.30817105784200       -5.54847165144600      o
      -16.61706125977500       12.88191984648000       -6.40558387165000      h
      -15.20179007162900       10.39661526857700       -5.67514706943400      h
      -14.05320951130800        1.44137249605200        5.74204648230700      o
      -12.72383303866800        0.64675374448300        6.73823858077300      h
      -13.35050277160400        2.92912617352500        4.93199981439100      h
       15.83791969235400       12.07879185171300        3.42178053758400      o
       16.83237003986200       10.92402343762800        4.43332089270000      h
       14.09578423078900       11.89959196905000        3.93057058423100      h
      -21.21933366751200       -5.16094923126500       -5.49076539645700      o
      -20.70989460563700       -5.37326356635200       -7.26308443374900      h
      -22.54675772519000       -3.87871787801300       -5.51732564509700      h
        5.46235337606900       15.18361909561300       -1.08815353063400      o
        4.42846975378300       16.22244449336300        0.02115825082900      h
        4.20880783199200       14.23072291938600       -2.06458594762700      h
        5.93577941312100       13.11542649584000       -6.36477257129300      o
        6.74223306742200       14.73200037148200       -6.30614638448400      h
        6.79556913972500       12.13658825721300       -7.70861365282400      h
        9.64514432536300       -6.83145104591200       -1.53848950519900      o
       10.53493208986300       -6.28559262637200       -3.04646897260900      h
        8.45173017997800       -5.43368055044500       -1.27999988982900      h
        2.68435005861700       -5.05431916103100        0.84313976946000      o
        2.85399788796700       -4.26988229407300        2.47311161159900      h
        1.89851727491100       -6.69845768863900        1.05819379937100      h
       -8.21224257104300      -11.24659205083800        9.90055477421700      o
       -7.31861182810500      -11.40730709875900        8.30691173218600      h
       -9.92123081592700      -11.77808620347700        9.61688951335500      h
      -15.25275345788700       -4.34478628465600        6.63760991090200      o
      -15.96120119182700       -2.86461600730900        5.83898738449200      h
      -14.14395051763900       -5.09074305781800        5.35007778678900      h
       16.63677755786400       -8.76891487551800        0.51025061715600      o
       16.21050404150000      -10.56197039476000        0.26312599373600      h
       16.22757674356600       -7.85895849247200       -1.05016140659600      h
       21.77086230746200       -3.28873943430600        0.66591821859500      o
       22.78408973053800       -2.54699531306400       -0.65928862419400      h
       21.88861575079800       -5.13211353753200        0.51904130838900      h
       19.17330999843000       -7.74889910651100        5.65740693543800      o
       18.27455701762400       -6.73667730242200        4.40124393723900      h
       17.87750377576700       -8.47649454381300        6.71309577418300      h
      -22.31869723408000       -6.58042741027800        5.00341505472100      o
      -22.05080520353400       -4.78571732617500        5.26841019188900      h
      -22.77059774923100       -6.79450598973200        3.25448888223200      h
       -9.63042079434800        4.99543239499700        7.24732425406900      o
       -9.35604647221600        3.41790085688900        6.31844265095600      h
      -10.80479390856700        4.64066097719300        8.64583165043800      h
       -6.49849560863600       -6.39222899185000       11.62155854429600      o
       -7.34129336812400       -7.11987795053800       10.17408999434300      h
       -5.59916841853700       -7.79636397338800       12.39050710928100      h
       -4.91966347344600      -11.15697821973700        5.81302489415400      o
       -4.00918593780800      -12.40724825533900        4.82278320406300      h
       -5.87258600700300      -10.20458315234500        4.54256264394300      h
      -16.00760877914500      -10.21859630854100        1.88410150277400      o
      -16.75771237070900       -8.78833308672400        0.99635402794900      h
      -16.81442244910500      -10.15135575137900        3.54773196319900      h
       12.26283487748500      -10.01787207201600       -6.68363374042200      o
       13.53537626106600       -8.87305435970500       -7.39246220009500      h
       11.50724191530800      -10.94047210683200       -8.08885106249700      h
       12.68426335156600        6.69694560835800        2.33694419805600      o
       13.30089569627400        5.89939332238100        3.88341175601500      h
       12.09464319082800        8.37501706498100        2.83517072955900      h
       11.25000482541500        8.65701274843100        8.70741816078800      o
       10.39885318617100        7.02131683757500        8.65426487468500      h
       10.10725533198500        9.79354877059500        9.57683409128400      h
      -17.92016306237300       -8.78220669705300        6.36431065613100      o
      -19.67174560392100       -8.30458584255900        6.04321917801200      h
      -17.05233888470600       -7.17088294723800        6.62482557205900      h
       14.28956036281700        0.68466866187700        9.25307115540100      o
       14.59842129686400       -1.07176097910900        9.66787424066600      h
       13.12125459642800        1.30009531437500       10.55181292465200      h
        7.69244587947700      -15.47469285471600       -0.88504247215800      o
        8.76409411167800      -14.03899203661900       -1.38814714203700      h
        7.28045215321600      -16.30069445425500       -2.44684270352100      h
      -20.56899268536200        1.34366141035600       -0.64954337625900      o
      -21.20135223100900        2.35964661463300       -2.03897102607900      h
      -19.50651858358400        0.04925696108000       -1.45507725105200      h
      -13.23476141491800       -6.44856291198200       10.89339919236100      o
      -14.28953922793300       -5.31616521220100        9.91142728638800      h
      -12.44257851083800       -5.47624693283300       12.24159975865200      h
       -1.34142290127900      -13.48800777323700        9.34458675359600      o
       -2.67313296266700      -12.64024512088800        8.43101513451300      h
       -0.18454750606600      -14.10148098937600        8.06663048484000      h
        2.48723237446000      -13.90276324364400        5.84360832077300      o
        2.89533424697800      -14.12042691932800        4.05584897544500      h
        4.03607179813400      -14.08510657563000        6.79025274555400      h
       11.13507247136800       -4.31427105352200       -5.68250652890900      o
       12.92525864452300       -4.60509075843500       -5.44572243561600      h
       10.75831414845800       -4.42679568884000       -7.48733575267400      h
        9.81864410443500       -3.82831228613300        9.72857701727400      o
        8.52559968128600       -5.01879029212300        9.20944173621500      h
       11.20401989080200       -3.96248271344800        8.51588480294900      h
      -10.27613319174000       -3.81084391362500       14.10260850891400      o
       -8.86335955498200       -4.79184856356100       13.45038711999800      h
       -9.52496795327100       -2.20679512362300       14.62062330531700      h
       -6.48021644694300       12.62883924566200       -6.56220709068300      o
       -5.19646687633600       13.29914037783900       -5.42846674326100      h
       -8.09559913458900       13.19568021365800       -5.84767524912200      h
       20.16851913931400       -8.32052725621700       -4.57556664283000      o
       21.00690247611900       -8.81104507344100       -3.03311341024000      h
       20.21235062198300       -6.48956419952700       -4.56259728904500      h
       -4.85496369987600        7.52699837177400       13.10158451479900      o
       -3.51577536457300        6.95198192832400       14.17919720416600      h
       -4.77833104317400        6.44757881054800       11.59337190037200      h
       -6.50438709157700        7.31289613257400       -6.99788947506900      o
       -6.29216502708400        9.12463743132100       -6.79904039659600      h
       -7.89848131267000        7.02805366201900       -8.15811302870400      h
        8.62578400572200      -12.96982191827400        3.73604848231800      o
        8.49672417650800      -14.30754708318300        2.51264083173200      h
        7.78802546976400      -11.49263986173600        2.97107183366100      h
      -16.09394858237100       11.79661139407200       -0.36865339583900      o
      -17.52509330880900       11.21328247192600        0.63032217068400      h
      -16.66777875772700       12.16641302254700       -2.06401179880600      h
      -13.97537263619400      -11.09706589376100        8.85891786960000      o
      -13.63730479178200       -9.64589524822000        9.93288615236400      h
      -15.63251228123400      -10.74979534891600        8.15797566036800      h
      -12.79075482948800        4.41793242362700       11.05978880101500      o
      -11.67558776221800        4.98554485145500       12.44463613232400      h
      -13.43112679142700        2.77237181393600       11.57259020805200      h
       -3.19702110517700        9.91268922723600        8.50863348379700      o
       -2.75069238859600       11.66144155419700        8.07377772109900      h
       -4.13634780791600        9.91855546381600       10.06920629015700      h
       -6.17356932608900        0.33063318045800       10.11052955884800      o
       -5.50510720661000        2.00160904854500        9.65544179260500      h
       -4.81732839332500       -0.85488661228600        9.82521586207200      h
      -18.21977488299500        7.03074988709800       -8.41266644621100      o
      -16.77362680097000        6.89609851791400       -9.56896926485500      h
      -18.08074791498000        8.67550906552600       -7.63526675144700      h
      -19.73851874644000        9.14753611011200        2.03475217604800      o
      -20.41629426933400        9.56283537297100        3.66063386869600      h
      -18.91377201639400        7.48186397333100        2.24476419489400      h
        3.38146640333700       13.85740688309200        6.42148213625100      o
        4.59631007821500       13.51558374201500        7.76483219479200      h
        4.16062006802800       13.04010976189700        4.94540288806100      h
       17.81697519957700        9.62703869758100       -6.31696669316400      o
       16.32474473865300       10.23239179211900       -7.22873328948400      h
       17.66081660009400       10.35365167807900       -4.64171345023400      h
       -7.90138820969000       -6.70334045608800      -13.31691437647900      o
       -9.59245736636500       -6.13249687902300      -13.65003739351900      h
       -6.81915628158300       -5.31729603384700      -13.79875127476200      h
      -20.43303268303700        8.05459154046000       -2.98211355869700      o
      -20.48534855862900        8.57221474634000       -1.22612401164000      h
      -19.42643812094300        9.27301426331100       -3.88775753761600      h
      -17.96220903388800       -5.78928200486200        0.19642826961200      o
      -17.65659845247300       -4.70849363481700       -1.26752309556900      h
      -19.78431761183400       -6.09080707171700        0.20065266825700      h
      -21.27623933783500       -1.40923355474500        5.56736508707900      o
      -20.28446719781600       -0.91531357696700        7.04394306739500      h
      -22.34982523871100        0.03809412653100        5.17555272840000      h
      -23.35077489478700        4.13167163494500       -4.26817014170300      o
      -22.24636535836800        5.58983533098200       -3.96390016305700      h
      -25.01628419010300        4.63102880573500       -3.76647555603600      h
      -18.98321840454700       -5.04969689627300       -9.97325802189600      o
      -17.23580853379800       -5.57557599961900       -9.99314236046300      h
      -18.93520713966400       -3.21927238143200       -9.74515854706200      h
      -14.31932996931900        1.64867383568200      -10.56022325940500      o
      -14.61419026093400        3.05365910111100      -11.67251989002700      h
      -13.70198371581600        2.39483966015500       -8.97600300833000      h
       11.02625632231400        2.11453294837300       12.82326184481200      o
       10.43508459112500        0.72718095142600       13.83573467574900      h
        9.55183952386800        3.14882070745100       12.44517607427000      h
       10.17048139767000       -9.93013710037400       11.26754165059900      o
        9.07316195578800       -9.09408055950900       12.48395616130600      h
        9.91586596956200       -8.99422847194900        9.69418075504600      h
       -3.34752258364200        5.07946736089900      -14.92023134969900      o
       -2.23642727372700        3.82368406061100      -15.64983378745300      h
       -2.56859929506400        5.58929550846500      -13.31262700536300      h
        4.72721215666000       -9.58451193783300      -10.65232440864900      o
        2.96347636782400       -9.85915374991700      -10.23338776877900      h
        5.55107508606900       -9.06719178654800       -9.06866971645800      h
        1.77920864362200       -3.07349555818000       -9.44531968569500      o
        1.07685751387000       -1.41228002975800       -9.86168089120100      h
        0.36649115893600       -4.06510270868400       -8.82248499945000      h
       14.69722580917400        5.29063786697900        6.74506243484500      o
       14.44681884875400        3.65014106917600        7.52685377051200      h
       13.86864785346200        6.50663760627200        7.82697091273300      h
       16.72067405863200      -12.44179310180500       -4.78770244756900      o
       15.21617391023200      -11.70079701913100       -5.51766751693000      h
       18.00139166297500      -11.13876766605600       -4.80807955353200      h
        1.53312619688200       -2.93846081292300       16.18368731075100      o
       -0.12938678279600       -2.13249372166900       16.31765059632400      h
        1.19969109897100       -4.69525593465600       15.79727095812800      h
       14.68976889539800       -8.94157467443000        8.46716042579000      o
       14.36091593202600      -10.13342787292100        7.08886553307300      h
       13.65254445495300       -9.55687552787100        9.83481225837300      h
        4.75565980688600        9.22404456382000       13.08127670452100      o
        5.63192294468600        7.59968558569600       13.05773113965600      h
        3.04965522800400        8.82132980789800       12.52825876266900      h
        8.60974688500400       -2.63032821232700       14.52304498893200      o
        7.73271343443600       -4.16850627595000       14.97115366540900      h
        9.21805566626200       -2.97303441667200       12.81911934329900      h
        0.60223015573300        7.26060727741800       10.81924568659700      o
       -0.74098592728600        8.09285693379900        9.88131935809200      h
        1.58569775938600        6.26477735248900        9.60805147352700      h
        6.90285541710500      -12.94298795757000        8.58657105333700      o
        7.79124462661200      -13.17362073891800        6.99313208129900      h
        8.16647444582200      -12.30126438804300        9.76656714311600      h
       20.23304514011100       -3.51337739512800        8.19914831619900      o
       20.09897849352000       -5.10167192615200        7.23815278570400      h
       18.92031697299300       -3.63165378988500        9.46519090068200      h
       18.74948746966200        8.04580369232000        5.41093066735300      o
       20.16286950066600        7.22979808845100        6.24981685853200      h
       17.31857537321200        6.94425447457800        5.81171201498700      h
       -4.17764769956300      -10.81280641424400       13.20725318809100      o
       -2.93195308751600      -11.69656372762500       12.20929053508500      h
       -5.78166780031300      -11.35544390531800       12.50637749966800      h
[...]
   385   8 o      386   1 h                                       0.9624520
   385   8 o      387   1 h                                       0.9796642
   388   8 o      389   1 h                                       0.9873209
   388   8 o      390   1 h                                       0.9742449
   391   8 o      392   1 h                                       0.9573199
   391   8 o      393   1 h                                       0.9956578
   394   8 o      395   1 h                                       0.9797995
   394   8 o      396   1 h                                       0.9656211
   397   8 o      398   1 h                                       0.9690773
   397   8 o      399   1 h                                       0.9743327
   400   8 o      401   1 h                                       0.9934528
   400   8 o      402   1 h                                       0.9553908 (min)
   403   8 o      404   1 h                                       0.9758448
   403   8 o      405   1 h                                       0.9788869
   406   8 o      407   1 h                                       0.9761593
   406   8 o      408   1 h                                       0.9788532
   409   8 o      410   1 h                                       0.9572924
   412   8 o      413   1 h                                       0.9744709
   412   8 o      414   1 h                                       0.9704862
   415   8 o      416   1 h                                       0.9679223
   415   8 o      417   1 h                                       0.9650800
   418   8 o      419   1 h                                       0.9822933
   418   8 o      420   1 h                                       0.9767410
   421   8 o      422   1 h                                       0.9726857
   421   8 o      423   1 h                                       0.9804511
   424   8 o      425   1 h                                       0.9564966
   424   8 o      426   1 h                                       0.9904626
   427   8 o      428   1 h                                       0.9705298
   427   8 o      429   1 h                                       0.9821645
   430   8 o      431   1 h                                       0.9614336
   430   8 o      432   1 h                                       0.9710039
   433   8 o      434   1 h                                       0.9705901
   433   8 o      435   1 h                                       0.9589055
   436   8 o      437   1 h                                       0.9657449
   436   8 o      438   1 h                                       0.9819959
   439   8 o      440   1 h                                       0.9840176
   439   8 o      441   1 h                                       0.9801002
   442   8 o      443   1 h                                       0.9660909
   442   8 o      444   1 h                                       0.9805452
   445   8 o      446   1 h                                       0.9772309
   445   8 o      447   1 h                                       0.9646406
   448   8 o      449   1 h                                       0.9704270
   448   8 o      450   1 h                                       0.9625771
   451   8 o      452   1 h                                       0.9795796
   451   8 o      453   1 h                                       0.9844458
   454   8 o      455   1 h                                       0.9663748
   454   8 o      456   1 h                                       0.9716805
   457   8 o      458   1 h                                       0.9718327
   457   8 o      459   1 h                                       0.9799346
   460   8 o      461   1 h                                       0.9752385
   460   8 o      462   1 h                                       0.9790689
   463   8 o      464   1 h                                       0.9803938
   463   8 o      465   1 h                                       0.9752878
   466   8 o      467   1 h                                       0.9768857
   466   8 o      468   1 h                                       0.9774472
   469   8 o      470   1 h                                       0.9761543
   469   8 o      471   1 h                                       0.9690556
   472   8 o      473   1 h                                       0.9756489
   472   8 o      474   1 h                                       0.9782412
   475   8 o      476   1 h                                       0.9689150
   475   8 o      477   1 h                                       0.9801098
   478   8 o      479   1 h                                       0.9847221
   478   8 o      480   1 h                                       0.9600211
   481   8 o      482   1 h                                       0.9703751
   481   8 o      483   1 h                                       0.9833616
   484   8 o      485   1 h                                       0.9698752
   484   8 o      486   1 h                                       0.9744044
   487   8 o      488   1 h                                       0.9651889
   487   8 o      489   1 h                                       0.9682472
   490   8 o      491   1 h                                       0.9771897
   490   8 o      492   1 h                                       0.9654097
   493   8 o      494   1 h                                       0.9678896
   493   8 o      495   1 h                                       0.9774775
   496   8 o      497   1 h                                       0.9698107
   496   8 o      498   1 h                                       0.9768862
   499   8 o      500   1 h                                       0.9734118
   499   8 o      501   1 h                                       0.9765523
   502   8 o      503   1 h                                       0.9732667
   502   8 o      504   1 h                                       0.9816667
   505   8 o      506   1 h                                       0.9645925
   505   8 o      507   1 h                                       0.9692059
   508   8 o      509   1 h                                       0.9591575
   508   8 o      510   1 h                                       0.9822939
   511   8 o      512   1 h                                       0.9710058
   511   8 o      513   1 h                                       0.9715488
   514   8 o      515   1 h                                       0.9617193
   514   8 o      516   1 h                                       0.9856195
   517   8 o      518   1 h                                       0.9738012
   517   8 o      519   1 h                                       0.9671465
   520   8 o      521   1 h                                       0.9719582
   520   8 o      522   1 h                                       0.9697133
   523   8 o      524   1 h                                       0.9876755
   523   8 o      525   1 h                                       0.9730117
   526   8 o      527   1 h                                       0.9823964
   526   8 o      528   1 h                                       0.9638810
   529   8 o      530   1 h                                       0.9823484
   529   8 o      531   1 h                                       0.9651141
   532   8 o      533   1 h                                       0.9824061
   532   8 o      534   1 h                                       0.9655000
   535   8 o      536   1 h                                       0.9577004
   535   8 o      537   1 h                                       0.9898269
   538   8 o      539   1 h                                       0.9753639
   538   8 o      540   1 h                                       0.9834535
   541   8 o      542   1 h                                       0.9792671
   541   8 o      543   1 h                                       0.9698284
   544   8 o      545   1 h                                       0.9607953
   544   8 o      546   1 h                                       0.9648618
   547   8 o      548   1 h                                       0.9691560
   547   8 o      549   1 h                                       0.9639131
   550   8 o      551   1 h                                       0.9764224
   550   8 o      552   1 h                                       0.9773339
   553   8 o      554   1 h                                       0.9768806
   553   8 o      555   1 h                                       0.9758782
   556   8 o      557   1 h                                       0.9812696
   556   8 o      558   1 h                                       0.9576466
   559   8 o      560   1 h                                       0.9657138
   559   8 o      561   1 h                                       0.9764415
   562   8 o      563   1 h                                       0.9610258
   562   8 o      564   1 h                                       0.9825660
   565   8 o      566   1 h                                       0.9612008
   565   8 o      567   1 h                                       0.9738307
   568   8 o      569   1 h                                       0.9732784
   568   8 o      570   1 h                                       0.9780791
   571   8 o      572   1 h                                       0.9676631
   571   8 o      573   1 h                                       0.9830510
   574   8 o      575   1 h                                       0.9702433
   574   8 o      576   1 h                                       0.9835201
   577   8 o      578   1 h                                       0.9795199
   577   8 o      579   1 h                                       0.9710047
   580   8 o      581   1 h                                       0.9707383
   580   8 o      582   1 h                                       0.9664873
   583   8 o      584   1 h                                       0.9678947
   583   8 o      585   1 h                                       0.9668936
   586   8 o      587   1 h                                       0.9802612
   586   8 o      588   1 h                                       0.9680944
   589   8 o      590   1 h                                       0.9798150
   589   8 o      591   1 h                                       0.9649183
   592   8 o      593   1 h                                       0.9767491
   592   8 o      594   1 h                                       0.9726588
   595   8 o      596   1 h                                       0.9665247
   595   8 o      597   1 h                                       0.9744408
   598   8 o      599   1 h                                       0.9723875
   598   8 o      600   1 h                                       0.9794608
   601   8 o      602   1 h                                       0.9730928
   601   8 o      603   1 h                                       0.9758885
   604   8 o      605   1 h                                       0.9849190
   604   8 o      606   1 h                                       0.9671224
   607   8 o      608   1 h                                       0.9710430
   607   8 o      609   1 h                                       0.9788415
   610   8 o      611   1 h                                       0.9654710
   610   8 o      612   1 h                                       0.9697904
   613   8 o      614   1 h                                       0.9814455
   613   8 o      615   1 h                                       0.9573664
   616   8 o      617   1 h                                       0.9641830
   616   8 o      618   1 h                                       0.9763030
   619   8 o      620   1 h                                       0.9750550
   619   8 o      621   1 h                                       0.9740027
   622   8 o      623   1 h                                       0.9731129
   622   8 o      624   1 h                                       0.9684868
   625   8 o      626   1 h                                       0.9924701
   625   8 o      627   1 h                                       0.9598127
   628   8 o      629   1 h                                       0.9783264
   628   8 o      630   1 h                                       0.9823028
   631   8 o      632   1 h                                       0.9733808
   631   8 o      633   1 h                                       0.9767695
   634   8 o      635   1 h                                       0.9674145
   634   8 o      636   1 h                                       0.9740513
   637   8 o      638   1 h                                       0.9793307
   637   8 o      639   1 h                                       0.9890292
   640   8 o      641   1 h                                       0.9774092
   640   8 o      642   1 h                                       0.9662498
   643   8 o      644   1 h                                       0.9783532
   643   8 o      645   1 h                                       0.9644661
   646   8 o      647   1 h                                       0.9811222
   646   8 o      648   1 h                                       0.9781348
   649   8 o      650   1 h                                       0.9630489
   649   8 o      651   1 h                                       0.9691072
   652   8 o      653   1 h                                       0.9865762
   652   8 o      654   1 h                                       0.9600420
   655   8 o      656   1 h                                       0.9756650
   655   8 o      657   1 h                                       0.9688993
   658   8 o      659   1 h                                       0.9728691
   658   8 o      660   1 h                                       0.9819765
   661   8 o      662   1 h                                       0.9646058
   661   8 o      663   1 h                                       0.9873104
   664   8 o      665   1 h                                       0.9742399
   664   8 o      666   1 h                                       0.9704065
   667   8 o      668   1 h                                       0.9788233
   667   8 o      669   1 h                                       0.9622853
   670   8 o      671   1 h                                       0.9626562
   670   8 o      672   1 h                                       0.9738870
   673   8 o      674   1 h                                       0.9646066
   673   8 o      675   1 h                                       0.9733120
   676   8 o      677   1 h                                       0.9850499
   676   8 o      678   1 h                                       0.9779222
   679   8 o      680   1 h                                       0.9740431
   679   8 o      681   1 h                                       0.9737017
   682   8 o      683   1 h                                       0.9703215
   682   8 o      684   1 h                                       0.9691978
   685   8 o      686   1 h                                       0.9732697
   685   8 o      687   1 h                                       0.9650494
   688   8 o      689   1 h                                       0.9805720
   688   8 o      690   1 h                                       0.9763488
   691   8 o      692   1 h                                       0.9806885
   691   8 o      693   1 h                                       0.9573188
   694   8 o      695   1 h                                       0.9788778
   694   8 o      696   1 h                                       0.9741196
   697   8 o      698   1 h                                       0.9748184
   697   8 o      699   1 h                                       0.9605705
   700   8 o      701   1 h                                       0.9635052
   700   8 o      702   1 h                                       0.9762278
   703   8 o      704   1 h                                       0.9726653
   703   8 o      705   1 h                                       0.9643265
   706   8 o      707   1 h                                       0.9568400
   706   8 o      708   1 h                                       0.9880876
   709   8 o      710   1 h                                       0.9628659
   709   8 o      711   1 h                                       0.9717627
   712   8 o      713   1 h                                       0.9821109
   712   8 o      714   1 h                                       0.9934534
   715   8 o      716   1 h                                       0.9803501
   715   8 o      717   1 h                                       0.9701076
   718   8 o      719   1 h                                       0.9639927
   718   8 o      720   1 h                                       0.9728354
   721   8 o      722   1 h                                       0.9658896
   721   8 o      723   1 h                                       0.9659077
   724   8 o      725   1 h                                       0.9690422
   724   8 o      726   1 h                                       0.9748387
   727   8 o      728   1 h                                       0.9781588
   727   8 o      729   1 h                                       0.9751984
   730   8 o      731   1 h                                       0.9558401
   730   8 o      732   1 h                                       0.9869606
   733   8 o      734   1 h                                       0.9893328
   733   8 o      735   1 h                                       0.9580356
   736   8 o      737   1 h                                       0.9813528
   736   8 o      738   1 h                                       0.9567681
   739   8 o      740   1 h                                       0.9707730
   739   8 o      741   1 h                                       0.9839365
   742   8 o      743   1 h                                       0.9727459
   742   8 o      744   1 h                                       0.9705417
   745   8 o      746   1 h                                       0.9813203
   745   8 o      747   1 h                                       0.9644354
   748   8 o      749   1 h                                       0.9665207
   748   8 o      750   1 h                                       0.9620971
   751   8 o      752   1 h                                       0.9748117
   751   8 o      753   1 h                                       0.9586353
   754   8 o      755   1 h                                       0.9616873
   754   8 o      756   1 h                                       0.9647299

 * 1 distinct bonds (by element types)

   Z      Z             #   av. dist./Å        max./Å        min./Å
   1 H    8 O         502     0.9733953     0.9971813     0.9553908


optimized geometry written to: xtbopt.coord


           -------------------------------------------------
          | TOTAL ENERGY            -1283.351573427492 Eh   |
          | GRADIENT NORM               0.005121035313 Eh/α |
          | HOMO-LUMO GAP               7.833164429748 eV   |
           -------------------------------------------------

------------------------------------------------------------------------
 * finished run on 2022/11/24 at 09:12:56.391     
------------------------------------------------------------------------
 total:
 * wall-time:     0 d,  0 h,  5 min,  4.026 sec
 *  cpu-time:     0 d,  0 h,  7 min, 31.555 sec
 * ratio c/w:     1.485 speedup
 SCF:
 * wall-time:     0 d,  0 h,  0 min, 21.933 sec
 *  cpu-time:     0 d,  0 h,  0 min, 35.651 sec
 * ratio c/w:     1.625 speedup
 ANC optimizer:
 * wall-time:     0 d,  0 h,  4 min, 41.049 sec
 *  cpu-time:     0 d,  0 h,  6 min, 54.156 sec
 * ratio c/w:     1.474 speedup

