      -----------------------------------------------------------      
     |                   =====================                   |     
     |                           x T B                           |     
     |                   =====================                   |     
     |                         S. Grimme                         |     
     |          Mulliken Center for Theoretical Chemistry        |     
     |                    University of Bonn                     |     
      -----------------------------------------------------------      

   * xtb version 6.5.1 (579679a) compiled by 'ehlert@majestix' on 2022-07-11

   xtb is free software: you can redistribute it and/or modify it under
   the terms of the GNU Lesser General Public License as published by
   the Free Software Foundation, either version 3 of the License, or
   (at your option) any later version.
   
   xtb is distributed in the hope that it will be useful,
   but WITHOUT ANY WARRANTY; without even the implied warranty of
   MERCHANTABILITY or FITNESS FOR A PARTICULAR PURPOSE.  See the
   GNU Lesser General Public License for more details.
   
   Cite this work as:
   * C. Bannwarth, E. Caldeweyher, S. Ehlert, A. Hansen, P. Pracht,
     J. Seibert, S. Spicher, S. Grimme, WIREs Comput. Mol. Sci., 2020, 11,
     e01493. DOI: 10.1002/wcms.1493
   
   for GFN2-xTB:
   * C. Bannwarth, S. Ehlert and S. Grimme., J. Chem. Theory Comput., 2019,
     15, 1652-1671. DOI: 10.1021/acs.jctc.8b01176
   for GFN1-xTB:
   * S. Grimme, C. Bannwarth, P. Shushkov, J. Chem. Theory Comput., 2017,
     13, 1989-2009. DOI: 10.1021/acs.jctc.7b00118
   for GFN0-xTB:
   * P. Pracht, E. Caldeweyher, S. Ehlert, S. Grimme, ChemRxiv, 2019, preprint.
     DOI: 10.26434/chemrxiv.8326202.v1
   for GFN-FF:
   * S. Spicher and S. Grimme, Angew. Chem. Int. Ed., 2020, 59, 15665-15673.
     DOI: 10.1002/anie.202004239
   
   for ALPB and GBSA implicit solvation:
   * S. Ehlert, M. Stahn, S. Spicher, S. Grimme, J. Chem. Theory Comput.,
     2021, 17, 4250-4261. DOI: 10.1021/acs.jctc.1c00471
   
   for DFT-D4:
   * E. Caldeweyher, C. Bannwarth and S. Grimme, J. Chem. Phys., 2017,
     147, 034112. DOI: 10.1063/1.4993215
   * E. Caldeweyher, S. Ehlert, A. Hansen, H. Neugebauer, S. Spicher,
     C. Bannwarth and S. Grimme, J. Chem. Phys., 2019, 150, 154122.
     DOI: 10.1063/1.5090222
   * E. Caldeweyher, J.-M. Mewes, S. Ehlert and S. Grimme, Phys. Chem. Chem. Phys.
     2020, 22, 8499-8512. DOI: 10.1039/D0CP00502A
   
   for sTDA-xTB:
   * S. Grimme and C. Bannwarth, J. Chem. Phys., 2016, 145, 054103.
     DOI: 10.1063/1.4959605
   
   in the mass-spec context:
   * V. Asgeirsson, C. Bauer and S. Grimme, Chem. Sci., 2017, 8, 4879.
     DOI: 10.1039/c7sc00601b
   * J. Koopman and S. Grimme, ACS Omega 2019, 4, 12, 15120-15133.
     DOI: 10.1021/acsomega.9b02011
   
   for metadynamics refer to:
   * S. Grimme, J. Chem. Theory Comput., 2019, 155, 2847-2862
     DOI: 10.1021/acs.jctc.9b00143
   
   for SPH calculations refer to:
   * S. Spicher and S. Grimme, J. Chem. Theory Comput., 2021, 17, 1701-1714
     DOI: 10.1021/acs.jctc.0c01306
   
   with help from (in alphabetical order)
   P. Atkinson, C. Bannwarth, F. Bohle, G. Brandenburg, E. Caldeweyher
   M. Checinski, S. Dohm, S. Ehlert, S. Ehrlich, I. Gerasimov, C. Hölzer
   A. Katbashev, J. Koopman, C. Lavigne, S. Lehtola, F. März, M. Müller,
   F. Musil, H. Neugebauer, J. Pisarek, C. Plett, P. Pracht, F. Pultar,
   J. Seibert, P. Shushkov, S. Spicher, M. Stahn, M. Steiner, T. Strunk,
   J. Stückrath, T. Rose, and J. Unsleber
   
 * started run on 2022/11/24 at 09:28:10.076     

           -------------------------------------------------
          |                Calculation Setup                |
           -------------------------------------------------

          program call               : xtb solvent_cluster.coord --gfn2 --sp --lmo --chrg 0
          hostname                   : cn0341
          coordinate file            : solvent_cluster.coord
          omp threads                :                     2

   ID    Z sym.   atoms
    1    8 o      1, 4, 7, 10, 13, 16, 19, 22, 25, 28, 31, 34, 37, 40, 43,
                  46, 49, 52, 55, 58, 61, 64, 67, 70, 73, 76, 79, 82, 85, 88,
                  91, 94, 97, 100, 103, 106, 109, 112, 115, 118, 121, 124,
                  127, 130, 133, 136, 139, 142, 145, 148, 151, 154, 157, 160,
                  163, 166, 169, 172, 175, 178, 181, 184, 187, 190, 193, 196,
                  199, 202, 205, 208, 211, 214, 217, 220, 223, 226, 229, 232,
                  235, 238, 241, 244, 247, 250, 253, 256, 259, 262, 265, 268,
                  271, 274, 277, 280, 283, 286, 289, 292, 295, 298, 301, 304,
                  307, 310, 313, 316, 319, 322, 325, 328, 331, 334, 337, 340,
                  343, 346, 349, 352, 355, 358, 361, 364, 367, 370, 373, 376,
                  379, 382, 385, 388, 391, 394, 397, 400, 403, 406, 409, 412,
                  415, 418, 421, 424, 427, 430, 433, 436, 439, 442, 445, 448,
                  451, 454, 457, 460, 463, 466, 469, 472, 475, 478, 481, 484,
                  487, 490, 493, 496, 499, 502, 505, 508, 511, 514, 517, 520,
                  523, 526, 529, 532, 535, 538, 541, 544, 547, 550, 553, 556,
                  559, 562, 565, 568, 571, 574, 577, 580, 583, 586, 589, 592,
                  595, 598, 601, 604, 607, 610, 613, 616, 619, 622, 625, 628,
                  631, 634, 637, 640, 643, 646, 649, 652, 655, 658, 661, 664,
                  667, 670, 673, 676, 679, 682, 685, 688, 691, 694, 697, 700,
                  703, 706, 709, 712, 715, 718, 721, 724, 727, 730, 733, 736,
                  739, 742, 745, 748, 751, 754
    2    1 h      2, 3, 5, 6, 8, 9, 11, 12, 14, 15, 17, 18, 20, 21, 23, 24,
                  26, 27, 29, 30, 32, 33, 35, 36, 38, 39, 41, 42, 44, 45, 47,
                  48, 50, 51, 53, 54, 56, 57, 59, 60, 62, 63, 65, 66, 68, 69,
                  71, 72, 74, 75, 77, 78, 80, 81, 83, 84, 86, 87, 89, 90, 92,
                  93, 95, 96, 98, 99, 101, 102, 104, 105, 107, 108, 110, 111,
                  113, 114, 116, 117, 119, 120, 122, 123, 125, 126, 128, 129,
                  131, 132, 134, 135, 137, 138, 140, 141, 143, 144, 146, 147,
                  149, 150, 152, 153, 155, 156, 158, 159, 161, 162, 164, 165,
                  167, 168, 170, 171, 173, 174, 176, 177, 179, 180, 182, 183,
                  185, 186, 188, 189, 191, 192, 194, 195, 197, 198, 200, 201,
                  203, 204, 206, 207, 209, 210, 212, 213, 215, 216, 218, 219,
                  221, 222, 224, 225, 227, 228, 230, 231, 233, 234, 236, 237,
                  239, 240, 242, 243, 245, 246, 248, 249, 251, 252, 254, 255,
                  257, 258, 260, 261, 263, 264, 266, 267, 269, 270, 272, 273,
                  275, 276, 278, 279, 281, 282, 284, 285, 287, 288, 290, 291,
                  293, 294, 296, 297, 299, 300, 302, 303, 305, 306, 308, 309,
                  311, 312, 314, 315, 317, 318, 320, 321, 323, 324, 326, 327,
                  329, 330, 332, 333, 335, 336, 338, 339, 341, 342, 344, 345,
                  347, 348, 350, 351, 353, 354, 356, 357, 359, 360, 362, 363,
                  365, 366, 368, 369, 371, 372, 374, 375, 377, 378, 380, 381,
                  383, 384, 386, 387, 389, 390, 392, 393, 395, 396, 398, 399,
                  401, 402, 404, 405, 407, 408, 410, 411, 413, 414, 416, 417,
                  419, 420, 422, 423, 425, 426, 428, 429, 431, 432, 434, 435,
                  437, 438, 440, 441, 443, 444, 446, 447, 449, 450, 452, 453,
                  455, 456, 458, 459, 461, 462, 464, 465, 467, 468, 470, 471,
                  473, 474, 476, 477, 479, 480, 482, 483, 485, 486, 488, 489,
                  491, 492, 494, 495, 497, 498, 500, 501, 503, 504, 506, 507,
                  509, 510, 512, 513, 515, 516, 518, 519, 521, 522, 524, 525,
                  527, 528, 530, 531, 533, 534, 536, 537, 539, 540, 542, 543,
                  545, 546, 548, 549, 551, 552, 554, 555, 557, 558, 560, 561,
                  563, 564, 566, 567, 569, 570, 572, 573, 575, 576, 578, 579,
                  581, 582, 584, 585, 587, 588, 590, 591, 593, 594, 596, 597,
                  599, 600, 602, 603, 605, 606, 608, 609, 611, 612, 614, 615,
                  617, 618, 620, 621, 623, 624, 626, 627, 629, 630, 632, 633,
                  635, 636, 638, 639, 641, 642, 644, 645, 647, 648, 650, 651,
                  653, 654, 656, 657, 659, 660, 662, 663, 665, 666, 668, 669,
                  671, 672, 674, 675, 677, 678, 680, 681, 683, 684, 686, 687,
                  689, 690, 692, 693, 695, 696, 698, 699, 701, 702, 704, 705,
                  707, 708, 710, 711, 713, 714, 716, 717, 719, 720, 722, 723,
                  725, 726, 728, 729, 731, 732, 734, 735, 737, 738, 740, 741,
                  743, 744, 746, 747, 749, 750, 752, 753, 755, 756

molecular fragmentation (1/2 indicates fragments):
111222222222222222222222222222222222222222222222222222222222222222222222
222222222222222222222222222222222222222222222222222222222222222222222222
222222222222222222222222222222222222222222222222222222222222222222222222
222222222222222222222222222222222222222222222222222222222222222222222222
222222222222222222222222222222222222222222222222222222222222222222222222
222222222222222222222222222222222222222222222222222222222222222222222222
222222222222222222222222222222222222222222222222222222222222222222222222
222222222222222222222222222222222222222222222222222222222222222222222222
222222222222222222222222222222222222222222222222222222222222222222222222
222222222222222222222222222222222222222222222222222222222222222222222222
222222222222222222222222222222222222
# atoms in fragment 1/2:     3   753
 fragment masses (1/2) :       18.02     4521.84
CMA distance (Bohr)    :  16.339
constraining FC (au)   :  0.0500

           -------------------------------------------------
          |                 G F N 2 - x T B                 |
           -------------------------------------------------

        Reference                      10.1021/acs.jctc.8b01176
      * Hamiltonian:
        H0-scaling (s, p, d)           1.850000    2.230000    2.230000
        zeta-weighting                 0.500000
      * Dispersion:
        s8                             2.700000
        a1                             0.520000
        a2                             5.000000
        s9                             5.000000
      * Repulsion:
        kExp                           1.500000    1.000000
        rExp                           1.000000
      * Coulomb:
        alpha                          2.000000
        third order                    shell-resolved
        anisotropic                    true
        a3                             3.000000
        a5                             4.000000
        cn-shift                       1.200000
        cn-exp                         4.000000
        max-rad                        5.000000


          ...................................................
          :                      SETUP                      :
          :.................................................:
          :  # basis functions                1512          :
          :  # atomic orbitals                1512          :
          :  # shells                         1008          :
          :  # electrons                      2016          :
          :  max. iterations                   250          :
          :  Hamiltonian                  GFN2-xTB          :
          :  restarted?                      false          :
          :  GBSA solvation                  false          :
          :  PC potential                    false          :
          :  electronic temp.          300.0000000     K    :
          :  accuracy                    1.0000000          :
          :  -> integral cutoff          0.2500000E+02      :
          :  -> integral neglect         0.1000000E-07      :
          :  -> SCF convergence          0.1000000E-05 Eh   :
          :  -> wf. convergence          0.1000000E-03 e    :
          :  Broyden damping             0.4000000          :
          ...................................................

 iter      E             dE          RMSdq      gap      omega  full diag
   1  -1291.0429159 -0.129104E+04  0.407E+00    8.45       0.0  T
   2  -1291.1157373 -0.728215E-01  0.241E+00    8.30       1.0  T
   3  -1291.1468143 -0.310769E-01  0.209E-01    7.63       1.0  T
   4  -1291.1519284 -0.511414E-02  0.455E-02    7.85       1.0  T
   5  -1291.1520007 -0.722571E-04  0.306E-02    7.82       1.0  T
   6  -1291.1520387 -0.379757E-04  0.423E-03    7.83       1.0  T
   7  -1291.1520409 -0.229595E-05  0.781E-04    7.83       4.7  T
   8  -1291.1520410 -0.350649E-07  0.408E-04    7.83       8.9  T
   9  -1291.1520410 -0.163341E-07  0.638E-05    7.83      57.0  T

   *** convergence criteria satisfied after 9 iterations ***

         #    Occupation            Energy/Eh            Energy/eV
      -------------------------------------------------------------
         1        2.0000           -0.7115530             -19.3623
       ...           ...                  ...                  ...
      1002        2.0000           -0.4061228             -11.0512
      1003        2.0000           -0.4050946             -11.0232
      1004        2.0000           -0.4048393             -11.0162
      1005        2.0000           -0.4048025             -11.0152
      1006        2.0000           -0.4025695             -10.9545
      1007        2.0000           -0.4009796             -10.9112
      1008        2.0000           -0.3997150             -10.8768 (HOMO)
      1009                         -0.1118531              -3.0437 (LUMO)
      1010                         -0.0971842              -2.6445
      1011                         -0.0841029              -2.2886
      1012                         -0.0821719              -2.2360
      1013                         -0.0770393              -2.0963
       ...                                ...                  ...
      1512                          0.4264547              11.6044
      -------------------------------------------------------------
                  HL-Gap            0.2878619 Eh            7.8331 eV
             Fermi-level           -0.2557840 Eh           -6.9602 eV
 
 localization/xTB-IFF output generation
 averaging CT terms over           14  occ. levels
 averaging CT terms over            1  virt. levels
 dipole moment from electron density (au)
     X       Y       Z   
  -3.5942   4.1185  -5.3066  total (Debye):   19.365
cpu  time for init local    0.87 s
wall time for init local    0.47 s
 doing rotations ...
 initialization of trafo matrix to unity

 converged in     16 iterations, threshold :   0.99999672D-06
 doing transformations ...
 lmo centers(Z=2) and atoms on file <lmocent.coord>
 LMO Fii/eV  ncent    charge center   contributions...
    1 LP   *******   0.00  -6.45379   7.19585  13.90021  508O : 22.59  628O : 21.10  568O : 19.35  271O : 18.96  703O : 17.94  439O : 17.92  385O : 17.56  331O : 16.53  499O : 15.58  664O : 14.89  448O : 13.31  322O : 13.14
  412O : 12.71   16O : 12.70  658O : 12.69   10O : 12.30   58O : 11.72  148O : 11.66  388O : 10.86  367O : 10.60  574O : 10.55  361O : 10.50  610O : 10.37  724O : 10.36
  727O : 10.34  283O : 10.33  316O : 10.21  181O : 10.20  547O : 10.07  598O :  9.89  160O :  9.70  298O :  9.56  301O :  9.42  706O :  9.39  364O :  9.17    1O :  9.15
  325O :  9.12   85O :  9.10  208O :  8.93  616O :  8.79  469O :  8.66  460O :  8.62  358O :  8.54   22O :  8.54  415O :  8.52   67O :  8.24  454O :  7.98  238O :  7.96
   43O :  7.83  475O :  7.79  274O :  7.63  307O :  7.61   52O :  7.52  343O :  7.48  496O :  7.40  718O :  7.39  262O :  7.33  736O :  7.30  244O :  7.14    4O :  7.11
  433O :  6.98  451O :  6.84  679O :  6.75  715O :  6.70   28O :  6.63  553O :  6.61  472O :  6.61  493O :  6.57  697O :  6.41   13O :  6.38  712O :  6.23  175O :  6.22
  427O :  6.22  103O :  6.11  202O :  6.06  583O :  6.05  670O :  6.01  529O :  5.98  619O :  5.91   34O :  5.84  355O :  5.78  538O :  5.70  376O :  5.63  430O :  5.63
  337O :  5.51  349O :  5.48  157O :  5.44  223O :  5.44  394O :  5.10  487O :  5.02   19O :  5.00  145O :  4.99  721O :  4.90  226O :  4.86  466O :  4.79  268O :  4.74
   61O :  4.73  745O :  4.72  601O :  4.71  163O :  4.54  400O :  4.53  673O :  4.51  562O :  4.46  682O :  4.38  403O :  4.37  214O :  4.33  370O :  4.23  739O :  4.21
  379O :  4.19  511O :  4.19  172O :  4.16  250O :  4.14  259O :  4.14  514O :  4.14  652O :  4.11  277O :  4.06  544O :  3.98   31O :  3.97  595O :  3.97  340O :  3.95
  100O :  3.94  346O :  3.91  604O :  3.91  463O :  3.85  634O :  3.82  112O :  3.81  436O :  3.80  424O :  3.65  559O :  3.59  187O :  3.58  247O :  3.45  121O :  3.42
  442O :  3.42   91O :  3.40  154O :  3.37  526O :  3.36  256O :  3.31  586O :  3.26   88O :  3.25   49O :  3.24  607O :  3.23  418O :  3.18  406O :  3.15  127O :  3.12
   79O :  3.09   76O :  3.07  272H :  3.06  193O :  2.97  352O :  2.97  241O :  2.96  580O :  2.95  742O :  2.93  310O :  2.89  589O :  2.87   97O :  2.85  184O :  2.82
  211O :  2.75  445O :  2.73  676O :  2.73  691O :  2.69  292O :  2.63  217O :  2.62  130O :  2.53  158H :  2.49  229O :  2.47  136O :  2.46  481O :  2.42  391O :  2.42
  640O :  2.39  205O :  2.38  520O :  2.37  505O :  2.36  196O :  2.34  106O :  2.33  523O :  2.32  253O :  2.21  571O :  2.21  169O :  2.19  688O :  2.17  535O :  2.15
  151O :  2.04  733O :  2.03  502O :  2.01  280O :  2.00   64O :  1.98  748O :  1.95  397O :  1.95  265O :  1.93  139O :  1.90   94O :  1.89  613O :  1.88  295O :  1.88
  133O :  1.83  592O :  1.83  625O :  1.82  232O :  1.77  550O :  1.75  490O :  1.66  359H :  1.66  700O :  1.63  484O :  1.61  389H :  1.56  166O :  1.49  541O :  1.48
  637O :  1.47  434H :  1.46  646O :  1.46  684H :  1.46  477H :  1.45  366H :  1.44  190O :  1.42  286O :  1.41  178O :  1.39  109O :  1.38  643O :  1.37  532O :  1.37
  334O :  1.35  517O :  1.34  386H :  1.34  556O :  1.33  704H :  1.33   24H :  1.30  565O :  1.28  115O :  1.28  357H :  1.27  284H :  1.24  584H :  1.24  118O :  1.24
   37O :  1.23   25O :  1.21  409O :  1.20   40O :  1.20   73O :  1.16   21H :  1.15  655O :  1.13  497H :  1.13  631O :  1.12  220O :  1.11  685O :  1.10  501H :  1.09
  309H :  1.09  649O :  1.08  667O :  1.06  324H :  1.05    5H :  1.05  326H :  1.03  569H :  1.02  611H :  1.01  570H :  0.99  512H :  0.98   30H :  0.98  577O :  0.97
  260H :  0.96  395H :  0.96  743H :  0.96  575H :  0.96  453H :  0.94  294H :  0.94  516H :  0.92  373O :  0.91  289O :  0.90   90H :  0.89   82O :  0.88  707H :  0.88
  107H :  0.85  751O :  0.84  203H :  0.83  183H :  0.82   70O :  0.82  235O :  0.82  421O :  0.80  478O :  0.79  198H :  0.79  218H :  0.78  313O :  0.77  632H :  0.76
   55O :  0.75  531H :  0.75  672H :  0.75  372H :  0.74  155H :  0.72  360H :  0.69  317H :  0.68  754O :  0.68  285H :  0.68  455H :  0.67  124O :  0.67  555H :  0.65
  369H :  0.65  444H :  0.65  199O :  0.65  665H :  0.64  233H :  0.64   45H :  0.62  709O :  0.62  319O :  0.62   46O :  0.59  699H :  0.59  728H :  0.59  552H :  0.58
   23H :  0.57  470H :  0.56  641H :  0.56  457O :  0.55  564H :  0.55   12H :  0.55  303H :  0.53  328O :  0.53  153H :  0.53  266H :  0.51  432H :  0.51  654H :  0.51
  146H :  0.51  174H :  0.50  156H :  0.49  176H :  0.49    7O :  0.49  441H :  0.49  513H :  0.48  362H :  0.48   78H :  0.48  438H :  0.47  323H :  0.46  342H :  0.46
  548H :  0.46  726H :  0.46  661O :  0.45  495H :  0.45   93H :  0.45  149H :  0.45  344H :  0.45  437H :  0.45  692H :  0.44  428H :  0.44  467H :  0.44  332H :  0.43
   54H :  0.43  572H :  0.41  440H :  0.41  713H :  0.41  246H :  0.41  213H :  0.41  142O :  0.40  626H :  0.40  351H :  0.40  413H :  0.40  543H :  0.38   99H :  0.38
  239H :  0.37  443H :  0.37  729H :  0.37  694O :  0.37  339H :  0.37  461H :  0.37  162H :  0.36  263H :  0.36  635H :  0.36  464H :  0.36  382O :  0.36  708H :  0.35
  261H :  0.35  282H :  0.35  719H :  0.34  660H :  0.33  701H :  0.32  101H :  0.32  527H :  0.31   38H :  0.31  730O :  0.30  576H :  0.30  617H :  0.29  740H :  0.29
   14H :  0.29  207H :  0.29  338H :  0.28  304O :  0.27  752H :  0.27  408H :  0.27  587H :  0.26   15H :  0.26  425H :  0.26   63H :  0.26  161H :  0.26  236H :  0.25
   29H :  0.25  380H :  0.25  600H :  0.25  312H :  0.25  554H :  0.24  435H :  0.24  489H :  0.24  275H :  0.24  353H :  0.24  581H :  0.23  671H :  0.23  507H :  0.23
  387H :  0.23  321H :  0.23  210H :  0.22  356H :  0.22  474H :  0.22  491H :  0.21  159H :  0.21  354H :  0.21  336H :  0.21   32H :  0.21  720H :  0.20  242H :  0.20
  216H :  0.19  716H :  0.19   18H :  0.19    2H :  0.19  399H :  0.19   48H :  0.19   59H :  0.19  459H :  0.18  666H :  0.18  188H :  0.18  318H :  0.18  597H :  0.17
  215H :  0.17  333H :  0.17   66H :  0.17  224H :  0.16  687H :  0.16  662H :  0.16  179H :  0.16  605H :  0.16  144H :  0.16  608H :  0.15  327H :  0.15  744H :  0.15
  297H :  0.15   95H :  0.15  168H :  0.15  245H :  0.15  533H :  0.14  138H :  0.14   83H :  0.14   27H :  0.14  227H :  0.14  393H :  0.14  722H :  0.14  590H :  0.13
  755H :  0.13  414H :  0.13  350H :  0.13  186H :  0.13  579H :  0.12  609H :  0.12  663H :  0.12  374H :  0.12  348H :  0.12  677H :  0.12  630H :  0.12  602H :  0.12
   26H :  0.12  296H :  0.12   68H :  0.12  197H :  0.11  560H :  0.11  267H :  0.11  578H :  0.11  650H :  0.11  281H :  0.11  237H :  0.11   41H :  0.10  375H :  0.10
  482H :  0.10  620H :  0.10   47H :  0.10  675H :  0.10  195H :  0.10  471H :  0.10  452H :  0.09  636H :  0.09  476H :  0.09  563H :  0.09  540H :  0.09  302H :  0.09
  510H :  0.09   96H :  0.09   11H :  0.09  251H :  0.09   75H :  0.09  599H :  0.09   33H :  0.09  306H :  0.09   17H :  0.09  588H :  0.09  305H :  0.09  462H :  0.09
  407H :  0.09  405H :  0.09   92H :  0.08  546H :  0.08  642H :  0.08  528H :  0.08  612H :  0.08  498H :  0.08   51H :  0.08  330H :  0.08  104H :  0.08  735H :  0.08
  276H :  0.08   71H :  0.08  173H :  0.08  368H :  0.08  180H :  0.08  132H :  0.08  278H :  0.08  723H :  0.08  618H :  0.08  167H :  0.07  363H :  0.07  192H :  0.07
  674H :  0.07  420H :  0.07  423H :  0.07  629H :  0.07
    2 LP   *******   0.00  23.28906  -9.42289 -35.62580  628O : 19.77  508O : 18.88  568O : 18.13  331O : 17.93  271O : 17.77  703O : 16.82  439O : 16.80  385O : 16.45  499O : 14.60  664O : 13.95  448O : 12.48  322O : 12.31
  412O : 11.91   16O : 11.90  658O : 11.89   10O : 11.52   58O : 10.99  148O : 10.92  388O : 10.17  367O :  9.95  361O :  9.84  574O :  9.84  610O :  9.72  724O :  9.71
  727O :  9.68  283O :  9.68  316O :  9.56  181O :  9.56  547O :  9.44  598O :  9.33  160O :  9.09  298O :  8.96  301O :  8.83  706O :  8.80  364O :  8.59    1O :  8.58
  325O :  8.55   85O :  8.52  208O :  8.37  616O :  8.24  469O :  8.12  460O :  8.07  358O :  8.00   22O :  8.00  415O :  7.98   67O :  7.72  454O :  7.48  238O :  7.46
   43O :  7.34  475O :  7.30  274O :  7.15  307O :  7.07   52O :  7.05  343O :  7.01  496O :  6.94  718O :  6.93  262O :  6.87  736O :  6.84  244O :  6.69    4O :  6.66
  433O :  6.54  451O :  6.38  679O :  6.33  715O :  6.28   28O :  6.21  553O :  6.20  472O :  6.19  493O :  6.15  697O :  6.00   13O :  5.98  712O :  5.84  175O :  5.83
  427O :  5.82  103O :  5.72  583O :  5.70  202O :  5.68  670O :  5.63  529O :  5.61  619O :  5.54   34O :  5.48  355O :  5.42  538O :  5.35  376O :  5.27  430O :  5.27
  337O :  5.17  349O :  5.14  157O :  5.10  223O :  5.09  394O :  4.78  487O :  4.70   19O :  4.68  145O :  4.68  268O :  4.59  721O :  4.59  226O :  4.56  466O :  4.49
   61O :  4.43  745O :  4.42  601O :  4.42  163O :  4.25  400O :  4.25  673O :  4.23  562O :  4.18  403O :  4.09  682O :  4.09  214O :  4.06  370O :  3.97  739O :  3.94
  379O :  3.93  511O :  3.92  172O :  3.90  250O :  3.88  259O :  3.88  514O :  3.88  652O :  3.85  277O :  3.81  544O :  3.73  595O :  3.72   31O :  3.72  340O :  3.70
  100O :  3.70  346O :  3.67  604O :  3.67  463O :  3.65  634O :  3.58  112O :  3.57  436O :  3.56  424O :  3.42  559O :  3.36  187O :  3.36  247O :  3.23  121O :  3.21
  442O :  3.20   91O :  3.19  526O :  3.16  154O :  3.15  256O :  3.10  586O :  3.05   88O :  3.05   49O :  3.04  607O :  3.02  418O :  2.98  406O :  2.96  127O :  2.92
   79O :  2.89   76O :  2.88  272H :  2.86  193O :  2.78  352O :  2.78  241O :  2.78  580O :  2.77  742O :  2.75  310O :  2.71  589O :  2.69   97O :  2.67  184O :  2.64
  211O :  2.57  445O :  2.56  676O :  2.56  691O :  2.52  292O :  2.47  217O :  2.46  130O :  2.37  158H :  2.34  229O :  2.32  136O :  2.31  481O :  2.27  391O :  2.26
  640O :  2.24  205O :  2.23  520O :  2.22  505O :  2.21  196O :  2.19  106O :  2.19  523O :  2.17  253O :  2.07  571O :  2.07  169O :  2.05  688O :  2.04  535O :  2.02
  265O :  1.91  151O :  1.91  733O :  1.90  502O :  1.88  280O :  1.87   64O :  1.86  748O :  1.82  397O :  1.82  139O :  1.79   94O :  1.77  613O :  1.76  295O :  1.76
  133O :  1.71  592O :  1.71  625O :  1.71  232O :  1.66  550O :  1.64  490O :  1.56  359H :  1.55  700O :  1.53  484O :  1.51  389H :  1.46  166O :  1.39  541O :  1.39
  637O :  1.37  434H :  1.37  646O :  1.37  684H :  1.36  477H :  1.36  366H :  1.35  190O :  1.33  286O :  1.32  178O :  1.31  109O :  1.29  643O :  1.28  532O :  1.28
  334O :  1.27  517O :  1.25  386H :  1.25  556O :  1.25  704H :  1.24   24H :  1.21  565O :  1.20  115O :  1.20  357H :  1.19  284H :  1.16  584H :  1.16  118O :  1.16
   37O :  1.15   25O :  1.13  409O :  1.13   40O :  1.12   73O :  1.09   21H :  1.08  655O :  1.06  497H :  1.06  631O :  1.05  309H :  1.04  220O :  1.04  685O :  1.03
  501H :  1.02  649O :  1.01  667O :  0.99  324H :  0.99    5H :  0.98  326H :  0.97  569H :  0.95  611H :  0.95  570H :  0.93  512H :  0.92   30H :  0.92  577O :  0.91
  260H :  0.90  395H :  0.90  743H :  0.90  453H :  0.88  294H :  0.88  575H :  0.88  516H :  0.86  373O :  0.85  289O :  0.84   90H :  0.83   82O :  0.83  707H :  0.83
  107H :  0.80  751O :  0.78  203H :  0.78  183H :  0.77   70O :  0.77  235O :  0.77  421O :  0.75  478O :  0.74  198H :  0.74  218H :  0.73  313O :  0.72  632H :  0.71
   55O :  0.71  531H :  0.71  672H :  0.70  372H :  0.69  155H :  0.67  360H :  0.65  317H :  0.63  285H :  0.63  754O :  0.63  455H :  0.63  124O :  0.62  555H :  0.61
  444H :  0.61  199O :  0.61  369H :  0.61  665H :  0.60  233H :  0.60   45H :  0.58  709O :  0.58  319O :  0.58   46O :  0.56  699H :  0.55  728H :  0.55  552H :  0.54
   23H :  0.54  470H :  0.53  641H :  0.53  457O :  0.52  564H :  0.52   12H :  0.51  303H :  0.50  328O :  0.49  153H :  0.49  266H :  0.49  432H :  0.48  654H :  0.48
  146H :  0.47  174H :  0.47  156H :  0.46  176H :  0.46    7O :  0.46  441H :  0.46  513H :  0.45  362H :  0.45   78H :  0.45  438H :  0.44  342H :  0.43  323H :  0.43
  548H :  0.43  726H :  0.43  661O :  0.43  495H :  0.42   93H :  0.42  149H :  0.42  344H :  0.42  437H :  0.42  692H :  0.41  428H :  0.41  467H :  0.41   54H :  0.40
  572H :  0.39  440H :  0.39  713H :  0.39  246H :  0.38  213H :  0.38  142O :  0.38  626H :  0.38  351H :  0.37  413H :  0.37  543H :  0.36   99H :  0.35  239H :  0.35
  443H :  0.35  729H :  0.35  694O :  0.35  339H :  0.35  461H :  0.34  332H :  0.34  162H :  0.34  263H :  0.34  635H :  0.34  464H :  0.34  382O :  0.33  708H :  0.33
  261H :  0.33  282H :  0.32  719H :  0.32  660H :  0.31  701H :  0.30  101H :  0.30  576H :  0.29   38H :  0.29  527H :  0.29  730O :  0.28  617H :  0.28  740H :  0.27
   14H :  0.27  207H :  0.27  338H :  0.26  304O :  0.26  752H :  0.26  408H :  0.25  587H :  0.25   15H :  0.24  425H :  0.24   63H :  0.24  161H :  0.24  236H :  0.24
   29H :  0.24  380H :  0.24  600H :  0.23  312H :  0.23  554H :  0.23  435H :  0.23  489H :  0.22  275H :  0.22  353H :  0.22  581H :  0.22  671H :  0.22  387H :  0.21
  507H :  0.21  321H :  0.21  210H :  0.21  356H :  0.21  474H :  0.20  491H :  0.20  159H :  0.20  354H :  0.19  336H :  0.19   32H :  0.19  720H :  0.19  242H :  0.18
  216H :  0.18  716H :  0.18   18H :  0.18    2H :  0.18  399H :  0.18   48H :  0.18   59H :  0.18  459H :  0.17  666H :  0.17  188H :  0.17  318H :  0.16  597H :  0.16
  215H :  0.16   66H :  0.16  224H :  0.15  687H :  0.15  662H :  0.15  179H :  0.15  605H :  0.15  144H :  0.15  608H :  0.15  327H :  0.14  744H :  0.14  297H :  0.14
   95H :  0.14  168H :  0.14  245H :  0.14  533H :  0.14  138H :  0.14   83H :  0.13   27H :  0.13  227H :  0.13  393H :  0.13  722H :  0.13  510H :  0.13  590H :  0.13
  755H :  0.12  414H :  0.12  350H :  0.12  186H :  0.12  579H :  0.12  609H :  0.12  663H :  0.12  374H :  0.11  348H :  0.11  677H :  0.11  630H :  0.11  267H :  0.11
  602H :  0.11   26H :  0.11  296H :  0.11   68H :  0.11  197H :  0.11  560H :  0.11  578H :  0.10  650H :  0.10  333H :  0.10  281H :  0.10  237H :  0.10   41H :  0.10
  375H :  0.10  482H :  0.10  620H :  0.10   47H :  0.10  675H :  0.09  195H :  0.09  471H :  0.09  452H :  0.09  636H :  0.09  476H :  0.09  563H :  0.09  540H :  0.09
  302H :  0.09   96H :  0.09  251H :  0.09   11H :  0.09   75H :  0.09   33H :  0.08  306H :  0.08   17H :  0.08  588H :  0.08  305H :  0.08  462H :  0.08  407H :  0.08
  405H :  0.08  368H :  0.08   92H :  0.08  546H :  0.08  642H :  0.08  612H :  0.08  498H :  0.08  599H :  0.08   51H :  0.08  330H :  0.07  104H :  0.07  735H :  0.07
  276H :  0.07  173H :  0.07   71H :  0.07  180H :  0.07  132H :  0.07  278H :  0.07  723H :  0.07  618H :  0.07
    3 LP   *******   0.00  11.84380  -9.87326  11.70912  568O : 19.85  628O : 19.59  508O : 18.71  271O : 17.61  703O : 16.67  439O : 16.66  385O : 16.31  331O : 15.35  499O : 14.47  664O : 13.83  448O : 12.37  322O : 12.21
  412O : 11.81   16O : 11.80  658O : 11.78   10O : 11.42   58O : 10.89  148O : 10.83  388O : 10.08  367O :  9.86  574O :  9.80  361O :  9.76  610O :  9.63  724O :  9.62
  727O :  9.60  283O :  9.60  316O :  9.48  181O :  9.48  547O :  9.35  598O :  9.25  160O :  9.01  298O :  8.88  301O :  8.75  706O :  8.72  364O :  8.52    1O :  8.50
  325O :  8.47   85O :  8.45  208O :  8.30  616O :  8.16  469O :  8.05  460O :  8.00  358O :  7.93   22O :  7.93  415O :  7.91   67O :  7.65  454O :  7.41  238O :  7.39
   43O :  7.27  475O :  7.24  274O :  7.09  307O :  7.07   52O :  6.98  343O :  6.95  718O :  6.86  496O :  6.85  262O :  6.81  736O :  6.78  244O :  6.63    4O :  6.60
  433O :  6.48  451O :  6.33  679O :  6.28  715O :  6.23   28O :  6.16  553O :  6.14  472O :  6.14  493O :  6.10  697O :  5.95   13O :  5.92  712O :  5.79  175O :  5.78
  427O :  5.78  103O :  5.67  202O :  5.63  583O :  5.62  670O :  5.58  529O :  5.56  619O :  5.49   34O :  5.43  355O :  5.37  538O :  5.30  376O :  5.23  430O :  5.23
  337O :  5.12  349O :  5.09  157O :  5.05  223O :  5.05  394O :  4.74  487O :  4.67   19O :  4.65  145O :  4.63  268O :  4.55  721O :  4.55  226O :  4.52  466O :  4.45
   61O :  4.39  745O :  4.38  163O :  4.22  400O :  4.21  673O :  4.19  562O :  4.14  601O :  4.12  403O :  4.06  682O :  4.06  214O :  4.02  370O :  3.93  739O :  3.91
  379O :  3.89  511O :  3.89  172O :  3.86  514O :  3.86  250O :  3.85  259O :  3.85  652O :  3.82  277O :  3.77  100O :  3.75  544O :  3.69  595O :  3.69   31O :  3.68
  340O :  3.67  346O :  3.64  604O :  3.63  463O :  3.58  634O :  3.54  112O :  3.54  436O :  3.53  424O :  3.39  559O :  3.33  187O :  3.33  247O :  3.20  121O :  3.18
  442O :  3.17   91O :  3.16  526O :  3.13  154O :  3.13  256O :  3.07  586O :  3.03   88O :  3.02   49O :  3.01  607O :  3.00  418O :  2.95  406O :  2.93  127O :  2.90
   79O :  2.87   76O :  2.86  272H :  2.84  193O :  2.76  241O :  2.75  352O :  2.75  580O :  2.74  742O :  2.72  310O :  2.69   97O :  2.65  184O :  2.62  589O :  2.61
  211O :  2.55  676O :  2.53  445O :  2.53  691O :  2.50  292O :  2.44  217O :  2.44  130O :  2.35  158H :  2.32  229O :  2.30  136O :  2.29  481O :  2.25  391O :  2.24
  640O :  2.22  205O :  2.21  520O :  2.20  505O :  2.19  196O :  2.17  106O :  2.17  523O :  2.15  253O :  2.06  571O :  2.05  169O :  2.04  688O :  2.02  535O :  2.00
  151O :  1.90  733O :  1.88  502O :  1.86  280O :  1.86   64O :  1.84  748O :  1.81  397O :  1.81  265O :  1.80  139O :  1.76   94O :  1.75  613O :  1.75  295O :  1.74
  133O :  1.70  592O :  1.70  625O :  1.69  232O :  1.64  550O :  1.63  490O :  1.54  359H :  1.54  700O :  1.52  484O :  1.50  389H :  1.44  190O :  1.38  166O :  1.38
  541O :  1.38  637O :  1.36  434H :  1.36  646O :  1.36  684H :  1.35  477H :  1.34  366H :  1.33  286O :  1.31  178O :  1.29  109O :  1.28  643O :  1.27  532O :  1.27
  334O :  1.25  517O :  1.24  386H :  1.24  556O :  1.24  704H :  1.23   24H :  1.20  565O :  1.19  115O :  1.19  357H :  1.18  284H :  1.15  584H :  1.15  118O :  1.15
   37O :  1.14   25O :  1.12  409O :  1.12   40O :  1.11   73O :  1.08   21H :  1.07  655O :  1.05  631O :  1.04  497H :  1.04  220O :  1.03  685O :  1.02  501H :  1.01
  309H :  1.01  649O :  1.00  667O :  0.98  324H :  0.98    5H :  0.97  326H :  0.96  611H :  0.94  512H :  0.91   30H :  0.91  577O :  0.90  260H :  0.89  395H :  0.89
  743H :  0.89  575H :  0.89  453H :  0.87  294H :  0.87  569H :  0.86  516H :  0.85  373O :  0.85  289O :  0.84   90H :  0.83   82O :  0.82  707H :  0.82  570H :  0.82
  107H :  0.79  751O :  0.78  203H :  0.78  183H :  0.77   70O :  0.76  235O :  0.76  421O :  0.74  478O :  0.74  198H :  0.74  218H :  0.73  313O :  0.72  632H :  0.71
   55O :  0.70  531H :  0.70  672H :  0.69  372H :  0.69  155H :  0.67  360H :  0.64  317H :  0.63  285H :  0.63  754O :  0.63  455H :  0.62  124O :  0.62  555H :  0.61
  444H :  0.60  199O :  0.60  369H :  0.60  665H :  0.60  233H :  0.59   45H :  0.58  709O :  0.57  319O :  0.57   46O :  0.55  699H :  0.55  728H :  0.55  552H :  0.54
   23H :  0.53  470H :  0.52  641H :  0.52  457O :  0.51  564H :  0.51   12H :  0.51  303H :  0.49  328O :  0.49  153H :  0.49  266H :  0.48  432H :  0.47  654H :  0.47
  146H :  0.47  174H :  0.47  156H :  0.46  176H :  0.46    7O :  0.45  441H :  0.45  513H :  0.45  362H :  0.45   78H :  0.44  438H :  0.43  323H :  0.43  342H :  0.43
  548H :  0.43  726H :  0.43  661O :  0.42  495H :  0.42   93H :  0.42  149H :  0.42  344H :  0.42  437H :  0.42  692H :  0.41  428H :  0.41  467H :  0.41  332H :  0.40
   54H :  0.40  572H :  0.38  440H :  0.38  713H :  0.38  246H :  0.38  213H :  0.38  142O :  0.37  626H :  0.37  351H :  0.37  413H :  0.37  543H :  0.35   99H :  0.35
  239H :  0.35  443H :  0.35  729H :  0.35  694O :  0.34  339H :  0.34  461H :  0.34  162H :  0.34  263H :  0.34  635H :  0.34  464H :  0.34  382O :  0.33  708H :  0.33
  261H :  0.32  282H :  0.32  719H :  0.31  660H :  0.31  701H :  0.30  101H :  0.29   38H :  0.28  527H :  0.28  730O :  0.28  576H :  0.28  617H :  0.27  740H :  0.27
   14H :  0.27  207H :  0.27  338H :  0.26  304O :  0.25  752H :  0.25  408H :  0.25  587H :  0.24   15H :  0.24  425H :  0.24   63H :  0.24  161H :  0.24  236H :  0.23
   29H :  0.23  380H :  0.23  600H :  0.23  312H :  0.23  554H :  0.23  435H :  0.23  489H :  0.22  275H :  0.22  353H :  0.22  581H :  0.22  671H :  0.22  507H :  0.21
  387H :  0.21  321H :  0.21  210H :  0.21  356H :  0.21  474H :  0.20  491H :  0.20  159H :  0.19  354H :  0.19  336H :  0.19   32H :  0.19  720H :  0.19  242H :  0.18
  216H :  0.18  716H :  0.18   18H :  0.18    2H :  0.18  399H :  0.18   48H :  0.18   59H :  0.17  459H :  0.17  666H :  0.17  188H :  0.16  318H :  0.16  597H :  0.16
  215H :  0.16  333H :  0.15   66H :  0.15  224H :  0.15  687H :  0.15  662H :  0.15  179H :  0.15  605H :  0.15  144H :  0.14  608H :  0.14  327H :  0.14  744H :  0.14
  297H :  0.14   95H :  0.14  168H :  0.14  245H :  0.14  533H :  0.13  138H :  0.13   83H :  0.13   27H :  0.13  227H :  0.13  393H :  0.13  722H :  0.13  510H :  0.13
  590H :  0.12  755H :  0.12  414H :  0.12  350H :  0.12  186H :  0.12  579H :  0.12  609H :  0.11  663H :  0.11  374H :  0.11  348H :  0.11  630H :  0.11  677H :  0.11
  602H :  0.11   26H :  0.11  296H :  0.11   68H :  0.11  197H :  0.11  560H :  0.11  267H :  0.10  578H :  0.10  650H :  0.10  281H :  0.10  375H :  0.10  237H :  0.10
   41H :  0.10  482H :  0.10  620H :  0.09   47H :  0.09  675H :  0.09  195H :  0.09  471H :  0.09  452H :  0.09  636H :  0.09  476H :  0.09  563H :  0.09  540H :  0.09
  302H :  0.09  251H :  0.08   96H :  0.08   75H :  0.08   11H :  0.08   33H :  0.08  306H :  0.08   17H :  0.08  588H :  0.08  305H :  0.08  462H :  0.08  407H :  0.08
  405H :  0.08  368H :  0.08   92H :  0.08  546H :  0.08  642H :  0.08  612H :  0.08  498H :  0.08  599H :  0.08   51H :  0.07  330H :  0.07  104H :  0.07  276H :  0.07
  735H :  0.07   71H :  0.07  173H :  0.07  180H :  0.07  132H :  0.07  278H :  0.07  723H :  0.07  618H :  0.07
    4 LP   *******   0.00  -3.17053   9.78562 -10.58431  703O : 19.44  628O : 18.44  508O : 17.61  568O : 16.91  271O : 16.57  439O : 15.67  385O : 15.35  331O : 14.45  499O : 13.62  664O : 13.02  448O : 11.64  322O : 11.49
  658O : 11.15  412O : 11.11   16O : 11.10   10O : 10.75   58O : 10.25  148O : 10.19  388O :  9.49  367O :  9.28  574O :  9.22  361O :  9.18  610O :  9.07  724O :  9.05
  727O :  9.03  283O :  9.03  316O :  8.92  181O :  8.92  547O :  8.80  598O :  8.70  160O :  8.48  298O :  8.36  301O :  8.24  706O :  8.21  364O :  8.02    1O :  8.00
  325O :  7.97   85O :  7.95  208O :  7.81  616O :  7.68  469O :  7.57  460O :  7.53  358O :  7.47   22O :  7.46  415O :  7.45   67O :  7.20  454O :  6.97  238O :  6.96
   43O :  6.85  475O :  6.81  274O :  6.67  307O :  6.65   52O :  6.57  343O :  6.54  496O :  6.47  718O :  6.46  262O :  6.41  736O :  6.38  244O :  6.24    4O :  6.21
  433O :  6.10  451O :  5.95  679O :  5.91  715O :  5.86   28O :  5.80  553O :  5.78  472O :  5.78  493O :  5.74  697O :  5.60   13O :  5.57  712O :  5.45  175O :  5.44
  427O :  5.43  103O :  5.34  202O :  5.30  583O :  5.29  670O :  5.25  529O :  5.23  619O :  5.17   34O :  5.11  538O :  4.99  376O :  4.92  430O :  4.92  337O :  4.82
  355O :  4.80  349O :  4.79  157O :  4.75  223O :  4.75  394O :  4.46  487O :  4.39   19O :  4.37  145O :  4.36  268O :  4.28  721O :  4.28  226O :  4.25  466O :  4.19
  745O :  4.12  601O :  4.12   61O :  4.12  673O :  3.98  163O :  3.97  400O :  3.96  562O :  3.90  403O :  3.82  682O :  3.82  214O :  3.79  370O :  3.70  739O :  3.68
  379O :  3.66  511O :  3.65  172O :  3.63  250O :  3.62  514O :  3.62  259O :  3.61  652O :  3.59  277O :  3.55  544O :  3.48  595O :  3.47   31O :  3.47  340O :  3.45
  100O :  3.45  346O :  3.42  604O :  3.42  463O :  3.37  634O :  3.34  112O :  3.33  436O :  3.32  424O :  3.19  187O :  3.14  559O :  3.14  247O :  3.02  121O :  2.99
  442O :  2.99   91O :  2.98  526O :  2.94  154O :  2.93  256O :  2.89  586O :  2.85   88O :  2.84   49O :  2.83  607O :  2.82  418O :  2.78  406O :  2.76  127O :  2.73
   79O :  2.70   76O :  2.69  272H :  2.67  193O :  2.59  352O :  2.59  241O :  2.59  580O :  2.58  742O :  2.56  310O :  2.53  589O :  2.51   97O :  2.49  184O :  2.47
  211O :  2.40  445O :  2.39  676O :  2.39  691O :  2.35  292O :  2.30  217O :  2.29  130O :  2.21  158H :  2.18  229O :  2.16  136O :  2.15  481O :  2.12  391O :  2.11
  640O :  2.09  205O :  2.08  520O :  2.07  505O :  2.06  196O :  2.05  106O :  2.04  523O :  2.03  253O :  1.93  571O :  1.93  169O :  1.92  688O :  1.90  535O :  1.88
  151O :  1.78  733O :  1.77  280O :  1.75   64O :  1.73  502O :  1.73  748O :  1.70  397O :  1.70  265O :  1.69  139O :  1.66   94O :  1.65  613O :  1.64  295O :  1.64
  133O :  1.60  592O :  1.60  625O :  1.59  232O :  1.55  550O :  1.53  490O :  1.45  359H :  1.45  700O :  1.43  484O :  1.41  389H :  1.36  166O :  1.30  541O :  1.30
  637O :  1.28  434H :  1.28  646O :  1.28  684H :  1.27  477H :  1.27  366H :  1.26  190O :  1.24  286O :  1.23  178O :  1.22  109O :  1.20  643O :  1.20  532O :  1.19
  334O :  1.18  517O :  1.17  386H :  1.17  556O :  1.16   24H :  1.13  565O :  1.12  115O :  1.12  357H :  1.12  284H :  1.09  584H :  1.08  118O :  1.08   37O :  1.07
   25O :  1.06  704H :  1.05  409O :  1.05   40O :  1.05   73O :  1.02   21H :  1.01  655O :  0.99  497H :  0.99  631O :  0.98  220O :  0.97  685O :  0.96  501H :  0.95
  309H :  0.95  649O :  0.94  667O :  0.92  324H :  0.92    5H :  0.92  326H :  0.90  569H :  0.89  611H :  0.89  570H :  0.87   30H :  0.86  512H :  0.85  577O :  0.85
  260H :  0.84  395H :  0.84  743H :  0.84  575H :  0.84  453H :  0.82  294H :  0.82  516H :  0.80  373O :  0.79  289O :  0.79   90H :  0.78   82O :  0.77  707H :  0.77
  107H :  0.74  751O :  0.73  203H :  0.73  183H :  0.72   70O :  0.72  235O :  0.71  421O :  0.70  478O :  0.69  198H :  0.69  218H :  0.68  313O :  0.68  632H :  0.67
   55O :  0.66  531H :  0.66  672H :  0.65  372H :  0.65  155H :  0.63  360H :  0.60  317H :  0.59  285H :  0.59  754O :  0.59  455H :  0.59  124O :  0.58  555H :  0.57
  444H :  0.57  199O :  0.57  369H :  0.57  665H :  0.56  233H :  0.56   45H :  0.54  709O :  0.54  319O :  0.54   46O :  0.52  699H :  0.51  728H :  0.51  552H :  0.51
   23H :  0.50  470H :  0.49  641H :  0.49  457O :  0.48  564H :  0.48   12H :  0.48  303H :  0.46  328O :  0.46  153H :  0.46  266H :  0.45  432H :  0.44  654H :  0.44
  146H :  0.44  174H :  0.44  156H :  0.43  176H :  0.43    7O :  0.43  441H :  0.42  362H :  0.42  513H :  0.42   78H :  0.42  438H :  0.41  323H :  0.40  342H :  0.40
  548H :  0.40  726H :  0.40  661O :  0.40  495H :  0.40   93H :  0.40  149H :  0.39  344H :  0.39  437H :  0.39  692H :  0.39  428H :  0.39  467H :  0.38  332H :  0.38
   54H :  0.37  572H :  0.36  713H :  0.36  440H :  0.36  246H :  0.36  213H :  0.35  142O :  0.35  626H :  0.35  351H :  0.35  413H :  0.35  543H :  0.33   99H :  0.33
  239H :  0.33  443H :  0.33  729H :  0.32  694O :  0.32  339H :  0.32  461H :  0.32  162H :  0.32  263H :  0.32  635H :  0.32  464H :  0.32  382O :  0.31  708H :  0.31
  261H :  0.31  282H :  0.30  719H :  0.30  660H :  0.29  701H :  0.28  101H :  0.28   38H :  0.27  527H :  0.27  730O :  0.26  576H :  0.26  617H :  0.26   14H :  0.25
  740H :  0.25  207H :  0.25  338H :  0.24  304O :  0.24  752H :  0.24  408H :  0.23  587H :  0.23   15H :  0.23  425H :  0.23   63H :  0.22  161H :  0.22  236H :  0.22
   29H :  0.22  380H :  0.22  600H :  0.22  312H :  0.21  554H :  0.21  435H :  0.21  489H :  0.21  275H :  0.21  353H :  0.21  581H :  0.20  671H :  0.20  507H :  0.20
  387H :  0.20  321H :  0.20  210H :  0.19  474H :  0.19  491H :  0.18  159H :  0.18  354H :  0.18  336H :  0.18   32H :  0.18  720H :  0.18  242H :  0.17  216H :  0.17
  716H :  0.17   18H :  0.17    2H :  0.17  399H :  0.17   48H :  0.17   59H :  0.16  459H :  0.16  666H :  0.16  318H :  0.15  597H :  0.15  215H :  0.15  333H :  0.15
   66H :  0.15  224H :  0.14  687H :  0.14  662H :  0.14  179H :  0.14  605H :  0.14  144H :  0.14  608H :  0.14  327H :  0.13  744H :  0.13  297H :  0.13   95H :  0.13
  168H :  0.13  245H :  0.13  533H :  0.13  138H :  0.13   83H :  0.13   27H :  0.12  227H :  0.12  393H :  0.12  510H :  0.12  722H :  0.12  590H :  0.12  755H :  0.11
  350H :  0.11  414H :  0.11  186H :  0.11  579H :  0.11  609H :  0.11  663H :  0.11  374H :  0.11  188H :  0.11  348H :  0.11  677H :  0.10  630H :  0.10  602H :  0.10
   26H :  0.10  296H :  0.10   68H :  0.10  197H :  0.10  560H :  0.10  267H :  0.10  578H :  0.10  650H :  0.10  281H :  0.09  237H :  0.09  356H :  0.09   41H :  0.09
  375H :  0.09  482H :  0.09  620H :  0.09   47H :  0.09  675H :  0.09  195H :  0.09  471H :  0.09  452H :  0.08  636H :  0.08  476H :  0.08  563H :  0.08  540H :  0.08
  302H :  0.08   96H :  0.08   11H :  0.08   75H :  0.08   33H :  0.08  306H :  0.08  251H :  0.08   17H :  0.08  588H :  0.08  305H :  0.08  462H :  0.08  407H :  0.08
  405H :  0.07  368H :  0.07   92H :  0.07  546H :  0.07  642H :  0.07  612H :  0.07  498H :  0.07  599H :  0.07   51H :  0.07  330H :  0.07
    5 LP   *******   0.00 -40.43272  17.77551  44.79308  628O : 18.05  508O : 17.24  568O : 16.55  271O : 16.22  703O : 15.35  439O : 15.34  499O : 15.33  385O : 15.02  331O : 14.14  664O : 12.74  448O : 11.39  322O : 11.24
  412O : 10.89   16O : 10.87  658O : 10.86   10O : 10.52   58O : 10.03  148O :  9.98  388O :  9.29  367O :  9.08  574O :  9.02  361O :  8.99  610O :  8.89  724O :  8.86
  727O :  8.84  283O :  8.84  316O :  8.73  181O :  8.73  547O :  8.62  598O :  8.52  160O :  8.30  298O :  8.18  301O :  8.06  706O :  8.03  364O :  7.85    1O :  7.83
  325O :  7.81   85O :  7.78  208O :  7.64  616O :  7.52  469O :  7.41  460O :  7.37  358O :  7.31   22O :  7.31  415O :  7.29   67O :  7.05  238O :  6.81   43O :  6.70
  475O :  6.67  454O :  6.66  274O :  6.53  307O :  6.51   52O :  6.43  343O :  6.40  496O :  6.34  718O :  6.32  262O :  6.28  736O :  6.24  244O :  6.11    4O :  6.08
  433O :  5.97  451O :  5.83  679O :  5.78  715O :  5.74   28O :  5.67  553O :  5.66  472O :  5.66  493O :  5.62  697O :  5.48   13O :  5.46  712O :  5.33  175O :  5.33
  427O :  5.32  103O :  5.23  202O :  5.19  583O :  5.18  670O :  5.14  529O :  5.11  619O :  5.06   34O :  5.00  355O :  4.95  538O :  4.88  430O :  4.82  376O :  4.82
  337O :  4.71  349O :  4.69  157O :  4.65  223O :  4.65  394O :  4.37  487O :  4.30   19O :  4.28  145O :  4.27  268O :  4.20  721O :  4.19  226O :  4.16  466O :  4.10
   61O :  4.04  745O :  4.04  601O :  4.03  163O :  3.88  400O :  3.88  673O :  3.86  562O :  3.82  403O :  3.74  682O :  3.74  214O :  3.71  370O :  3.63  739O :  3.60
  379O :  3.59  511O :  3.58  652O :  3.57  172O :  3.56  250O :  3.54  259O :  3.54  514O :  3.54  277O :  3.48  544O :  3.40  595O :  3.40   31O :  3.39  340O :  3.38
  100O :  3.37  346O :  3.35  604O :  3.35  463O :  3.30  634O :  3.27  112O :  3.26  436O :  3.25  424O :  3.13  559O :  3.07  187O :  3.06  247O :  2.96  121O :  2.93
  442O :  2.92   91O :  2.91  526O :  2.88  154O :  2.88  256O :  2.83  586O :  2.79   88O :  2.78   49O :  2.77  607O :  2.76  418O :  2.72  406O :  2.70  127O :  2.67
   79O :  2.64   76O :  2.63  272H :  2.62  193O :  2.54  352O :  2.54  241O :  2.54  580O :  2.53  742O :  2.50  310O :  2.47  589O :  2.46   97O :  2.44  184O :  2.41
  211O :  2.35  445O :  2.34  676O :  2.33  691O :  2.30  292O :  2.26  217O :  2.25  130O :  2.17  158H :  2.13  229O :  2.12  136O :  2.11  481O :  2.07  391O :  2.07
  640O :  2.04  205O :  2.03  520O :  2.03  505O :  2.02  196O :  2.00  106O :  2.00  523O :  1.98  253O :  1.89  571O :  1.89  169O :  1.88  688O :  1.86  535O :  1.84
  151O :  1.75  733O :  1.74  502O :  1.72  280O :  1.71   64O :  1.70  748O :  1.67  397O :  1.66  265O :  1.66  139O :  1.62   94O :  1.62  613O :  1.61  295O :  1.61
  133O :  1.56  592O :  1.56  625O :  1.56  232O :  1.52  550O :  1.50  490O :  1.42  359H :  1.42  700O :  1.40  484O :  1.38  389H :  1.33  166O :  1.27  541O :  1.27
  637O :  1.25  434H :  1.25  646O :  1.25  684H :  1.25  477H :  1.24  366H :  1.23  190O :  1.22  286O :  1.21  178O :  1.19  109O :  1.18  643O :  1.17  532O :  1.17
  334O :  1.16  517O :  1.14  386H :  1.14  556O :  1.14  704H :  1.13   24H :  1.11  565O :  1.10  115O :  1.10  357H :  1.09  284H :  1.06  584H :  1.06  118O :  1.06
   37O :  1.05   25O :  1.03  409O :  1.03   40O :  1.02   73O :  0.99   21H :  0.99  655O :  0.97  497H :  0.97  631O :  0.96  220O :  0.95  685O :  0.94  309H :  0.93
  649O :  0.92  667O :  0.90  324H :  0.90    5H :  0.90  326H :  0.88  611H :  0.87  569H :  0.87  570H :  0.85  512H :  0.84   30H :  0.84  577O :  0.83  260H :  0.82
  395H :  0.82  743H :  0.82  501H :  0.82  575H :  0.82  294H :  0.82  453H :  0.80  516H :  0.79  373O :  0.78  289O :  0.77   90H :  0.76   82O :  0.76  707H :  0.75
  107H :  0.73  751O :  0.72  203H :  0.71  183H :  0.71   70O :  0.70  235O :  0.70  421O :  0.68  478O :  0.68  198H :  0.68  218H :  0.67  313O :  0.66  632H :  0.65
  531H :  0.65   55O :  0.65  672H :  0.64  372H :  0.63  155H :  0.61  360H :  0.59  317H :  0.58  754O :  0.58  285H :  0.58  455H :  0.57  124O :  0.57  555H :  0.56
  444H :  0.56  199O :  0.56  369H :  0.55  665H :  0.55  233H :  0.55   45H :  0.53  709O :  0.53  319O :  0.53   46O :  0.51  699H :  0.50  728H :  0.50  552H :  0.50
   23H :  0.49  470H :  0.48  641H :  0.48  457O :  0.47  564H :  0.47   12H :  0.47  303H :  0.45  328O :  0.45  153H :  0.45  266H :  0.44  432H :  0.44  146H :  0.43
  174H :  0.43  654H :  0.43  156H :  0.42  176H :  0.42    7O :  0.42  441H :  0.42  513H :  0.41  362H :  0.41   78H :  0.41  438H :  0.40  323H :  0.40  342H :  0.40
  548H :  0.39  726H :  0.39  661O :  0.39  495H :  0.39   93H :  0.39  149H :  0.39  344H :  0.39  437H :  0.38  692H :  0.38  428H :  0.38  467H :  0.38  332H :  0.37
   54H :  0.36  572H :  0.35  440H :  0.35  713H :  0.35  246H :  0.35  213H :  0.35  142O :  0.34  626H :  0.34  351H :  0.34  413H :  0.34  543H :  0.33   99H :  0.32
  239H :  0.32  443H :  0.32  729H :  0.32  694O :  0.32  339H :  0.31  461H :  0.31  162H :  0.31  263H :  0.31  635H :  0.31  464H :  0.31  382O :  0.30  708H :  0.30
  261H :  0.30  282H :  0.30  719H :  0.29  660H :  0.28  701H :  0.28  101H :  0.27   38H :  0.26  527H :  0.26  730O :  0.26  576H :  0.26  617H :  0.25  740H :  0.25
   14H :  0.25  207H :  0.24  338H :  0.24  304O :  0.23  752H :  0.23  408H :  0.23  587H :  0.22   15H :  0.22  425H :  0.22   63H :  0.22  161H :  0.22   29H :  0.22
  380H :  0.22  236H :  0.21  600H :  0.21  312H :  0.21  554H :  0.21  435H :  0.21  489H :  0.20  275H :  0.20  353H :  0.20  581H :  0.20  671H :  0.20  507H :  0.20
  387H :  0.20  321H :  0.19  210H :  0.19  356H :  0.19  474H :  0.19  491H :  0.18  159H :  0.18  354H :  0.18  336H :  0.18   32H :  0.18  720H :  0.17  242H :  0.17
  216H :  0.17  716H :  0.16   18H :  0.16    2H :  0.16  399H :  0.16   48H :  0.16   59H :  0.16  459H :  0.16  666H :  0.15  188H :  0.15  318H :  0.15  597H :  0.15
  215H :  0.15  333H :  0.14   66H :  0.14  224H :  0.14  687H :  0.14  662H :  0.14  179H :  0.14  605H :  0.13   95H :  0.13  144H :  0.13  608H :  0.13  327H :  0.13
  744H :  0.13  297H :  0.13  168H :  0.13  245H :  0.13  533H :  0.12  138H :  0.12   83H :  0.12   27H :  0.12  227H :  0.12  393H :  0.12  722H :  0.12  510H :  0.12
  590H :  0.11  755H :  0.11  350H :  0.11  414H :  0.11  186H :  0.11  579H :  0.11  609H :  0.11  663H :  0.11  374H :  0.10  348H :  0.10  677H :  0.10  630H :  0.10
  602H :  0.10   26H :  0.10  296H :  0.10   68H :  0.10  197H :  0.10  560H :  0.10  267H :  0.10  578H :  0.09  650H :  0.09  281H :  0.09  237H :  0.09   41H :  0.09
  375H :  0.09  482H :  0.09  620H :  0.09   47H :  0.09  675H :  0.08  195H :  0.08  471H :  0.08  452H :  0.08  636H :  0.08  476H :  0.08  563H :  0.08  540H :  0.08
  302H :  0.08  251H :  0.08   11H :  0.08   75H :  0.08   33H :  0.08  306H :  0.08   96H :  0.08   17H :  0.08  588H :  0.08  305H :  0.07  462H :  0.07  407H :  0.07
  405H :  0.07  368H :  0.07   92H :  0.07  546H :  0.07  642H :  0.07  612H :  0.07  498H :  0.07
    6 LP   *******   0.00 -18.36866  27.58887 -19.49833  628O : 17.62  508O : 16.82  568O : 16.16  271O : 15.83  664O : 15.15  703O : 14.99  439O : 14.97  385O : 14.66  331O : 13.80  499O : 13.01  448O : 11.12  322O : 10.97
  412O : 10.62   16O : 10.61  658O : 10.60   10O : 10.27   58O :  9.79  148O :  9.75  388O :  9.07  367O :  8.86  574O :  8.81  361O :  8.77  610O :  8.66  724O :  8.65
  727O :  8.63  283O :  8.63  316O :  8.52  181O :  8.52  547O :  8.41  598O :  8.31  160O :  8.10  298O :  7.98  301O :  7.87  706O :  7.84  364O :  7.66    1O :  7.65
   85O :  7.64  325O :  7.62  208O :  7.46  616O :  7.34  469O :  7.23  460O :  7.19   22O :  7.14  358O :  7.13  415O :  7.11   67O :  6.89  454O :  6.66  238O :  6.65
   43O :  6.54  475O :  6.51  274O :  6.37  307O :  6.35   52O :  6.26  343O :  6.25  496O :  6.18  718O :  6.17  262O :  6.13  736O :  6.10    4O :  6.01  244O :  5.96
  433O :  5.83  451O :  5.69  679O :  5.64  715O :  5.60   28O :  5.54  553O :  5.52  472O :  5.52  493O :  5.49  697O :  5.35   13O :  5.33  712O :  5.20  175O :  5.20
  427O :  5.19  103O :  5.10  202O :  5.06  583O :  5.05  670O :  5.02  529O :  5.00  619O :  4.94   34O :  4.88  355O :  4.83  538O :  4.76  430O :  4.71  376O :  4.70
  337O :  4.60  349O :  4.57  157O :  4.54  223O :  4.54  394O :  4.26  487O :  4.19   19O :  4.18  145O :  4.17  268O :  4.09  721O :  4.09  226O :  4.06   61O :  4.02
  466O :  4.00  745O :  3.94  601O :  3.94  163O :  3.79  400O :  3.78  673O :  3.77  562O :  3.72  403O :  3.65  682O :  3.65  214O :  3.62  370O :  3.53  739O :  3.52
  379O :  3.50  511O :  3.50  172O :  3.47  250O :  3.46  259O :  3.46  514O :  3.46  652O :  3.43  277O :  3.39  544O :  3.32  595O :  3.31   31O :  3.31  340O :  3.30
  100O :  3.29  346O :  3.27  604O :  3.27  463O :  3.22  634O :  3.19  112O :  3.18  436O :  3.17  424O :  3.05  559O :  3.00  187O :  2.99  247O :  2.88  121O :  2.86
  442O :  2.85   91O :  2.84  526O :  2.81  154O :  2.81  256O :  2.76  586O :  2.72   88O :  2.71   49O :  2.70  607O :  2.69  418O :  2.66  406O :  2.63   79O :  2.58
   76O :  2.57  272H :  2.55  127O :  2.51  193O :  2.48  352O :  2.48  241O :  2.47  580O :  2.47  742O :  2.44  310O :  2.42  589O :  2.40   97O :  2.38  184O :  2.35
  445O :  2.28  676O :  2.28  211O :  2.24  691O :  2.24  292O :  2.20  217O :  2.19  130O :  2.11  158H :  2.08  229O :  2.07  136O :  2.06  481O :  2.02  391O :  2.02
  640O :  1.99  205O :  1.98  520O :  1.98  505O :  1.97  196O :  1.96  106O :  1.95  523O :  1.94  253O :  1.85  571O :  1.84  169O :  1.83  688O :  1.81  535O :  1.80
  151O :  1.70  733O :  1.69  502O :  1.68  280O :  1.66   64O :  1.66  748O :  1.63  397O :  1.63  265O :  1.62  139O :  1.59   94O :  1.57  613O :  1.57  295O :  1.57
  133O :  1.53  592O :  1.53  625O :  1.52  232O :  1.48  550O :  1.46  490O :  1.39  359H :  1.38  700O :  1.36  484O :  1.35  389H :  1.30  166O :  1.24  541O :  1.24
  637O :  1.22  434H :  1.22  646O :  1.22  684H :  1.22  477H :  1.21  366H :  1.20  190O :  1.19  286O :  1.18  178O :  1.16  109O :  1.15  643O :  1.14  532O :  1.14
  334O :  1.12  517O :  1.12  386H :  1.12  556O :  1.11  704H :  1.11   24H :  1.08  565O :  1.07  357H :  1.06  115O :  1.06  284H :  1.04  584H :  1.03  118O :  1.03
   37O :  1.03   25O :  1.01  409O :  1.00   40O :  1.00   73O :  0.97   21H :  0.96  655O :  0.95  497H :  0.94  631O :  0.93  220O :  0.92  685O :  0.92  501H :  0.91
  309H :  0.91    5H :  0.90  649O :  0.90  667O :  0.88  324H :  0.88  326H :  0.86  569H :  0.85  611H :  0.85  570H :  0.83  512H :  0.82   30H :  0.82  577O :  0.81
  260H :  0.80  395H :  0.80  743H :  0.80  575H :  0.80  453H :  0.78  294H :  0.78  516H :  0.77  373O :  0.76  289O :  0.75   90H :  0.74   82O :  0.74  707H :  0.74
  107H :  0.71  751O :  0.70  203H :  0.70  183H :  0.69  235O :  0.68  421O :  0.67  478O :  0.66  198H :  0.66  218H :  0.65   70O :  0.65  313O :  0.65  632H :  0.64
  531H :  0.63  672H :  0.62  372H :  0.62  155H :  0.60   55O :  0.59  360H :  0.58  754O :  0.57  317H :  0.57  285H :  0.56  455H :  0.56  124O :  0.56  555H :  0.55
  444H :  0.54  199O :  0.54  369H :  0.54  233H :  0.53   45H :  0.52  709O :  0.52  319O :  0.51   46O :  0.50  699H :  0.49  728H :  0.49  552H :  0.49   23H :  0.48
  470H :  0.47  641H :  0.47  457O :  0.46  564H :  0.46  665H :  0.46   12H :  0.46  303H :  0.44  153H :  0.44  328O :  0.44  266H :  0.43  432H :  0.42  654H :  0.42
  146H :  0.42  174H :  0.42  156H :  0.41  176H :  0.41    7O :  0.41  441H :  0.41  513H :  0.40  362H :  0.40   78H :  0.40  438H :  0.39  323H :  0.39  342H :  0.39
  548H :  0.38  726H :  0.38  661O :  0.38  495H :  0.38   93H :  0.38  149H :  0.38  344H :  0.38  437H :  0.37  692H :  0.37  428H :  0.37  467H :  0.37  332H :  0.36
   54H :  0.36  572H :  0.35  440H :  0.35  713H :  0.35  246H :  0.34  213H :  0.34  142O :  0.34  626H :  0.33  351H :  0.33  413H :  0.33  543H :  0.32   99H :  0.31
  239H :  0.31  443H :  0.31  729H :  0.31  694O :  0.31  339H :  0.31  461H :  0.31  162H :  0.30  263H :  0.30  635H :  0.30  464H :  0.30  382O :  0.30  708H :  0.30
  261H :  0.29  282H :  0.29  719H :  0.28  660H :  0.28  701H :  0.27  101H :  0.26   38H :  0.25  527H :  0.25  730O :  0.25  576H :  0.25  617H :  0.25  740H :  0.24
  207H :  0.24   14H :  0.24  338H :  0.23  304O :  0.23  752H :  0.23  408H :  0.22  587H :  0.22   15H :  0.22  425H :  0.22  161H :  0.21  236H :  0.21   63H :  0.21
   29H :  0.21  380H :  0.21  600H :  0.21  312H :  0.21  554H :  0.20  435H :  0.20  489H :  0.20  275H :  0.20  353H :  0.20  581H :  0.19  671H :  0.19  507H :  0.19
  387H :  0.19  321H :  0.19  210H :  0.19  356H :  0.19  474H :  0.18  491H :  0.18  159H :  0.18  216H :  0.17  354H :  0.17   32H :  0.17  720H :  0.17  242H :  0.16
  716H :  0.16  336H :  0.16   18H :  0.16    2H :  0.16  399H :  0.16   48H :  0.16   59H :  0.16  459H :  0.15  188H :  0.15  318H :  0.15  597H :  0.15  333H :  0.14
   66H :  0.14  215H :  0.14  224H :  0.14  687H :  0.14  662H :  0.13  179H :  0.13  605H :  0.13  144H :  0.13  608H :  0.13  327H :  0.13  744H :  0.13  297H :  0.13
   95H :  0.13  168H :  0.12  245H :  0.12  533H :  0.12  138H :  0.12   83H :  0.12   27H :  0.12  227H :  0.12  393H :  0.12  722H :  0.12  510H :  0.12  590H :  0.11
  755H :  0.11  350H :  0.11  414H :  0.11  186H :  0.11  609H :  0.10  663H :  0.10  579H :  0.10  374H :  0.10  666H :  0.10  348H :  0.10  677H :  0.10  630H :  0.10
  602H :  0.10   26H :  0.10  296H :  0.10   68H :  0.10  197H :  0.10  560H :  0.09  267H :  0.09  650H :  0.09  578H :  0.09  281H :  0.09  237H :  0.09   41H :  0.09
  375H :  0.09  482H :  0.09  620H :  0.09   47H :  0.08  675H :  0.08  195H :  0.08  471H :  0.08  452H :  0.08  636H :  0.08  476H :  0.08  540H :  0.08  563H :  0.08
  302H :  0.08   11H :  0.08  251H :  0.08   96H :  0.08   75H :  0.08   33H :  0.08  306H :  0.07   17H :  0.07  588H :  0.07  305H :  0.07  462H :  0.07  407H :  0.07
  405H :  0.07  368H :  0.07   92H :  0.07
    7 LP   *******   0.00  48.12308   2.88352   0.23589  628O : 17.26  439O : 16.80  508O : 16.47  568O : 15.83  271O : 15.45  703O : 14.68  385O : 14.36  331O : 13.52  499O : 12.74  664O : 12.18  448O : 10.89  322O : 10.75
  412O : 10.40   16O : 10.39  658O : 10.38   10O : 10.06   58O :  9.59  148O :  9.53  388O :  8.88  367O :  8.68  574O :  8.63  361O :  8.59  610O :  8.48  724O :  8.47
  283O :  8.45  316O :  8.35  547O :  8.24  181O :  8.17  727O :  8.17  598O :  8.14  160O :  7.93  298O :  7.82  301O :  7.70  706O :  7.68  364O :  7.50    1O :  7.49
  325O :  7.46   85O :  7.44  208O :  7.30  616O :  7.19  469O :  7.08  460O :  7.05  358O :  6.99   22O :  6.98  415O :  6.97   67O :  6.74  454O :  6.52  238O :  6.51
   43O :  6.41  475O :  6.37  274O :  6.24  307O :  6.22   52O :  6.15  343O :  6.12  496O :  6.05  718O :  6.04  262O :  6.00  736O :  5.97  244O :  5.84    4O :  5.81
  433O :  5.71  451O :  5.57  679O :  5.53  715O :  5.48   28O :  5.42  553O :  5.41  472O :  5.41  493O :  5.37  697O :  5.24   13O :  5.22  712O :  5.10  175O :  5.09
  427O :  5.09  103O :  5.00  202O :  4.96  583O :  4.96  670O :  4.91  529O :  4.89  619O :  4.83   34O :  4.78  355O :  4.73  538O :  4.67  376O :  4.60  430O :  4.60
  337O :  4.51  349O :  4.48  157O :  4.45  223O :  4.45  394O :  4.18  487O :  4.11   19O :  4.09  145O :  4.08  268O :  4.01  721O :  4.01  226O :  3.98  466O :  3.92
   61O :  3.86  745O :  3.86  601O :  3.85  163O :  3.71  400O :  3.71  673O :  3.69  562O :  3.65  403O :  3.57  682O :  3.57  214O :  3.54  370O :  3.46  739O :  3.45
  379O :  3.43  511O :  3.43  172O :  3.40  250O :  3.39  259O :  3.39  514O :  3.39  652O :  3.36  277O :  3.32  544O :  3.25  595O :  3.25   31O :  3.24  100O :  3.23
  340O :  3.23  346O :  3.20  604O :  3.20  463O :  3.15  634O :  3.12  112O :  3.12  436O :  3.11  424O :  2.99  559O :  2.93  187O :  2.93  247O :  2.82  442O :  2.81
  121O :  2.80   91O :  2.78  526O :  2.75  154O :  2.75  256O :  2.70  586O :  2.67   88O :  2.66   49O :  2.65  607O :  2.64  418O :  2.60  406O :  2.58  127O :  2.55
   79O :  2.53   76O :  2.51  272H :  2.49  193O :  2.43  352O :  2.43  241O :  2.42  580O :  2.42  742O :  2.39  310O :  2.37  589O :  2.35   97O :  2.33  184O :  2.31
  211O :  2.25  676O :  2.23  445O :  2.20  691O :  2.20  292O :  2.15  217O :  2.15  130O :  2.07  158H :  2.04  229O :  2.02  136O :  2.01  481O :  1.98  391O :  1.97
  640O :  1.95  205O :  1.94  505O :  1.94  520O :  1.93  196O :  1.91  106O :  1.91  523O :  1.90  253O :  1.81  571O :  1.81  169O :  1.79  688O :  1.78  535O :  1.76
  151O :  1.67  733O :  1.66  502O :  1.64  280O :  1.63   64O :  1.62  748O :  1.59  397O :  1.59  265O :  1.58  139O :  1.55   94O :  1.54  613O :  1.54  295O :  1.54
  625O :  1.52  592O :  1.49  133O :  1.49  232O :  1.45  550O :  1.43  490O :  1.36  359H :  1.35  700O :  1.34  484O :  1.32  389H :  1.27  166O :  1.22  541O :  1.21
  637O :  1.20  434H :  1.20  646O :  1.20  684H :  1.19  477H :  1.18  366H :  1.18  190O :  1.16  286O :  1.15  178O :  1.14  109O :  1.12  643O :  1.12  532O :  1.12
  334O :  1.10  517O :  1.09  386H :  1.09  556O :  1.09  704H :  1.08   24H :  1.06  565O :  1.05  115O :  1.05  357H :  1.04  284H :  1.02  584H :  1.01  118O :  1.01
   37O :  1.00   25O :  0.99  409O :  0.98   40O :  0.98   73O :  0.95   21H :  0.95  655O :  0.93  497H :  0.92  631O :  0.91  220O :  0.90  685O :  0.90  501H :  0.89
  309H :  0.89  649O :  0.88  667O :  0.86  324H :  0.86    5H :  0.86  326H :  0.84  569H :  0.83  611H :  0.83  570H :  0.81  512H :  0.80   30H :  0.80  577O :  0.79
  260H :  0.79  743H :  0.78  575H :  0.78  395H :  0.78  453H :  0.77  294H :  0.77  516H :  0.75  373O :  0.74  289O :  0.74   90H :  0.73   82O :  0.72  707H :  0.72
  107H :  0.69  751O :  0.68  203H :  0.68  183H :  0.67   70O :  0.67  235O :  0.67  421O :  0.65  478O :  0.65  198H :  0.65  218H :  0.64  313O :  0.63  632H :  0.62
   55O :  0.62  531H :  0.62  672H :  0.61  372H :  0.61  155H :  0.59  360H :  0.56  317H :  0.55  285H :  0.55  754O :  0.55  455H :  0.55  124O :  0.54  626H :  0.54
  444H :  0.53  555H :  0.53  199O :  0.53  369H :  0.53  665H :  0.53  233H :  0.52   45H :  0.51  709O :  0.51  319O :  0.50   46O :  0.48  699H :  0.48  552H :  0.48
  728H :  0.47   23H :  0.47  470H :  0.46  641H :  0.46  457O :  0.45  564H :  0.45   12H :  0.45  303H :  0.43  328O :  0.43  153H :  0.43  266H :  0.42  432H :  0.42
  654H :  0.42  146H :  0.41  174H :  0.41  156H :  0.40  176H :  0.40    7O :  0.40  513H :  0.39  362H :  0.39   78H :  0.39  438H :  0.38  323H :  0.38  342H :  0.38
  548H :  0.38  726H :  0.38  661O :  0.37  495H :  0.37   93H :  0.37  149H :  0.37  344H :  0.37  437H :  0.37  692H :  0.36  467H :  0.36  428H :  0.36  332H :  0.35
   54H :  0.35  572H :  0.34  713H :  0.34  441H :  0.34  246H :  0.34  213H :  0.33  142O :  0.33  351H :  0.32  413H :  0.32  543H :  0.31   99H :  0.31  729H :  0.31
  239H :  0.31  443H :  0.30  694O :  0.30  339H :  0.30  461H :  0.30  162H :  0.30  263H :  0.30  635H :  0.30  464H :  0.30  382O :  0.29  708H :  0.29  261H :  0.29
  440H :  0.29  282H :  0.28  719H :  0.28  660H :  0.27  701H :  0.26  101H :  0.26   38H :  0.25  527H :  0.25  730O :  0.25  576H :  0.24  617H :  0.24  740H :  0.24
   14H :  0.24  207H :  0.23  338H :  0.23  304O :  0.22  752H :  0.22  408H :  0.22  587H :  0.21   15H :  0.21  425H :  0.21   63H :  0.21  161H :  0.21  236H :  0.21
   29H :  0.21  380H :  0.21  600H :  0.20  312H :  0.20  554H :  0.20  435H :  0.20  489H :  0.20  275H :  0.20  353H :  0.19  581H :  0.19  671H :  0.19  507H :  0.19
  387H :  0.19  321H :  0.19  210H :  0.18  356H :  0.18  474H :  0.18  491H :  0.17  159H :  0.17  354H :  0.17  336H :  0.17   32H :  0.17  720H :  0.16  242H :  0.16
  216H :  0.16  716H :  0.16   18H :  0.16    2H :  0.15  399H :  0.15   48H :  0.15   59H :  0.15  459H :  0.15  666H :  0.15  188H :  0.14  318H :  0.14  597H :  0.14
  215H :  0.14  333H :  0.14   66H :  0.14  224H :  0.13  687H :  0.13  662H :  0.13  179H :  0.13  605H :  0.13  144H :  0.13  608H :  0.13  327H :  0.13  744H :  0.13
  297H :  0.12   95H :  0.12  168H :  0.12  245H :  0.12  533H :  0.12  138H :  0.12   83H :  0.12   27H :  0.12  227H :  0.12  393H :  0.11  722H :  0.11  510H :  0.11
  590H :  0.11  755H :  0.11  350H :  0.10  414H :  0.10  186H :  0.10  579H :  0.10  609H :  0.10  663H :  0.10  374H :  0.10  348H :  0.10  677H :  0.10  630H :  0.10
  602H :  0.09   26H :  0.09  296H :  0.09   68H :  0.09  197H :  0.09  560H :  0.09  267H :  0.09  578H :  0.09  650H :  0.09  281H :  0.09  237H :  0.09   41H :  0.09
  375H :  0.09  482H :  0.08  620H :  0.08   47H :  0.08  182H :  0.08  675H :  0.08  195H :  0.08  471H :  0.08  452H :  0.08  636H :  0.08  476H :  0.08  563H :  0.08
  540H :  0.08  302H :  0.07  251H :  0.07   96H :  0.07   11H :  0.07   75H :  0.07   33H :  0.07  306H :  0.07   17H :  0.07  588H :  0.07  305H :  0.07  462H :  0.07
  407H :  0.07  405H :  0.07
    8 LP   *******   0.00   2.97050 -12.16358   0.87908  628O : 17.80  508O : 15.36  568O : 14.75  271O : 14.46  703O : 13.68  439O : 13.67  385O : 13.39  331O : 12.60  499O : 11.88  664O : 11.36  448O : 10.15  322O : 10.02
  412O :  9.70   16O :  9.69  658O :  9.68   10O :  9.38   58O :  8.94  148O :  8.89  388O :  8.28  367O :  8.10  574O :  8.05  361O :  8.01  610O :  7.91  724O :  7.90
  727O :  7.88  283O :  7.88  316O :  7.78  181O :  7.78  547O :  7.68  598O :  7.59  160O :  7.40  298O :  7.29  301O :  7.19  706O :  7.16  364O :  6.99    1O :  6.98
  325O :  6.96   85O :  6.94  208O :  6.81  616O :  6.70  469O :  6.61  460O :  6.57  358O :  6.51  415O :  6.50   22O :  6.47   67O :  6.28  454O :  6.08  238O :  6.07
   43O :  5.97  475O :  5.94  307O :  5.83  274O :  5.82   52O :  5.73  343O :  5.71  496O :  5.65  718O :  5.64  262O :  5.59  736O :  5.57  244O :  5.44    4O :  5.42
  433O :  5.32  451O :  5.20  679O :  5.15  715O :  5.11   28O :  5.06  553O :  5.04  472O :  5.04  493O :  5.01  697O :  4.89   13O :  4.86  712O :  4.75  175O :  4.74
  427O :  4.74  103O :  4.66  202O :  4.62  583O :  4.62  670O :  4.58  529O :  4.56  619O :  4.51   34O :  4.46  355O :  4.41  538O :  4.35  376O :  4.29  430O :  4.28
  337O :  4.20  349O :  4.18  157O :  4.15  223O :  4.15  394O :  3.89  487O :  3.82   19O :  3.81  145O :  3.81  268O :  3.74  721O :  3.73  226O :  3.69  466O :  3.65
   61O :  3.60  745O :  3.60  601O :  3.60  163O :  3.46  400O :  3.46  673O :  3.44  562O :  3.40  403O :  3.33  682O :  3.33  214O :  3.30  370O :  3.23  739O :  3.21
  379O :  3.20  511O :  3.19  172O :  3.17  250O :  3.16  259O :  3.16  514O :  3.15  652O :  3.13  277O :  3.10  544O :  3.03  595O :  3.03   31O :  3.02  340O :  3.01
  100O :  3.01  346O :  2.98  604O :  2.98  463O :  2.94  634O :  2.91  112O :  2.90  436O :  2.90  424O :  2.79  559O :  2.74  187O :  2.73  247O :  2.63  121O :  2.61
  442O :  2.61   91O :  2.60  526O :  2.57  154O :  2.57  256O :  2.52  586O :  2.48   88O :  2.48   49O :  2.47  406O :  2.47  607O :  2.46  418O :  2.42  127O :  2.38
   79O :  2.35   76O :  2.34  272H :  2.33  193O :  2.26  352O :  2.26  241O :  2.26  580O :  2.25  742O :  2.23  310O :  2.21  589O :  2.19   97O :  2.17  184O :  2.15
  211O :  2.09  445O :  2.08  676O :  2.08  691O :  2.04  292O :  2.01  217O :  2.00  130O :  1.93  158H :  1.90  229O :  1.89  136O :  1.88  640O :  1.86  481O :  1.85
  391O :  1.84  205O :  1.81  520O :  1.80  505O :  1.80  196O :  1.79  106O :  1.78  523O :  1.77  253O :  1.69  571O :  1.68  169O :  1.67  688O :  1.66  535O :  1.64
  151O :  1.57  733O :  1.55  502O :  1.53  280O :  1.52   64O :  1.51  748O :  1.48  397O :  1.48  265O :  1.48  139O :  1.45   94O :  1.44  613O :  1.43  295O :  1.43
  133O :  1.39  592O :  1.39  625O :  1.39  232O :  1.35  550O :  1.34  359H :  1.26  490O :  1.25  700O :  1.25  484O :  1.23  389H :  1.19  166O :  1.13  541O :  1.13
  637O :  1.12  434H :  1.12  646O :  1.12  684H :  1.11  477H :  1.10  366H :  1.10  190O :  1.09  286O :  1.07  178O :  1.06  109O :  1.05  643O :  1.05  532O :  1.04
  334O :  1.03  517O :  1.02  386H :  1.02  556O :  1.02  704H :  1.01   24H :  0.99  565O :  0.98  115O :  0.98  357H :  0.97  284H :  0.95  584H :  0.94  118O :  0.94
   37O :  0.94  409O :  0.92   40O :  0.91   25O :  0.90   73O :  0.89   21H :  0.88  655O :  0.86  497H :  0.86  631O :  0.85  220O :  0.84  685O :  0.84  501H :  0.83
  309H :  0.83  649O :  0.82  667O :  0.81  324H :  0.80    5H :  0.80  326H :  0.79  569H :  0.77  611H :  0.77  570H :  0.76  512H :  0.75   30H :  0.75  577O :  0.74
  260H :  0.73  395H :  0.73  743H :  0.73  575H :  0.73  453H :  0.72  294H :  0.71  516H :  0.69  373O :  0.69  289O :  0.69   90H :  0.68   82O :  0.67  707H :  0.67
  107H :  0.65  751O :  0.64  203H :  0.64  183H :  0.63   70O :  0.62  235O :  0.62  421O :  0.61  198H :  0.60  218H :  0.60  313O :  0.59  632H :  0.58   55O :  0.58
  531H :  0.57  672H :  0.57  478O :  0.57  372H :  0.56  155H :  0.55  360H :  0.53  317H :  0.52  285H :  0.52  754O :  0.52  455H :  0.51  124O :  0.51  555H :  0.50
  444H :  0.50  199O :  0.50  369H :  0.49  665H :  0.49  233H :  0.49   45H :  0.47  709O :  0.47  319O :  0.47   46O :  0.45  699H :  0.45  728H :  0.45  552H :  0.44
  641H :  0.44   23H :  0.44  470H :  0.43  457O :  0.42  564H :  0.42   12H :  0.42  303H :  0.41  328O :  0.40  153H :  0.39  266H :  0.39  654H :  0.39  432H :  0.39
  146H :  0.39  174H :  0.38  156H :  0.38  176H :  0.38    7O :  0.37  441H :  0.37  513H :  0.37  362H :  0.37   78H :  0.36  438H :  0.36  323H :  0.35  342H :  0.35
  692H :  0.35  548H :  0.35  726H :  0.35  661O :  0.35  495H :  0.35   93H :  0.34  149H :  0.34  344H :  0.34  437H :  0.34  428H :  0.34  467H :  0.34  408H :  0.33
  332H :  0.33   54H :  0.32  572H :  0.32  440H :  0.32  713H :  0.32  246H :  0.31  213H :  0.31  142O :  0.31  626H :  0.31  351H :  0.30  413H :  0.30  543H :  0.29
   99H :  0.29  239H :  0.28  443H :  0.28  729H :  0.28  694O :  0.28  339H :  0.28  461H :  0.28  162H :  0.28  263H :  0.28  635H :  0.28  464H :  0.28  382O :  0.27
  708H :  0.27  261H :  0.27  282H :  0.26  719H :  0.26  660H :  0.25  701H :  0.25  101H :  0.24   38H :  0.23  527H :  0.23  730O :  0.23  576H :  0.23  617H :  0.22
  740H :  0.22   14H :  0.22  207H :  0.22  338H :  0.21  304O :  0.21  752H :  0.21  587H :  0.20   15H :  0.20  425H :  0.20  491H :  0.19   63H :  0.19  161H :  0.19
  236H :  0.19   29H :  0.19  380H :  0.19  600H :  0.19  312H :  0.19  554H :  0.19  435H :  0.18  489H :  0.18  275H :  0.18  353H :  0.18  581H :  0.18  671H :  0.18
  507H :  0.17  387H :  0.17  321H :  0.17  210H :  0.17  356H :  0.17  474H :  0.17  159H :  0.16  354H :  0.16  336H :  0.16   32H :  0.16  720H :  0.15  242H :  0.15
  216H :  0.15  716H :  0.15   18H :  0.14    2H :  0.14  399H :  0.14   48H :  0.14   59H :  0.14  459H :  0.14  666H :  0.14  188H :  0.13  318H :  0.13  597H :  0.13
  215H :  0.13  333H :  0.13   66H :  0.13  224H :  0.12  687H :  0.12  662H :  0.12  179H :  0.12  605H :  0.12  144H :  0.12  608H :  0.12  327H :  0.12  744H :  0.12
  297H :  0.12   95H :  0.12  168H :  0.11  245H :  0.11  533H :  0.11  138H :  0.11   83H :  0.11  227H :  0.11   27H :  0.11  393H :  0.11  722H :  0.11  510H :  0.11
  590H :  0.10  755H :  0.10  350H :  0.10  414H :  0.10  186H :  0.10  579H :  0.10  609H :  0.09  663H :  0.09  374H :  0.09  348H :  0.09  677H :  0.09  602H :  0.09
  296H :  0.09   68H :  0.09  197H :  0.09  560H :  0.09  267H :  0.09  578H :  0.08  650H :  0.08  281H :  0.08  237H :  0.08  620H :  0.08   26H :  0.08   41H :  0.08
  375H :  0.08  482H :  0.08   47H :  0.08  675H :  0.08  195H :  0.07  471H :  0.07  452H :  0.07  636H :  0.07  476H :  0.07  563H :  0.07  540H :  0.07
    9 LP   *******   0.00  -9.09974  15.09086  -1.10200  385O : 16.39  628O : 15.99  508O : 15.26  568O : 14.66  271O : 14.37  703O : 13.60  439O : 13.58  331O : 12.52  499O : 11.80  664O : 11.28  448O : 10.09  322O :  9.96
  412O :  9.64   16O :  9.63  658O :  9.61   10O :  9.32   58O :  8.88  148O :  8.84  388O :  8.23  367O :  8.04  574O :  7.99  361O :  7.96  610O :  7.86  724O :  7.85
  727O :  7.83  283O :  7.83  181O :  7.73  547O :  7.63  316O :  7.62  598O :  7.54  160O :  7.35  298O :  7.24  301O :  7.14  706O :  7.11  364O :  6.95    1O :  6.94
   85O :  6.89  325O :  6.78  208O :  6.77  616O :  6.66  469O :  6.56  460O :  6.53  358O :  6.47   22O :  6.47  415O :  6.45   67O :  6.24  454O :  6.04  238O :  6.03
   43O :  5.93  475O :  5.91  274O :  5.78  307O :  5.77   52O :  5.70  343O :  5.67  496O :  5.61  262O :  5.56  718O :  5.54  736O :  5.53  244O :  5.41    4O :  5.39
  433O :  5.29  451O :  5.16  679O :  5.11  715O :  5.08   28O :  5.03  553O :  5.01  472O :  5.01  493O :  4.98  697O :  4.86   13O :  4.83  712O :  4.72  175O :  4.72
  427O :  4.71  103O :  4.63  202O :  4.59  583O :  4.59  529O :  4.53  619O :  4.48   34O :  4.43  355O :  4.38  538O :  4.32  670O :  4.29  376O :  4.27  430O :  4.26
  337O :  4.18  349O :  4.15  157O :  4.12  223O :  4.10  394O :  3.87  487O :  3.80   19O :  3.79  145O :  3.78  268O :  3.71  721O :  3.71  226O :  3.69  466O :  3.63
   61O :  3.58  745O :  3.58  601O :  3.57  163O :  3.44  400O :  3.43  673O :  3.42  562O :  3.38  682O :  3.31  403O :  3.31  214O :  3.28  370O :  3.21  739O :  3.19
  379O :  3.18  511O :  3.17  172O :  3.15  250O :  3.14  259O :  3.14  514O :  3.14  652O :  3.11  277O :  3.08  544O :  3.01  595O :  3.01   31O :  3.00  340O :  2.99
  100O :  2.99  604O :  2.96  346O :  2.96  463O :  2.92  634O :  2.89  112O :  2.89  436O :  2.88  424O :  2.77  559O :  2.72  187O :  2.71  247O :  2.61  121O :  2.59
  442O :  2.59   91O :  2.58  526O :  2.55  154O :  2.55  256O :  2.50  586O :  2.47   88O :  2.46   49O :  2.46  607O :  2.44  418O :  2.41  406O :  2.39  127O :  2.36
   79O :  2.34   76O :  2.33  272H :  2.32  193O :  2.25  352O :  2.25  241O :  2.24  580O :  2.24  742O :  2.22  310O :  2.19  589O :  2.18   97O :  2.16  184O :  2.14
  211O :  2.08  445O :  2.07  676O :  2.07  691O :  2.04  292O :  1.99  217O :  1.99  130O :  1.92  158H :  1.89  229O :  1.87  136O :  1.87  481O :  1.84  391O :  1.83
  640O :  1.81  205O :  1.80  520O :  1.79  505O :  1.78  196O :  1.77  106O :  1.77  523O :  1.76  253O :  1.68  571O :  1.67  169O :  1.67  688O :  1.65  535O :  1.63
  151O :  1.55  733O :  1.54  502O :  1.52  280O :  1.51   64O :  1.50  748O :  1.48  397O :  1.47  265O :  1.47  139O :  1.44   94O :  1.43  613O :  1.42  295O :  1.42
  133O :  1.39  592O :  1.38  625O :  1.38  232O :  1.34  550O :  1.33  490O :  1.26  359H :  1.25  700O :  1.24  484O :  1.22  389H :  1.18  166O :  1.13  541O :  1.12
  637O :  1.11  434H :  1.11  646O :  1.11  684H :  1.10  477H :  1.10  366H :  1.09  190O :  1.08  286O :  1.07  178O :  1.06  109O :  1.04  532O :  1.04  643O :  1.03
  334O :  1.02  517O :  1.01  556O :  1.01  704H :  1.01   24H :  0.98  565O :  0.97  115O :  0.97  357H :  0.96  284H :  0.94  584H :  0.94  118O :  0.94  386H :  0.93
   37O :  0.93   25O :  0.91  409O :  0.91   40O :  0.91   73O :  0.88   21H :  0.87  655O :  0.86  497H :  0.86  631O :  0.85  220O :  0.84  685O :  0.83  501H :  0.83
  309H :  0.83  649O :  0.82  667O :  0.80  324H :  0.80    5H :  0.80  326H :  0.77  569H :  0.77  611H :  0.77  570H :  0.75  512H :  0.75   30H :  0.74  577O :  0.74
  260H :  0.73  395H :  0.73  743H :  0.73  575H :  0.73  453H :  0.71  294H :  0.71  516H :  0.70  373O :  0.69  289O :  0.68   90H :  0.67   82O :  0.67  707H :  0.67
  107H :  0.64  751O :  0.63  203H :  0.63  183H :  0.62  235O :  0.62   70O :  0.62  421O :  0.61  478O :  0.60  198H :  0.60  218H :  0.59  313O :  0.59  632H :  0.58
   55O :  0.57  531H :  0.57  372H :  0.56  155H :  0.54  360H :  0.52  285H :  0.51  754O :  0.51  317H :  0.51  455H :  0.51  124O :  0.50  555H :  0.49  444H :  0.49
  199O :  0.49  369H :  0.49  665H :  0.49  319O :  0.48  233H :  0.48   45H :  0.47  709O :  0.47   46O :  0.45  699H :  0.45  728H :  0.44  552H :  0.44   23H :  0.43
  470H :  0.43  641H :  0.43  457O :  0.42  564H :  0.42   12H :  0.41  303H :  0.40  328O :  0.40  153H :  0.40  672H :  0.40  266H :  0.39  432H :  0.39  654H :  0.38
  146H :  0.38  174H :  0.38  156H :  0.37  176H :  0.37    7O :  0.37  441H :  0.37  513H :  0.36  362H :  0.36   78H :  0.36  438H :  0.35  323H :  0.35  342H :  0.35
  548H :  0.35  726H :  0.35  661O :  0.34  495H :  0.34   93H :  0.34  149H :  0.34  344H :  0.34  437H :  0.34  692H :  0.33  428H :  0.33  467H :  0.33  332H :  0.33
   54H :  0.32  572H :  0.31  440H :  0.31  713H :  0.31  246H :  0.31  213H :  0.31  142O :  0.31  626H :  0.30  351H :  0.30  413H :  0.30  543H :  0.29   99H :  0.28
  239H :  0.28  443H :  0.28  729H :  0.28  694O :  0.28  339H :  0.28  461H :  0.28  162H :  0.28  263H :  0.28  635H :  0.28  464H :  0.27  382O :  0.27  708H :  0.27
  261H :  0.27  282H :  0.26  660H :  0.25  719H :  0.25  701H :  0.24  101H :  0.24   38H :  0.23  527H :  0.23  730O :  0.23  576H :  0.23  617H :  0.22  740H :  0.22
   14H :  0.22  207H :  0.22  387H :  0.21  338H :  0.21  304O :  0.21  752H :  0.21  408H :  0.20  587H :  0.20   15H :  0.20  321H :  0.20  425H :  0.20   63H :  0.19
  161H :  0.19  236H :  0.19   29H :  0.19  380H :  0.19  600H :  0.19  312H :  0.19  554H :  0.18  435H :  0.18  489H :  0.18  275H :  0.18  353H :  0.18  581H :  0.18
  507H :  0.17  671H :  0.17  210H :  0.17  356H :  0.17  474H :  0.16  491H :  0.16  159H :  0.16  354H :  0.16  720H :  0.16  336H :  0.16   32H :  0.16  242H :  0.15
  216H :  0.15  716H :  0.15   18H :  0.14    2H :  0.14  399H :  0.14   48H :  0.14   59H :  0.14  459H :  0.14  666H :  0.14  188H :  0.13  597H :  0.13  215H :  0.13
  318H :  0.13  333H :  0.13   66H :  0.13  224H :  0.12  687H :  0.12  662H :  0.12  179H :  0.12  605H :  0.12  144H :  0.12  608H :  0.12  744H :  0.12  297H :  0.12
   95H :  0.12  327H :  0.11  168H :  0.11  245H :  0.11  533H :  0.11  138H :  0.11   83H :  0.11   27H :  0.11  227H :  0.11  393H :  0.11  722H :  0.11  510H :  0.11
  590H :  0.10  755H :  0.10  350H :  0.10  414H :  0.10  186H :  0.10  579H :  0.09  609H :  0.09  663H :  0.09  374H :  0.09  348H :  0.09  677H :  0.09  630H :  0.09
  602H :  0.09   26H :  0.09  296H :  0.09   68H :  0.09  197H :  0.09  560H :  0.09  267H :  0.08  578H :  0.08  650H :  0.08  281H :  0.08  237H :  0.08   41H :  0.08
  375H :  0.08  482H :  0.08  620H :  0.08   47H :  0.08  675H :  0.08  195H :  0.07  471H :  0.07  452H :  0.07  636H :  0.07  476H :  0.07  563H :  0.07
   10 LP   *******   0.00  47.84617  19.02531   9.33621  628O : 15.49  271O : 15.42  508O : 14.79  568O : 14.20  703O : 13.17  439O : 13.13  385O : 12.89  331O : 12.13  499O : 11.43  664O : 10.93  448O :  9.77  322O :  9.65
  412O :  9.33   16O :  9.32  658O :  9.31   10O :  9.03   58O :  8.61  148O :  8.56  388O :  7.97  367O :  7.79  574O :  7.74  361O :  7.71  610O :  7.61  724O :  7.59
  283O :  7.58  727O :  7.56  181O :  7.50  316O :  7.49  547O :  7.39  598O :  7.31  160O :  7.12  298O :  7.02  301O :  6.91  706O :  6.89  364O :  6.73    1O :  6.72
  325O :  6.70   85O :  6.68  208O :  6.56  616O :  6.46  469O :  6.36  460O :  6.32  358O :  6.27   22O :  6.27  415O :  6.25   67O :  6.05  454O :  5.86  238O :  5.84
   43O :  5.75  475O :  5.72  307O :  5.58   52O :  5.52  343O :  5.49  496O :  5.43  718O :  5.43  262O :  5.38  736O :  5.36  274O :  5.34  244O :  5.24    4O :  5.22
  433O :  5.12  451O :  5.00  679O :  4.96  715O :  4.92   28O :  4.87  553O :  4.85  472O :  4.85  493O :  4.83  697O :  4.70   13O :  4.68  103O :  4.58  427O :  4.58
[...]
   370   8 o    1.867 --   371 h    0.814   372 h    0.809
   371   1 h    0.883 --   370 o    0.814
   372   1 h    0.882 --   370 o    0.809
   373   8 o    1.812 --   375 h    0.853   374 h    0.848
   374   1 h    0.896 --   373 o    0.848
   375   1 h    0.894 --   373 o    0.853
   376   8 o    1.846 --   377 h    0.828   378 h    0.806
   377   1 h    0.884 --   376 o    0.828
   378   1 h    0.875 --   376 o    0.806
   379   8 o    1.811 --   381 h    0.860   380 h    0.834
   380   1 h    0.891 --   379 o    0.834
   381   1 h    0.897 --   379 o    0.860
   382   8 o    1.861 --   384 h    0.854   383 h    0.848
   383   1 h    0.888 --   382 o    0.848
   384   1 h    0.895 --   382 o    0.854
   385   8 o    1.868 --   386 h    0.866   387 h    0.817
   386   1 h    0.893 --   385 o    0.866
   387   1 h    0.882 --   385 o    0.817
   388   8 o    1.838 --   390 h    0.839   389 h    0.809
   389   1 h    0.892 --   388 o    0.809
   390   1 h    0.888 --   388 o    0.839
   391   8 o    1.875 --   392 h    0.910   393 h    0.779
   392   1 h    0.914 --   391 o    0.910
   393   1 h    0.869 --   391 o    0.779
   394   8 o    1.864 --   396 h    0.854   395 h    0.806
   395   1 h    0.872 --   394 o    0.806
   396   1 h    0.891 --   394 o    0.854
   397   8 o    1.882 --   398 h    0.827   399 h    0.819
   398   1 h    0.866 --   397 o    0.827
   399   1 h    0.879 --   397 o    0.819
   400   8 o    1.854 --   402 h    0.913   401 h    0.788
   401   1 h    0.880 --   400 o    0.788
   402   1 h    0.920 --   400 o    0.913
   403   8 o    1.874 --   404 h    0.826   405 h    0.815
   404   1 h    0.885 --   403 o    0.826
   405   1 h    0.878 --   403 o    0.815
   406   8 o    1.867 --   407 h    0.822   408 h    0.811
   407   1 h    0.877 --   406 o    0.822
   408   1 h    0.877 --   406 o    0.811
   409   8 o    1.843 --   410 h    0.909   411 h    0.759
   410   1 h    0.916 --   409 o    0.909
   411   1 h    0.869 --   409 o    0.759   712 o    0.102
   412   8 o    1.846 --   414 h    0.829   413 h    0.822
   413   1 h    0.880 --   412 o    0.822
   414   1 h    0.881 --   412 o    0.829
   415   8 o    1.860 --   416 h    0.864   417 h    0.863
   416   1 h    0.892 --   415 o    0.864
   417   1 h    0.893 --   415 o    0.863
   418   8 o    1.839 --   420 h    0.834   419 h    0.819
   419   1 h    0.891 --   418 o    0.819
   420   1 h    0.892 --   418 o    0.834
   421   8 o    1.848 --   422 h    0.852   423 h    0.819
   422   1 h    0.897 --   421 o    0.852
   423   1 h    0.883 --   421 o    0.819
   424   8 o    1.869 --   425 h    0.911   426 h    0.797
   425   1 h    0.915 --   424 o    0.911
   426   1 h    0.876 --   424 o    0.797
   427   8 o    1.835 --   428 h    0.827   429 h    0.781
   428   1 h    0.881 --   427 o    0.827
   429   1 h    0.873 --   427 o    0.781
   430   8 o    1.829 --   431 h    0.854   432 h    0.825
   431   1 h    0.882 --   430 o    0.854
   432   1 h    0.881 --   430 o    0.825
   433   8 o    1.824 --   435 h    0.889   434 h    0.851
   434   1 h    0.891 --   433 o    0.851
   435   1 h    0.905 --   433 o    0.889
   436   8 o    1.833 --   437 h    0.847   438 h    0.808
   437   1 h    0.891 --   436 o    0.847
   438   1 h    0.882 --   436 o    0.808
   439   8 o    1.899 --   441 h    0.815   440 h    0.803
   440   1 h    0.887 --   439 o    0.803
   441   1 h    0.881 --   439 o    0.815
   442   8 o    1.850 --   443 h    0.854   444 h    0.821
   443   1 h    0.896 --   442 o    0.854
   444   1 h    0.891 --   442 o    0.821
   445   8 o    1.854 --   447 h    0.874   446 h    0.827
   446   1 h    0.880 --   445 o    0.827
   447   1 h    0.898 --   445 o    0.874
   448   8 o    1.845 --   450 h    0.883   449 h    0.858
   449   1 h    0.894 --   448 o    0.858
   450   1 h    0.902 --   448 o    0.883
   451   8 o    1.872 --   452 h    0.799   453 h    0.798
   452   1 h    0.877 --   451 o    0.799
   453   1 h    0.879 --   451 o    0.798
   454   8 o    1.883 --   455 h    0.849   456 h    0.836
   455   1 h    0.884 --   454 o    0.849
   456   1 h    0.885 --   454 o    0.836
   457   8 o    1.827 --   458 h    0.834   459 h    0.809
   458   1 h    0.891 --   457 o    0.834
   459   1 h    0.882 --   457 o    0.809
   460   8 o    1.837 --   461 h    0.839   462 h    0.828
   461   1 h    0.889 --   460 o    0.839
   462   1 h    0.893 --   460 o    0.828
   463   8 o    1.854 --   465 h    0.832   464 h    0.808
   464   1 h    0.883 --   463 o    0.808
   465   1 h    0.888 --   463 o    0.832
   466   8 o    1.857 --   467 h    0.817   468 h    0.814
   467   1 h    0.882 --   466 o    0.817
   468   1 h    0.886 --   466 o    0.814
   469   8 o    1.845 --   471 h    0.853   470 h    0.830
   470   1 h    0.879 --   469 o    0.830
   471   1 h    0.896 --   469 o    0.853
   472   8 o    1.846 --   473 h    0.836   474 h    0.833
   473   1 h    0.894 --   472 o    0.836
   474   1 h    0.888 --   472 o    0.833
   475   8 o    1.812 --   476 h    0.848   477 h    0.812
   476   1 h    0.893 --   475 o    0.848
   477   1 h    0.884 --   475 o    0.812
   478   8 o    1.849 --   480 h    0.890   479 h    0.800
   479   1 h    0.877 --   478 o    0.800
   480   1 h    0.906 --   478 o    0.890
   481   8 o    1.880 --   482 h    0.846   483 h    0.802
   482   1 h    0.890 --   481 o    0.846
   483   1 h    0.870 --   481 o    0.802
   484   8 o    1.873 --   485 h    0.851   486 h    0.825
   485   1 h    0.886 --   484 o    0.851
   486   1 h    0.882 --   484 o    0.825
   487   8 o    1.832 --   488 h    0.861   489 h    0.855
   488   1 h    0.889 --   487 o    0.861
   489   1 h    0.894 --   487 o    0.855
   490   8 o    1.851 --   492 h    0.864   491 h    0.821
   491   1 h    0.884 --   490 o    0.821
   492   1 h    0.893 --   490 o    0.864
   493   8 o    1.858 --   494 h    0.835   495 h    0.806
   494   1 h    0.888 --   493 o    0.835
   495   1 h    0.880 --   493 o    0.806
   496   8 o    1.864 --   497 h    0.839   498 h    0.802
   497   1 h    0.879 --   496 o    0.839
   498   1 h    0.875 --   496 o    0.802
   499   8 o    1.805 --   500 h    0.847   501 h    0.829
   500   1 h    0.894 --   499 o    0.847
   501   1 h    0.895 --   499 o    0.829
   502   8 o    1.825 --   503 h    0.840   504 h    0.808
   503   1 h    0.887 --   502 o    0.840
   504   1 h    0.890 --   502 o    0.808
   505   8 o    1.813 --   506 h    0.875   507 h    0.850
   506   1 h    0.898 --   505 o    0.875
   507   1 h    0.893 --   505 o    0.850
   508   8 o    1.838 --   509 h    0.901   510 h    0.810
   509   1 h    0.907 --   508 o    0.901
   510   1 h    0.879 --   508 o    0.810
   511   8 o    1.828 --   513 h    0.831   512 h    0.830
   512   1 h    0.884 --   511 o    0.830
   513   1 h    0.888 --   511 o    0.831
   514   8 o    1.849 --   515 h    0.871   516 h    0.795
   515   1 h    0.896 --   514 o    0.871
   516   1 h    0.875 --   514 o    0.795
   517   8 o    1.859 --   519 h    0.858   518 h    0.838
   518   1 h    0.891 --   517 o    0.838
   519   1 h    0.899 --   517 o    0.858
   520   8 o    1.853 --   522 h    0.859   521 h    0.844
   521   1 h    0.889 --   520 o    0.844
   522   1 h    0.894 --   520 o    0.859
   523   8 o    1.870 --   525 h    0.837   524 h    0.806
   524   1 h    0.885 --   523 o    0.806
   525   1 h    0.892 --   523 o    0.837
   526   8 o    1.867 --   528 h    0.873   527 h    0.811
   527   1 h    0.886 --   526 o    0.811
   528   1 h    0.898 --   526 o    0.873
   529   8 o    1.875 --   531 h    0.845   530 h    0.793
   530   1 h    0.875 --   529 o    0.793
   531   1 h    0.878 --   529 o    0.845
   532   8 o    1.843 --   534 h    0.860   533 h    0.814
   533   1 h    0.884 --   532 o    0.814
   534   1 h    0.901 --   532 o    0.860
   535   8 o    1.852 --   536 h    0.899   537 h    0.792
   536   1 h    0.909 --   535 o    0.899
   537   1 h    0.873 --   535 o    0.792
   538   8 o    1.815 --   539 h    0.840   540 h    0.813
   539   1 h    0.897 --   538 o    0.840
   540   1 h    0.883 --   538 o    0.813
   541   8 o    1.855 --   543 h    0.856   542 h    0.827
   542   1 h    0.888 --   541 o    0.827
   543   1 h    0.890 --   541 o    0.856
   544   8 o    1.846 --   545 h    0.887   546 h    0.864
   545   1 h    0.900 --   544 o    0.887
   546   1 h    0.888 --   544 o    0.864
   547   8 o    1.832 --   549 h    0.861   548 h    0.847
   548   1 h    0.891 --   547 o    0.847
   549   1 h    0.895 --   547 o    0.861
   550   8 o    1.868 --   552 h    0.823   551 h    0.814
   551   1 h    0.882 --   550 o    0.814
   552   1 h    0.891 --   550 o    0.823
   553   8 o    1.864 --   554 h    0.835   555 h    0.832
   554   1 h    0.888 --   553 o    0.835
   555   1 h    0.896 --   553 o    0.832
   556   8 o    1.858 --   558 h    0.910   557 h    0.813
   557   1 h    0.875 --   556 o    0.813
   558   1 h    0.915 --   556 o    0.910
   559   8 o    1.849 --   560 h    0.869   561 h    0.839
   560   1 h    0.900 --   559 o    0.869
   561   1 h    0.893 --   559 o    0.839
   562   8 o    1.870 --   563 h    0.882   564 h    0.803
   563   1 h    0.900 --   562 o    0.882
   564   1 h    0.871 --   562 o    0.803
   565   8 o    1.841 --   566 h    0.885   567 h    0.834
   566   1 h    0.902 --   565 o    0.885
   567   1 h    0.886 --   565 o    0.834
   568   8 o    1.824 --   569 h    0.849   570 h    0.823
   569   1 h    0.898 --   568 o    0.849
   570   1 h    0.886 --   568 o    0.823
   571   8 o    1.859 --   572 h    0.857   573 h    0.816
   572   1 h    0.892 --   571 o    0.857
   573   1 h    0.882 --   571 o    0.816
   574   8 o    1.840 --   575 h    0.847   576 h    0.808
   575   1 h    0.892 --   574 o    0.847
   576   1 h    0.881 --   574 o    0.808
   577   8 o    1.844 --   579 h    0.821   578 h    0.806
   578   1 h    0.879 --   577 o    0.806
   579   1 h    0.880 --   577 o    0.821
   580   8 o    1.882 --   582 h    0.855   581 h    0.822
   581   1 h    0.873 --   580 o    0.822
   582   1 h    0.886 --   580 o    0.855
   583   8 o    1.834 --   585 h    0.866   584 h    0.862
   584   1 h    0.898 --   583 o    0.862
   585   1 h    0.897 --   583 o    0.866
   586   8 o    1.853 --   588 h    0.854   587 h    0.828
   587   1 h    0.891 --   586 o    0.828
   588   1 h    0.893 --   586 o    0.854
   589   8 o    1.814 --   591 h    0.874   590 h    0.816
   590   1 h    0.882 --   589 o    0.816
   591   1 h    0.902 --   589 o    0.874
   592   8 o    1.859 --   594 h    0.849   593 h    0.839
   593   1 h    0.893 --   592 o    0.839
   594   1 h    0.896 --   592 o    0.849
   595   8 o    1.826 --   596 h    0.869   597 h    0.829
   596   1 h    0.897 --   595 o    0.869
   597   1 h    0.884 --   595 o    0.829
   598   8 o    1.851 --   599 h    0.825   600 h    0.811
   599   1 h    0.888 --   598 o    0.825
   600   1 h    0.879 --   598 o    0.811
   601   8 o    1.803 --   602 h    0.840   603 h    0.836
   602   1 h    0.894 --   601 o    0.840
   603   1 h    0.893 --   601 o    0.836
   604   8 o    1.843 --   606 h    0.866   605 h    0.813
   605   1 h    0.888 --   604 o    0.813
   606   1 h    0.899 --   604 o    0.866
   607   8 o    1.866 --   608 h    0.849   609 h    0.822
   608   1 h    0.890 --   607 o    0.849
   609   1 h    0.882 --   607 o    0.822
   610   8 o    1.838 --   611 h    0.868   612 h    0.857
   611   1 h    0.892 --   610 o    0.868
   612   1 h    0.892 --   610 o    0.857
   613   8 o    1.810 --   615 h    0.906   614 h    0.821
   614   1 h    0.887 --   613 o    0.821
   615   1 h    0.917 --   613 o    0.906
   616   8 o    1.827 --   617 h    0.873   618 h    0.841
   617   1 h    0.900 --   616 o    0.873
   618   1 h    0.894 --   616 o    0.841
   619   8 o    1.811 --   621 h    0.834   620 h    0.818
   620   1 h    0.885 --   619 o    0.818
   621   1 h    0.894 --   619 o    0.834
   622   8 o    1.861 --   624 h    0.865   623 h    0.843
   623   1 h    0.895 --   622 o    0.843
   624   1 h    0.896 --   622 o    0.865
   625   8 o    1.851 --   627 h    0.898   626 h    0.787
   626   1 h    0.877 --   625 o    0.787
   627   1 h    0.909 --   625 o    0.898
   628   8 o    1.845 --   629 h    0.813   630 h    0.810
   629   1 h    0.888 --   628 o    0.813
   630   1 h    0.883 --   628 o    0.810
   631   8 o    1.855 --   632 h    0.823   633 h    0.811
   632   1 h    0.877 --   631 o    0.823
   633   1 h    0.882 --   631 o    0.811
   634   8 o    1.821 --   635 h    0.861   636 h    0.849
   635   1 h    0.904 --   634 o    0.861
   636   1 h    0.893 --   634 o    0.849
   637   8 o    1.840 --   638 h    0.824   639 h    0.795
   638   1 h    0.885 --   637 o    0.824
   639   1 h    0.884 --   637 o    0.795
   640   8 o    1.822 --   642 h    0.862   641 h    0.824
   641   1 h    0.890 --   640 o    0.824
   642   1 h    0.901 --   640 o    0.862
   643   8 o    1.840 --   645 h    0.877   644 h    0.828
   644   1 h    0.879 --   643 o    0.828
   645   1 h    0.902 --   643 o    0.877
   646   8 o    1.839 --   648 h    0.820   647 h    0.818
   647   1 h    0.884 --   646 o    0.818
   648   1 h    0.878 --   646 o    0.820
   649   8 o    1.854 --   650 h    0.865   651 h    0.845
   650   1 h    0.893 --   649 o    0.865
   651   1 h    0.886 --   649 o    0.845
   652   8 o    1.840 --   654 h    0.886   653 h    0.799
   653   1 h    0.877 --   652 o    0.799
   654   1 h    0.904 --   652 o    0.886
   655   8 o    1.866 --   657 h    0.856   656 h    0.824
   656   1 h    0.881 --   655 o    0.824
   657   1 h    0.896 --   655 o    0.856
   658   8 o    1.840 --   659 h    0.837   660 h    0.808
   659   1 h    0.892 --   658 o    0.837
   660   1 h    0.875 --   658 o    0.808
   661   8 o    1.826 --   662 h    0.871   663 h    0.800
   662   1 h    0.899 --   661 o    0.871
   663   1 h    0.881 --   661 o    0.800
   664   8 o    1.805 --   666 h    0.828   665 h    0.820
   665   1 h    0.885 --   664 o    0.820
   666   1 h    0.887 --   664 o    0.828
   667   8 o    1.849 --   669 h    0.887   668 h    0.836
   668   1 h    0.891 --   667 o    0.836
   669   1 h    0.901 --   667 o    0.887
   670   8 o    1.857 --   671 h    0.877   672 h    0.840
   671   1 h    0.897 --   670 o    0.877
   672   1 h    0.885 --   670 o    0.840
   673   8 o    1.813 --   674 h    0.835   675 h    0.811
   674   1 h    0.888 --   673 o    0.835
   675   1 h    0.882 --   673 o    0.811
   676   8 o    1.888 --   678 h    0.816   677 h    0.787
   677   1 h    0.867 --   676 o    0.787
   678   1 h    0.889 --   676 o    0.816
   679   8 o    1.844 --   681 h    0.832   680 h    0.832
   680   1 h    0.890 --   679 o    0.832
   681   1 h    0.886 --   679 o    0.832
   682   8 o    1.852 --   684 h    0.857   683 h    0.855
   683   1 h    0.891 --   682 o    0.855
   684   1 h    0.889 --   682 o    0.857
   685   8 o    1.863 --   687 h    0.869   686 h    0.829
   686   1 h    0.878 --   685 o    0.829
   687   1 h    0.894 --   685 o    0.869
   688   8 o    1.868 --   690 h    0.813   689 h    0.796
   689   1 h    0.874 --   688 o    0.796
   690   1 h    0.891 --   688 o    0.813
   691   8 o    1.859 --   693 h    0.887   692 h    0.812
   692   1 h    0.876 --   691 o    0.812
   693   1 h    0.902 --   691 o    0.887
   694   8 o    1.869 --   696 h    0.819   695 h    0.808
   695   1 h    0.883 --   694 o    0.808
   696   1 h    0.881 --   694 o    0.819
   697   8 o    1.842 --   699 h    0.898   698 h    0.838
   698   1 h    0.886 --   697 o    0.838
   699   1 h    0.909 --   697 o    0.898
   700   8 o    1.854 --   701 h    0.873   702 h    0.829
   701   1 h    0.894 --   700 o    0.873
   702   1 h    0.886 --   700 o    0.829
   703   8 o    1.855 --   705 h    0.862   704 h    0.835
   704   1 h    0.884 --   703 o    0.835
   705   1 h    0.891 --   703 o    0.862
   706   8 o    1.829 --   707 h    0.907   708 h    0.797
   707   1 h    0.914 --   706 o    0.907
   708   1 h    0.875 --   706 o    0.797
   709   8 o    1.832 --   710 h    0.874   711 h    0.842
   710   1 h    0.899 --   709 o    0.874
   711   1 h    0.893 --   709 o    0.842
   712   8 o    1.891 --   713 h    0.806   714 h    0.772   411 h    0.102
   713   1 h    0.881 --   712 o    0.806
   714   1 h    0.870 --   712 o    0.772
   715   8 o    1.843 --   717 h    0.839   716 h    0.803
   716   1 h    0.876 --   715 o    0.803
   717   1 h    0.885 --   715 o    0.839
   718   8 o    1.816 --   719 h    0.878   720 h    0.847
   719   1 h    0.905 --   718 o    0.878
   720   1 h    0.890 --   718 o    0.847
   721   8 o    1.843 --   723 h    0.863   722 h    0.861
   722   1 h    0.893 --   721 o    0.861
   723   1 h    0.893 --   721 o    0.863
   724   8 o    1.878 --   725 h    0.840   726 h    0.822
   725   1 h    0.886 --   724 o    0.840
   726   1 h    0.879 --   724 o    0.822
   727   8 o    1.866 --   729 h    0.842   728 h    0.831
   728   1 h    0.887 --   727 o    0.831
   729   1 h    0.894 --   727 o    0.842
   730   8 o    1.847 --   731 h    0.916   732 h    0.804
   731   1 h    0.921 --   730 o    0.916
   732   1 h    0.883 --   730 o    0.804
   733   8 o    1.837 --   735 h    0.900   734 h    0.785
   734   1 h    0.873 --   733 o    0.785
   735   1 h    0.910 --   733 o    0.900
   736   8 o    1.833 --   738 h    0.906   737 h    0.808
   737   1 h    0.886 --   736 o    0.808
   738   1 h    0.913 --   736 o    0.906
   739   8 o    1.873 --   740 h    0.841   741 h    0.803
   740   1 h    0.894 --   739 o    0.841
   741   1 h    0.880 --   739 o    0.803
   742   8 o    1.874 --   743 h    0.846   744 h    0.842
   743   1 h    0.891 --   742 o    0.846
   744   1 h    0.888 --   742 o    0.842
   745   8 o    1.870 --   747 h    0.872   746 h    0.814
   746   1 h    0.877 --   745 o    0.814
   747   1 h    0.893 --   745 o    0.872
   748   8 o    1.819 --   750 h    0.876   749 h    0.859
   749   1 h    0.893 --   748 o    0.859
   750   1 h    0.901 --   748 o    0.876
   751   8 o    1.789 --   753 h    0.889   752 h    0.831
   752   1 h    0.885 --   751 o    0.831
   753   1 h    0.904 --   751 o    0.889
   754   8 o    1.872 --   755 h    0.862   756 h    0.852
   755   1 h    0.886 --   754 o    0.862
   756   1 h    0.876 --   754 o    0.852
 ---------------------------------------------------------------------------

Topologies differ in total number of bonds
Writing topology from bond orders to xtbtopo.mol

molecular dipole:
                 x           y           z       tot (Debye)
 q only:       -2.706       3.446      -4.390
   full:       -3.594       4.119      -5.307      19.364
molecular quadrupole (traceless):
                xx          xy          yy          xz          yz          zz
 q only:       96.902     -58.117      13.761       8.619     -41.507    -110.662
  q+dip:      126.276     -83.906      19.609       4.760     -47.710    -145.886
   full:      128.514     -83.598      17.557       2.919     -47.490    -146.070


           -------------------------------------------------
          | TOTAL ENERGY            -1283.351573427114 Eh   |
          | GRADIENT NORM               0.034657967282 Eh/α |
          | HOMO-LUMO GAP               7.833120382013 eV   |
           -------------------------------------------------

------------------------------------------------------------------------
 * finished run on 2022/11/24 at 09:29:07.705     
------------------------------------------------------------------------
 total:
 * wall-time:     0 d,  0 h,  0 min, 57.629 sec
 *  cpu-time:     0 d,  0 h,  1 min, 13.606 sec
 * ratio c/w:     1.277 speedup
 SCF:
 * wall-time:     0 d,  0 h,  0 min, 56.536 sec
 *  cpu-time:     0 d,  0 h,  1 min, 11.810 sec
 * ratio c/w:     1.270 speedup

