      -----------------------------------------------------------      
     |                   =====================                   |     
     |                           x T B                           |     
     |                   =====================                   |     
     |                         S. Grimme                         |     
     |          Mulliken Center for Theoretical Chemistry        |     
     |                    University of Bonn                     |     
      -----------------------------------------------------------      

   * xtb version 6.5.1 (579679a) compiled by 'ehlert@majestix' on 2022-07-11

   xtb is free software: you can redistribute it and/or modify it under
   the terms of the GNU Lesser General Public License as published by
   the Free Software Foundation, either version 3 of the License, or
   (at your option) any later version.
   
   xtb is distributed in the hope that it will be useful,
   but WITHOUT ANY WARRANTY; without even the implied warranty of
   MERCHANTABILITY or FITNESS FOR A PARTICULAR PURPOSE.  See the
   GNU Lesser General Public License for more details.
   
   Cite this work as:
   * C. Bannwarth, E. Caldeweyher, S. Ehlert, A. Hansen, P. Pracht,
     J. Seibert, S. Spicher, S. Grimme, WIREs Comput. Mol. Sci., 2020, 11,
     e01493. DOI: 10.1002/wcms.1493
   
   for GFN2-xTB:
   * C. Bannwarth, S. Ehlert and S. Grimme., J. Chem. Theory Comput., 2019,
     15, 1652-1671. DOI: 10.1021/acs.jctc.8b01176
   for GFN1-xTB:
   * S. Grimme, C. Bannwarth, P. Shushkov, J. Chem. Theory Comput., 2017,
     13, 1989-2009. DOI: 10.1021/acs.jctc.7b00118
   for GFN0-xTB:
   * P. Pracht, E. Caldeweyher, S. Ehlert, S. Grimme, ChemRxiv, 2019, preprint.
     DOI: 10.26434/chemrxiv.8326202.v1
   for GFN-FF:
   * S. Spicher and S. Grimme, Angew. Chem. Int. Ed., 2020, 59, 15665-15673.
     DOI: 10.1002/anie.202004239
   
   for ALPB and GBSA implicit solvation:
   * S. Ehlert, M. Stahn, S. Spicher, S. Grimme, J. Chem. Theory Comput.,
     2021, 17, 4250-4261. DOI: 10.1021/acs.jctc.1c00471
   
   for DFT-D4:
   * E. Caldeweyher, C. Bannwarth and S. Grimme, J. Chem. Phys., 2017,
     147, 034112. DOI: 10.1063/1.4993215
   * E. Caldeweyher, S. Ehlert, A. Hansen, H. Neugebauer, S. Spicher,
     C. Bannwarth and S. Grimme, J. Chem. Phys., 2019, 150, 154122.
     DOI: 10.1063/1.5090222
   * E. Caldeweyher, J.-M. Mewes, S. Ehlert and S. Grimme, Phys. Chem. Chem. Phys.
     2020, 22, 8499-8512. DOI: 10.1039/D0CP00502A
   
   for sTDA-xTB:
   * S. Grimme and C. Bannwarth, J. Chem. Phys., 2016, 145, 054103.
     DOI: 10.1063/1.4959605
   
   in the mass-spec context:
   * V. Asgeirsson, C. Bauer and S. Grimme, Chem. Sci., 2017, 8, 4879.
     DOI: 10.1039/c7sc00601b
   * J. Koopman and S. Grimme, ACS Omega 2019, 4, 12, 15120-15133.
     DOI: 10.1021/acsomega.9b02011
   
   for metadynamics refer to:
   * S. Grimme, J. Chem. Theory Comput., 2019, 155, 2847-2862
     DOI: 10.1021/acs.jctc.9b00143
   
   for SPH calculations refer to:
   * S. Spicher and S. Grimme, J. Chem. Theory Comput., 2021, 17, 1701-1714
     DOI: 10.1021/acs.jctc.0c01306
   
   with help from (in alphabetical order)
   P. Atkinson, C. Bannwarth, F. Bohle, G. Brandenburg, E. Caldeweyher
   M. Checinski, S. Dohm, S. Ehlert, S. Ehrlich, I. Gerasimov, C. Hölzer
   A. Katbashev, J. Koopman, C. Lavigne, S. Lehtola, F. März, M. Müller,
   F. Musil, H. Neugebauer, J. Pisarek, C. Plett, P. Pracht, F. Pultar,
   J. Seibert, P. Shushkov, S. Spicher, M. Stahn, M. Steiner, T. Strunk,
   J. Stückrath, T. Rose, and J. Unsleber
   
 * started run on 2022/11/24 at 09:27:46.529     

           -------------------------------------------------
          |                Calculation Setup                |
           -------------------------------------------------

          program call               : xtb xtbopt.coord --gfn2 --sp --gbsa water
          hostname                   : cn0341
          coordinate file            : xtbopt.coord
          omp threads                :                     2

   ID    Z sym.   atoms
    1    8 o      1, 4, 7, 10, 13, 16, 19, 22, 25, 28, 31, 34, 37, 40, 43,
                  46, 49, 52, 55, 58, 61, 64, 67, 70, 73, 76, 79, 82, 85, 88,
                  91, 94, 97, 100, 103, 106, 109, 112, 115, 118, 121, 124,
                  127, 130, 133, 136, 139, 142, 145, 148, 151, 154, 157, 160,
                  163, 166, 169, 172, 175, 178, 181, 184, 187, 190, 193, 196,
                  199, 202, 205, 208, 211, 214, 217, 220, 223, 226, 229, 232,
                  235, 238, 241, 244, 247, 250, 253, 256, 259, 262, 265, 268,
                  271, 274, 277, 280, 283, 286, 289, 292, 295, 298, 301, 304,
                  307, 310, 313, 316, 319, 322, 325, 328, 331, 334, 337, 340,
                  343, 346, 349, 352, 355, 358, 361, 364, 367, 370, 373, 376,
                  379, 382, 385, 388, 391, 394, 397, 400, 403, 406, 409, 412,
                  415, 418, 421, 424, 427, 430, 433, 436, 439, 442, 445, 448,
                  451, 454, 457, 460, 463, 466, 469, 472, 475, 478, 481, 484,
                  487, 490, 493, 496, 499, 502, 505, 508, 511, 514, 517, 520,
                  523, 526, 529, 532, 535, 538, 541, 544, 547, 550, 553, 556,
                  559, 562, 565, 568, 571, 574, 577, 580, 583, 586, 589, 592,
                  595, 598, 601, 604, 607, 610, 613, 616, 619, 622, 625, 628,
                  631, 634, 637, 640, 643, 646, 649, 652, 655, 658, 661, 664,
                  667, 670, 673, 676, 679, 682, 685, 688, 691, 694, 697, 700,
                  703, 706, 709, 712, 715, 718, 721, 724, 727, 730, 733, 736,
                  739, 742, 745, 748, 751, 754
    2    1 h      2, 3, 5, 6, 8, 9, 11, 12, 14, 15, 17, 18, 20, 21, 23, 24,
                  26, 27, 29, 30, 32, 33, 35, 36, 38, 39, 41, 42, 44, 45, 47,
                  48, 50, 51, 53, 54, 56, 57, 59, 60, 62, 63, 65, 66, 68, 69,
                  71, 72, 74, 75, 77, 78, 80, 81, 83, 84, 86, 87, 89, 90, 92,
                  93, 95, 96, 98, 99, 101, 102, 104, 105, 107, 108, 110, 111,
                  113, 114, 116, 117, 119, 120, 122, 123, 125, 126, 128, 129,
                  131, 132, 134, 135, 137, 138, 140, 141, 143, 144, 146, 147,
                  149, 150, 152, 153, 155, 156, 158, 159, 161, 162, 164, 165,
                  167, 168, 170, 171, 173, 174, 176, 177, 179, 180, 182, 183,
                  185, 186, 188, 189, 191, 192, 194, 195, 197, 198, 200, 201,
                  203, 204, 206, 207, 209, 210, 212, 213, 215, 216, 218, 219,
                  221, 222, 224, 225, 227, 228, 230, 231, 233, 234, 236, 237,
                  239, 240, 242, 243, 245, 246, 248, 249, 251, 252, 254, 255,
                  257, 258, 260, 261, 263, 264, 266, 267, 269, 270, 272, 273,
                  275, 276, 278, 279, 281, 282, 284, 285, 287, 288, 290, 291,
                  293, 294, 296, 297, 299, 300, 302, 303, 305, 306, 308, 309,
                  311, 312, 314, 315, 317, 318, 320, 321, 323, 324, 326, 327,
                  329, 330, 332, 333, 335, 336, 338, 339, 341, 342, 344, 345,
                  347, 348, 350, 351, 353, 354, 356, 357, 359, 360, 362, 363,
                  365, 366, 368, 369, 371, 372, 374, 375, 377, 378, 380, 381,
                  383, 384, 386, 387, 389, 390, 392, 393, 395, 396, 398, 399,
                  401, 402, 404, 405, 407, 408, 410, 411, 413, 414, 416, 417,
                  419, 420, 422, 423, 425, 426, 428, 429, 431, 432, 434, 435,
                  437, 438, 440, 441, 443, 444, 446, 447, 449, 450, 452, 453,
                  455, 456, 458, 459, 461, 462, 464, 465, 467, 468, 470, 471,
                  473, 474, 476, 477, 479, 480, 482, 483, 485, 486, 488, 489,
                  491, 492, 494, 495, 497, 498, 500, 501, 503, 504, 506, 507,
                  509, 510, 512, 513, 515, 516, 518, 519, 521, 522, 524, 525,
                  527, 528, 530, 531, 533, 534, 536, 537, 539, 540, 542, 543,
                  545, 546, 548, 549, 551, 552, 554, 555, 557, 558, 560, 561,
                  563, 564, 566, 567, 569, 570, 572, 573, 575, 576, 578, 579,
                  581, 582, 584, 585, 587, 588, 590, 591, 593, 594, 596, 597,
                  599, 600, 602, 603, 605, 606, 608, 609, 611, 612, 614, 615,
                  617, 618, 620, 621, 623, 624, 626, 627, 629, 630, 632, 633,
                  635, 636, 638, 639, 641, 642, 644, 645, 647, 648, 650, 651,
                  653, 654, 656, 657, 659, 660, 662, 663, 665, 666, 668, 669,
                  671, 672, 674, 675, 677, 678, 680, 681, 683, 684, 686, 687,
                  689, 690, 692, 693, 695, 696, 698, 699, 701, 702, 704, 705,
                  707, 708, 710, 711, 713, 714, 716, 717, 719, 720, 722, 723,
                  725, 726, 728, 729, 731, 732, 734, 735, 737, 738, 740, 741,
                  743, 744, 746, 747, 749, 750, 752, 753, 755, 756

molecular fragmentation (1/2 indicates fragments):
111222222222222222222222222222222222222222222222222222222222222222222222
222222222222222222222222222222222222222222222222222222222222222222222222
222222222222222222222222222222222222222222222222222222222222222222222222
222222222222222222222222222222222222222222222222222222222222222222222222
222222222222222222222222222222222222222222222222222222222222222222222222
222222222222222222222222222222222222222222222222222222222222222222222222
222222222222222222222222222222222222222222222222222222222222222222222222
222222222222222222222222222222222222222222222222222222222222222222222222
222222222222222222222222222222222222222222222222222222222222222222222222
222222222222222222222222222222222222222222222222222222222222222222222222
222222222222222222222222222222222222
# atoms in fragment 1/2:     3   753
 fragment masses (1/2) :       18.02     4521.84
CMA distance (Bohr)    :  16.339
constraining FC (au)   :  0.0500

           -------------------------------------------------
          |                 G F N 2 - x T B                 |
           -------------------------------------------------

        Reference                      10.1021/acs.jctc.8b01176
      * Hamiltonian:
        H0-scaling (s, p, d)           1.850000    2.230000    2.230000
        zeta-weighting                 0.500000
      * Dispersion:
        s8                             2.700000
        a1                             0.520000
        a2                             5.000000
        s9                             5.000000
      * Repulsion:
        kExp                           1.500000    1.000000
        rExp                           1.000000
      * Coulomb:
        alpha                          2.000000
        third order                    shell-resolved
        anisotropic                    true
        a3                             3.000000
        a5                             4.000000
        cn-shift                       1.200000
        cn-exp                         4.000000
        max-rad                        5.000000

      * Solvation model:               GBSA
        Solvent                        water
        Parameter file                 internal GFN2-xTB/GBSA
        Dielectric constant                8.0200E+01
        Reference state                gsolv [1 M gas/solution]
        Free energy shift                  1.8574E-03 Eh       1.1656E+00 kcal/mol
        Temperature                        2.9815E+02 K
        Density                            1.0000E+00 kg/L
        Solvent mass                       1.8000E+01 g/mol
        Interaction kernel             Still
        Born radius scaling (c1)           1.5524E+00
        Born radii integrator          GBOBC
        Born offset                        2.4628E-02 a0       4.6540E-02 AA
        H-bond correction              true
        Ion screening                  false
        Surface tension                    1.0000E-05 Eh       1.5569E+01 dyn/cm
        Grid points                               230 per atom

          ...................................................
          :                      SETUP                      :
          :.................................................:
          :  # basis functions                1512          :
          :  # atomic orbitals                1512          :
          :  # shells                         1008          :
          :  # electrons                      2016          :
          :  max. iterations                   250          :
          :  Hamiltonian                  GFN2-xTB          :
          :  restarted?                      false          :
          :  GBSA solvation                   true          :
          :  PC potential                    false          :
          :  electronic temp.          300.0000000     K    :
          :  accuracy                    1.0000000          :
          :  -> integral cutoff          0.2500000E+02      :
          :  -> integral neglect         0.1000000E-07      :
          :  -> SCF convergence          0.1000000E-05 Eh   :
          :  -> wf. convergence          0.1000000E-03 e    :
          :  Broyden damping             0.4000000          :
          ...................................................

 iter      E             dE          RMSdq      gap      omega  full diag
   1  -1291.2888328 -0.129129E+04  0.408E+00    8.34       0.0  T
   2  -1291.3731721 -0.843392E-01  0.242E+00    8.20       1.0  T
   3  -1291.4091035 -0.359314E-01  0.226E-01    7.61       1.0  T
   4  -1291.4146084 -0.550494E-02  0.482E-02    7.77       1.0  T
   5  -1291.4147622 -0.153759E-03  0.309E-02    7.73       1.0  T
   6  -1291.4148108 -0.486358E-04  0.395E-03    7.72       1.0  T
   7  -1291.4148127 -0.182877E-05  0.926E-04    7.72       3.9  T
   8  -1291.4148128 -0.108272E-06  0.453E-04    7.72       8.0  T
   9  -1291.4148128 -0.346186E-07  0.133E-04    7.72      27.4  T

   *** convergence criteria satisfied after 9 iterations ***

         #    Occupation            Energy/Eh            Energy/eV
      -------------------------------------------------------------
         1        2.0000           -0.6571762             -17.8827
       ...           ...                  ...                  ...
      1002        2.0000           -0.3547537              -9.6533
      1003        2.0000           -0.3538667              -9.6292
      1004        2.0000           -0.3522732              -9.5858
      1005        2.0000           -0.3518365              -9.5740
      1006        2.0000           -0.3504056              -9.5350
      1007        2.0000           -0.3496478              -9.5144
      1008        2.0000           -0.3420403              -9.3074 (HOMO)
      1009                         -0.0584708              -1.5911 (LUMO)
      1010                         -0.0507276              -1.3804
      1011                         -0.0395444              -1.0761
      1012                         -0.0350223              -0.9530
      1013                         -0.0328421              -0.8937
       ...                                ...                  ...
      1512                          0.4870458              13.2532
      -------------------------------------------------------------
                  HL-Gap            0.2835695 Eh            7.7163 eV
             Fermi-level           -0.2002555 Eh           -5.4492 eV

 SCC (total)                   0 d,  0 h,  0 min, 20.043 sec
 SCC setup                      ...        0 min,  0.117 sec (  0.583%)
 Dispersion                     ...        0 min,  0.109 sec (  0.546%)
 classical contributions        ...        0 min,  0.023 sec (  0.116%)
 integral evaluation            ...        0 min,  0.604 sec (  3.014%)
 iterations                     ...        0 min,  6.707 sec ( 33.463%)
 molecular gradient             ...        0 min, 12.418 sec ( 61.958%)
 printout                       ...        0 min,  0.064 sec (  0.319%)

         :::::::::::::::::::::::::::::::::::::::::::::::::::::
         ::                     SUMMARY                     ::
         :::::::::::::::::::::::::::::::::::::::::::::::::::::
         :: total energy           -1283.614345222107 Eh    ::
         :: total w/o Gsasa/hb     -1283.390923058538 Eh    ::
         :: gradient norm              0.102279836716 Eh/a0 ::
         :: HOMO-LUMO gap              7.716319606882 eV    ::
         ::.................................................::
         :: SCC energy             -1291.414812795337 Eh    ::
         :: -> isotropic ES            7.356673897635 Eh    ::
         :: -> anisotropic ES         -1.655730640370 Eh    ::
         :: -> anisotropic XC         -0.119525700968 Eh    ::
         :: -> dispersion             -0.794626234505 Eh    ::
         :: -> Gsolv                  -0.286147960920 Eh    ::
         ::    -> Gelec               -0.062725797351 Eh    ::
         ::    -> Gsasa                0.008105362881 Eh    ::
         ::    -> Ghb                 -0.233384969577 Eh    ::
         ::    -> Gshift               0.001857443127 Eh    ::
         :: repulsion energy           7.642808408790 Eh    ::
         :: add. restraining           0.000000000000 Eh    ::
         :: total charge               0.000000000000 e     ::
         :::::::::::::::::::::::::::::::::::::::::::::::::::::

           -------------------------------------------------
          |                Property Printout                |
           -------------------------------------------------

    * Orbital Energies and Occupations

         #    Occupation            Energy/Eh            Energy/eV
      -------------------------------------------------------------
         1        2.0000           -0.6571762             -17.8827
       ...           ...                  ...                  ...
       996        2.0000           -0.3588975              -9.7661
       997        2.0000           -0.3586745              -9.7600
       998        2.0000           -0.3582303              -9.7479
       999        2.0000           -0.3578517              -9.7376
      1000        2.0000           -0.3565329              -9.7018
      1001        2.0000           -0.3561080              -9.6902
      1002        2.0000           -0.3547537              -9.6533
      1003        2.0000           -0.3538667              -9.6292
      1004        2.0000           -0.3522732              -9.5858
      1005        2.0000           -0.3518365              -9.5740
      1006        2.0000           -0.3504056              -9.5350
      1007        2.0000           -0.3496478              -9.5144
      1008        2.0000           -0.3420403              -9.3074 (HOMO)
      1009                         -0.0584708              -1.5911 (LUMO)
      1010                         -0.0507276              -1.3804
      1011                         -0.0395444              -1.0761
      1012                         -0.0350223              -0.9530
      1013                         -0.0328421              -0.8937
      1014                         -0.0257733              -0.7013
      1015                         -0.0186764              -0.5082
      1016                         -0.0152529              -0.4151
      1017                         -0.0107025              -0.2912
      1018                         -0.0058878              -0.1602
      1019                         -0.0050987              -0.1387
       ...                                ...                  ...
      1512                          0.4870458              13.2532
      -------------------------------------------------------------
                  HL-Gap            0.2835695 Eh            7.7163 eV
             Fermi-level           -0.2002555 Eh           -5.4492 eV

     #   Z          covCN         q      C6AA      α(0)
     1   8 o        1.609    -0.669    26.893     6.999
     2   1 h        0.805     0.335     0.624     1.241
     3   1 h        0.805     0.331     0.634     1.251
     4   8 o        1.608    -0.692    27.506     7.078
     5   1 h        0.803     0.363     0.559     1.175
     6   1 h        0.804     0.350     0.587     1.204
     7   8 o        1.607    -0.690    27.437     7.070
     8   1 h        0.804     0.356     0.573     1.189
     9   1 h        0.803     0.352     0.584     1.201
    10   8 o        1.606    -0.705    27.839     7.121
    11   1 h        0.804     0.344     0.603     1.220
    12   1 h        0.804     0.350     0.588     1.204
    13   8 o        1.610    -0.670    26.930     7.004
    14   1 h        0.804     0.342     0.608     1.225
    15   1 h        0.805     0.337     0.620     1.237
    16   8 o        1.604    -0.701    27.730     7.107
    17   1 h        0.803     0.337     0.619     1.236
    18   1 h        0.803     0.378     0.527     1.141
    19   8 o        1.608    -0.689    27.429     7.068
    20   1 h        0.805     0.328     0.642     1.258
    21   1 h        0.803     0.350     0.589     1.205
    22   8 o        1.608    -0.680    27.190     7.038
    23   1 h        0.805     0.328     0.642     1.258
    24   1 h        0.803     0.353     0.581     1.198
    25   8 o        1.606    -0.701    27.732     7.107
    26   1 h        0.803     0.350     0.588     1.205
    27   1 h        0.803     0.360     0.566     1.182
    28   8 o        1.608    -0.679    27.151     7.033
    29   1 h        0.804     0.347     0.595     1.212
    30   1 h        0.804     0.349     0.591     1.208
    31   8 o        1.607    -0.705    27.850     7.122
    32   1 h        0.804     0.341     0.609     1.226
    33   1 h        0.803     0.362     0.561     1.176
    34   8 o        1.608    -0.692    27.501     7.078
    35   1 h        0.805     0.340     0.613     1.230
    36   1 h        0.803     0.351     0.585     1.202
    37   8 o        1.608    -0.671    26.962     7.008
    38   1 h        0.803     0.368     0.548     1.163
    39   1 h        0.805     0.317     0.673     1.289
    40   8 o        1.607    -0.704    27.814     7.118
    41   1 h        0.803     0.353     0.581     1.197
    42   1 h        0.804     0.344     0.602     1.219
    43   8 o        1.609    -0.687    27.367     7.061
    44   1 h        0.804     0.338     0.617     1.234
    45   1 h        0.805     0.331     0.635     1.252
    46   8 o        1.606    -0.706    27.869     7.125
    47   1 h        0.803     0.331     0.635     1.252
    48   1 h        0.802     0.331     0.636     1.253
    49   8 o        1.607    -0.680    27.196     7.038
    50   1 h        0.803     0.353     0.581     1.198
    51   1 h        0.804     0.357     0.573     1.189
    52   8 o        1.606    -0.673    27.002     7.013
    53   1 h        0.803     0.327     0.645     1.261
    54   1 h        0.803     0.358     0.569     1.185
    55   8 o        1.608    -0.673    26.993     7.012
    56   1 h        0.803     0.352     0.583     1.200
    57   1 h        0.805     0.354     0.578     1.194
    58   8 o        1.608    -0.679    27.160     7.034
    59   1 h        0.804     0.339     0.616     1.233
    60   1 h        0.804     0.342     0.608     1.225
    61   8 o        1.608    -0.680    27.197     7.039
    62   1 h        0.804     0.353     0.580     1.197
    63   1 h        0.803     0.336     0.622     1.239
    64   8 o        1.608    -0.686    27.348     7.058
    65   1 h        0.805     0.348     0.593     1.210
    66   1 h        0.803     0.364     0.556     1.172
    67   8 o        1.611    -0.687    27.355     7.059
    68   1 h        0.805     0.344     0.602     1.219
    69   1 h        0.804     0.352     0.583     1.199
    70   8 o        1.602    -0.701    27.740     7.108
    71   1 h        0.804     0.347     0.595     1.212
    72   1 h        0.799     0.357     0.574     1.190
    73   8 o        1.609    -0.674    27.036     7.018
    74   1 h        0.805     0.331     0.634     1.251
    75   1 h        0.805     0.346     0.598     1.214
    76   8 o        1.607    -0.695    27.569     7.086
    77   1 h        0.803     0.353     0.582     1.199
    78   1 h        0.803     0.355     0.576     1.193
    79   8 o        1.606    -0.707    27.894     7.128
    80   1 h        0.803     0.325     0.651     1.267
    81   1 h        0.803     0.357     0.572     1.188
    82   8 o        1.608    -0.692    27.500     7.078
    83   1 h        0.804     0.347     0.595     1.212
    84   1 h        0.803     0.360     0.566     1.182
    85   8 o        1.607    -0.668    26.883     6.998
    86   1 h        0.804     0.330     0.637     1.254
    87   1 h        0.803     0.354     0.579     1.196
    88   8 o        1.608    -0.678    27.142     7.031
    89   1 h        0.804     0.346     0.597     1.213
    90   1 h        0.804     0.346     0.597     1.214
    91   8 o        1.603    -0.714    28.085     7.152
    92   1 h        0.802     0.336     0.622     1.239
    93   1 h        0.802     0.347     0.597     1.213
    94   8 o        1.607    -0.688    27.390     7.063
    95   1 h        0.803     0.353     0.582     1.199
    96   1 h        0.804     0.345     0.600     1.217
    97   8 o        1.608    -0.680    27.185     7.037
    98   1 h        0.804     0.333     0.630     1.247
    99   1 h        0.804     0.342     0.607     1.224
   100   8 o        1.609    -0.655    26.544     6.954
   101   1 h        0.804     0.356     0.574     1.190
   102   1 h        0.805     0.336     0.622     1.239
   103   8 o        1.609    -0.673    27.014     7.015
   104   1 h        0.805     0.346     0.598     1.215
   105   1 h        0.804     0.359     0.569     1.184
   106   8 o        1.606    -0.692    27.494     7.077
   107   1 h        0.803     0.324     0.653     1.269
   108   1 h        0.803     0.358     0.569     1.185
   109   8 o        1.608    -0.692    27.509     7.079
   110   1 h        0.804     0.346     0.597     1.213
   111   1 h        0.804     0.345     0.600     1.216
   112   8 o        1.607    -0.692    27.492     7.077
   113   1 h        0.804     0.350     0.588     1.204
   114   1 h        0.803     0.344     0.602     1.219
   115   8 o        1.607    -0.697    27.634     7.095
   116   1 h        0.804     0.353     0.581     1.197
   117   1 h        0.804     0.344     0.602     1.219
   118   8 o        1.609    -0.681    27.206     7.040
   119   1 h        0.804     0.357     0.572     1.188
   120   1 h        0.803     0.364     0.558     1.173
   121   8 o        1.608    -0.684    27.289     7.050
   122   1 h        0.803     0.374     0.536     1.150
   123   1 h        0.804     0.336     0.623     1.240
   124   8 o        1.609    -0.685    27.313     7.054
   125   1 h        0.805     0.329     0.641     1.257
   126   1 h        0.804     0.366     0.552     1.167
   127   8 o        1.609    -0.678    27.138     7.031
   128   1 h        0.804     0.324     0.653     1.269
   129   1 h        0.805     0.335     0.624     1.241
   130   8 o        1.607    -0.667    26.844     6.993
   131   1 h        0.805     0.327     0.646     1.262
   132   1 h        0.802     0.335     0.626     1.243
   133   8 o        1.609    -0.671    26.946     7.006
   134   1 h        0.804     0.339     0.616     1.233
   135   1 h        0.804     0.336     0.621     1.238
   136   8 o        1.604    -0.720    28.258     7.174
   137   1 h        0.803     0.340     0.612     1.229
   138   1 h        0.802     0.371     0.542     1.156
   139   8 o        1.613    -0.685    27.301     7.052
   140   1 h        0.804     0.341     0.609     1.226
   141   1 h        0.804     0.358     0.570     1.186
   142   8 o        1.606    -0.678    27.143     7.031
   143   1 h        0.804     0.322     0.659     1.276
   144   1 h        0.803     0.356     0.574     1.190
   145   8 o        1.607    -0.664    26.775     6.984
   146   1 h        0.803     0.363     0.560     1.175
   147   1 h        0.805     0.313     0.683     1.298
   148   8 o        1.607    -0.671    26.953     7.007
   149   1 h        0.802     0.370     0.544     1.159
   150   1 h        0.805     0.326     0.648     1.264
   151   8 o        1.605    -0.702    27.766     7.112
   152   1 h        0.803     0.349     0.590     1.207
   153   1 h        0.803     0.343     0.606     1.223
   154   8 o        1.606    -0.699    27.678     7.100
   155   1 h        0.804     0.349     0.590     1.206
   156   1 h        0.802     0.357     0.572     1.188
   157   8 o        1.610    -0.660    26.662     6.969
   158   1 h        0.805     0.336     0.623     1.239
   159   1 h        0.805     0.330     0.637     1.254
   160   8 o        1.608    -0.699    27.676     7.100
   161   1 h        0.803     0.354     0.579     1.195
   162   1 h        0.804     0.347     0.595     1.212
   163   8 o        1.607    -0.685    27.317     7.054
   164   1 h        0.803     0.366     0.553     1.169
   165   1 h        0.804     0.326     0.647     1.264
   166   8 o        1.609    -0.675    27.064     7.021
   167   1 h        0.804     0.337     0.619     1.235
   168   1 h        0.804     0.324     0.652     1.268
   169   8 o        1.608    -0.707    27.903     7.129
   170   1 h        0.804     0.344     0.604     1.220
   171   1 h        0.804     0.341     0.609     1.226
   172   8 o        1.607    -0.696    27.596     7.090
   173   1 h        0.804     0.348     0.594     1.211
   174   1 h        0.804     0.358     0.570     1.186
   175   8 o        1.606    -0.673    27.011     7.014
   176   1 h        0.801     0.349     0.590     1.207
   177   1 h        0.806     0.314     0.680     1.296
   178   8 o        1.608    -0.674    27.018     7.015
   179   1 h        0.802     0.359     0.567     1.183
   180   1 h        0.806     0.315     0.677     1.292
   181   8 o        1.607    -0.689    27.427     7.068
   182   1 h        0.804     0.331     0.636     1.253
   183   1 h        0.804     0.359     0.567     1.183
   184   8 o        1.607    -0.695    27.583     7.088
   185   1 h        0.804     0.343     0.604     1.221
   186   1 h        0.803     0.363     0.559     1.174
   187   8 o        1.610    -0.670    26.921     7.003
   188   1 h        0.804     0.338     0.618     1.235
   189   1 h        0.805     0.327     0.644     1.260
   190   8 o        1.607    -0.681    27.216     7.041
   191   1 h        0.806     0.307     0.702     1.316
   192   1 h        0.802     0.363     0.558     1.174
   193   8 o        1.607    -0.701    27.748     7.109
   194   1 h        0.803     0.333     0.629     1.246
   195   1 h        0.803     0.354     0.578     1.195
   196   8 o        1.609    -0.675    27.055     7.020
   197   1 h        0.805     0.332     0.632     1.249
   198   1 h        0.804     0.345     0.601     1.218
   199   8 o        1.608    -0.660    26.680     6.971
   200   1 h        0.804     0.343     0.604     1.221
   201   1 h        0.804     0.330     0.638     1.255
   202   8 o        1.610    -0.674    27.015     7.015
   203   1 h        0.805     0.329     0.639     1.256
   204   1 h        0.805     0.321     0.662     1.278
   205   8 o        1.606    -0.676    27.079     7.023
   206   1 h        0.804     0.333     0.630     1.247
   207   1 h        0.803     0.340     0.613     1.230
   208   8 o        1.608    -0.690    27.451     7.071
   209   1 h        0.804     0.333     0.629     1.246
   210   1 h        0.805     0.334     0.626     1.243
   211   8 o        1.607    -0.693    27.537     7.082
   212   1 h        0.804     0.357     0.572     1.188
   213   1 h        0.803     0.343     0.605     1.221
   214   8 o        1.608    -0.690    27.443     7.070
   215   1 h        0.805     0.352     0.584     1.200
   216   1 h        0.803     0.360     0.567     1.182
   217   8 o        1.607    -0.687    27.372     7.061
   218   1 h        0.803     0.352     0.583     1.199
   219   1 h        0.805     0.321     0.662     1.278
   220   8 o        1.608    -0.679    27.167     7.035
   221   1 h        0.804     0.343     0.604     1.221
   222   1 h        0.804     0.342     0.607     1.223
   223   8 o        1.607    -0.676    27.071     7.022
   224   1 h        0.803     0.345     0.601     1.218
   225   1 h        0.804     0.338     0.618     1.235
   226   8 o        1.604    -0.704    27.813     7.118
   227   1 h        0.802     0.361     0.564     1.180
   228   1 h        0.802     0.334     0.628     1.245
   229   8 o        1.607    -0.697    27.620     7.093
   230   1 h        0.803     0.346     0.598     1.214
   231   1 h        0.804     0.356     0.576     1.192
   232   8 o        1.608    -0.663    26.754     6.981
   233   1 h        0.805     0.346     0.597     1.213
   234   1 h        0.803     0.328     0.644     1.261
   235   8 o        1.607    -0.683    27.260     7.047
   236   1 h        0.803     0.331     0.636     1.253
   237   1 h        0.804     0.350     0.588     1.204
   238   8 o        1.606    -0.668    26.872     6.996
   239   1 h        0.803     0.323     0.656     1.273
   240   1 h        0.803     0.343     0.606     1.223
   241   8 o        1.609    -0.658    26.620     6.964
   242   1 h        0.803     0.348     0.594     1.211
   243   1 h        0.805     0.324     0.652     1.268
   244   8 o        1.609    -0.673    27.008     7.014
   245   1 h        0.805     0.330     0.638     1.255
   246   1 h        0.804     0.341     0.610     1.227
   247   8 o        1.607    -0.689    27.418     7.067
   248   1 h        0.805     0.324     0.653     1.270
   249   1 h        0.802     0.365     0.554     1.170
   250   8 o        1.607    -0.673    26.992     7.012
   251   1 h        0.802     0.346     0.598     1.215
   252   1 h        0.806     0.311     0.690     1.305
   253   8 o        1.607    -0.694    27.561     7.085
   254   1 h        0.803     0.367     0.550     1.165
   255   1 h        0.804     0.327     0.646     1.263
   256   8 o        1.609    -0.668    26.884     6.998
   257   1 h        0.804     0.355     0.576     1.192
   258   1 h        0.805     0.339     0.615     1.231
   259   8 o        1.609    -0.657    26.586     6.959
   260   1 h        0.804     0.316     0.675     1.290
   261   1 h        0.804     0.337     0.619     1.236
   262   8 o        1.608    -0.658    26.611     6.962
   263   1 h        0.804     0.336     0.623     1.240
   264   1 h        0.804     0.331     0.635     1.252
   265   8 o        1.608    -0.692    27.492     7.077
   266   1 h        0.803     0.348     0.593     1.210
   267   1 h        0.805     0.327     0.646     1.262
   268   8 o        1.608    -0.687    27.376     7.062
   269   1 h        0.804     0.336     0.621     1.238
   270   1 h        0.804     0.335     0.625     1.242
   271   8 o        1.609    -0.682    27.237     7.044
   272   1 h        0.805     0.322     0.660     1.276
   273   1 h        0.804     0.360     0.566     1.182
   274   8 o        1.607    -0.676    27.072     7.022
   275   1 h        0.805     0.333     0.629     1.246
   276   1 h        0.803     0.360     0.567     1.183
   277   8 o        1.607    -0.695    27.591     7.089
   278   1 h        0.803     0.343     0.604     1.221
   279   1 h        0.803     0.354     0.580     1.196
   280   8 o        1.606    -0.708    27.933     7.133
   281   1 h        0.804     0.331     0.634     1.251
   282   1 h        0.802     0.357     0.573     1.189
   283   8 o        1.607    -0.686    27.331     7.056
   284   1 h        0.804     0.322     0.658     1.274
   285   1 h        0.803     0.339     0.614     1.231
   286   8 o        1.609    -0.671    26.939     7.005
   287   1 h        0.805     0.345     0.600     1.217
   288   1 h        0.804     0.346     0.598     1.215
   289   8 o        1.607    -0.697    27.621     7.093
   290   1 h        0.803     0.360     0.566     1.181
   291   1 h        0.803     0.353     0.582     1.199
   292   8 o        1.606    -0.696    27.597     7.090
   293   1 h        0.804     0.326     0.648     1.265
   294   1 h        0.803     0.359     0.567     1.183
   295   8 o        1.607    -0.666    26.812     6.988
   296   1 h        0.804     0.344     0.602     1.218
   297   1 h        0.803     0.334     0.627     1.244
   298   8 o        1.607    -0.695    27.579     7.088
   299   1 h        0.803     0.339     0.614     1.231
   300   1 h        0.804     0.336     0.622     1.239
   301   8 o        1.608    -0.666    26.824     6.990
   302   1 h        0.803     0.359     0.567     1.183
   303   1 h        0.806     0.302     0.715     1.328
   304   8 o        1.607    -0.698    27.659     7.098
   305   1 h        0.804     0.324     0.652     1.268
   306   1 h        0.803     0.348     0.593     1.210
   307   8 o        1.605    -0.700    27.709     7.104
   308   1 h        0.805     0.368     0.548     1.163
   309   1 h        0.805     0.332     0.632     1.249
   310   8 o        1.610    -0.663    26.742     6.979
   311   1 h        0.805     0.337     0.619     1.236
   312   1 h        0.805     0.332     0.633     1.250
   313   8 o        1.609    -0.677    27.099     7.026
   314   1 h        0.804     0.343     0.606     1.223
   315   1 h        0.805     0.329     0.639     1.256
   316   8 o        1.609    -0.647    26.330     6.925
   317   1 h        0.804     0.345     0.600     1.217
   318   1 h        0.806     0.308     0.698     1.312
   319   8 o        1.607    -0.682    27.231     7.043
   320   1 h        0.803     0.355     0.578     1.194
   321   1 h        0.804     0.324     0.654     1.270
   322   8 o        1.606    -0.693    27.526     7.081
   323   1 h        0.803     0.331     0.635     1.252
   324   1 h        0.803     0.361     0.564     1.180
   325   8 o        1.607    -0.666    26.816     6.989
   326   1 h        0.805     0.324     0.653     1.269
   327   1 h        0.802     0.347     0.594     1.211
   328   8 o        1.608    -0.664    26.761     6.982
   329   1 h        0.802     0.361     0.564     1.180
   330   1 h        0.806     0.304     0.710     1.323
   331   8 o        1.607    -0.686    27.347     7.058
   332   1 h        0.803     0.331     0.635     1.252
   333   1 h        0.804     0.340     0.612     1.229
   334   8 o        1.609    -0.675    27.056     7.020
   335   1 h        0.805     0.323     0.655     1.272
   336   1 h        0.804     0.356     0.574     1.190
   337   8 o        1.606    -0.703    27.788     7.115
   338   1 h        0.802     0.356     0.574     1.190
   339   1 h        0.804     0.339     0.615     1.232
   340   8 o        1.608    -0.653    26.491     6.947
   341   1 h        0.804     0.333     0.631     1.248
   342   1 h        0.804     0.339     0.615     1.232
   343   8 o        1.606    -0.698    27.662     7.098
   344   1 h        0.804     0.344     0.603     1.219
   345   1 h        0.803     0.358     0.571     1.187
   346   8 o        1.610    -0.649    26.383     6.932
   347   1 h        0.804     0.321     0.660     1.277
   348   1 h        0.805     0.325     0.649     1.266
   349   8 o        1.607    -0.671    26.962     7.008
   350   1 h        0.803     0.317     0.672     1.287
   351   1 h        0.804     0.338     0.618     1.235
   352   8 o        1.609    -0.653    26.487     6.946
   353   1 h        0.803     0.353     0.580     1.197
   354   1 h        0.806     0.313     0.682     1.297
   355   8 o        1.608    -0.650    26.424     6.938
   356   1 h        0.803     0.344     0.604     1.220
   357   1 h        0.805     0.334     0.626     1.243
   358   8 o        1.606    -0.691    27.475     7.074
   359   1 h        0.803     0.325     0.649     1.266
   360   1 h        0.802     0.359     0.568     1.184
   361   8 o        1.608    -0.671    26.951     7.007
   362   1 h        0.803     0.341     0.610     1.227
   363   1 h        0.805     0.334     0.627     1.243
   364   8 o        1.606    -0.715    28.103     7.155
   365   1 h        0.803     0.362     0.562     1.178
   366   1 h        0.803     0.346     0.597     1.214
   367   8 o        1.609    -0.678    27.144     7.032
   368   1 h        0.803     0.346     0.598     1.215
   369   1 h        0.805     0.315     0.679     1.294
   370   8 o        1.606    -0.676    27.094     7.025
   371   1 h        0.803     0.335     0.624     1.241
   372   1 h        0.803     0.344     0.603     1.220
   373   8 o        1.609    -0.670    26.924     7.003
   374   1 h        0.804     0.325     0.651     1.268
   375   1 h        0.805     0.329     0.640     1.256
   376   8 o        1.607    -0.691    27.461     7.073
   377   1 h        0.804     0.346     0.597     1.213
   378   1 h        0.803     0.349     0.590     1.207
   379   8 o        1.608    -0.681    27.207     7.040
   380   1 h        0.803     0.336     0.623     1.240
   381   1 h        0.805     0.327     0.646     1.263
   382   8 o        1.609    -0.685    27.315     7.054
   383   1 h        0.804     0.350     0.589     1.205
   384   1 h        0.804     0.334     0.626     1.243
   385   8 o        1.608    -0.664    26.769     6.983
   386   1 h        0.805     0.322     0.658     1.274
   387   1 h        0.803     0.352     0.584     1.200
   388   8 o        1.605    -0.712    28.040     7.147
   389   1 h        0.802     0.323     0.657     1.273
   390   1 h        0.804     0.357     0.572     1.188
   391   8 o        1.606    -0.670    26.919     7.002
   392   1 h        0.806     0.315     0.678     1.294
   393   1 h        0.801     0.366     0.552     1.168
   394   8 o        1.608    -0.680    27.175     7.036
   395   1 h        0.803     0.366     0.552     1.167
   396   1 h        0.805     0.328     0.642     1.259
   397   8 o        1.609    -0.676    27.092     7.025
   398   1 h        0.804     0.368     0.549     1.163
   399   1 h        0.804     0.353     0.581     1.197
   400   8 o        1.606    -0.671    26.961     7.008
   401   1 h        0.801     0.348     0.592     1.209
   402   1 h        0.806     0.312     0.686     1.301
   403   8 o        1.607    -0.682    27.250     7.045
   404   1 h        0.804     0.334     0.628     1.245
   405   1 h        0.803     0.360     0.565     1.181
   406   8 o        1.607    -0.677    27.116     7.028
   407   1 h        0.803     0.351     0.586     1.202
   408   1 h        0.803     0.347     0.597     1.213
   409   8 o        1.603    -0.687    27.383     7.062
   410   1 h        0.806     0.307     0.700     1.314
   411   1 h        0.800     0.366     0.553     1.168
   412   8 o        1.608    -0.686    27.351     7.058
   413   1 h        0.804     0.348     0.594     1.211
   414   1 h        0.804     0.349     0.591     1.208
   415   8 o        1.610    -0.665    26.796     6.987
   416   1 h        0.804     0.339     0.614     1.231
   417   1 h        0.805     0.341     0.610     1.227
   418   8 o        1.606    -0.684    27.285     7.050
   419   1 h        0.803     0.329     0.640     1.256
   420   1 h        0.803     0.331     0.634     1.251
   421   8 o        1.607    -0.690    27.449     7.071
   422   1 h        0.804     0.325     0.650     1.266
   423   1 h        0.803     0.352     0.584     1.200
   424   8 o        1.607    -0.645    26.296     6.921
   425   1 h        0.806     0.303     0.711     1.324
   426   1 h        0.802     0.349     0.590     1.207
   427   8 o        1.607    -0.706    27.860     7.124
   428   1 h        0.804     0.342     0.607     1.223
   429   1 h        0.803     0.363     0.558     1.173
   430   8 o        1.609    -0.672    26.976     7.010
   431   1 h        0.805     0.341     0.609     1.226
   432   1 h        0.804     0.344     0.603     1.219
   433   8 o        1.610    -0.661    26.700     6.974
   434   1 h        0.804     0.343     0.606     1.222
   435   1 h        0.805     0.312     0.685     1.300
   436   8 o        1.607    -0.699    27.674     7.100
   437   1 h        0.805     0.336     0.623     1.240
   438   1 h        0.803     0.353     0.582     1.198
   439   8 o        1.606    -0.679    27.152     7.033
   440   1 h        0.803     0.328     0.643     1.260
   441   1 h        0.803     0.355     0.578     1.194
   442   8 o        1.608    -0.662    26.716     6.976
   443   1 h        0.805     0.325     0.649     1.266
   444   1 h        0.803     0.327     0.645     1.261
   445   8 o        1.608    -0.683    27.262     7.047
   446   1 h        0.803     0.361     0.563     1.179
   447   1 h        0.805     0.326     0.648     1.265
   448   8 o        1.609    -0.672    26.975     7.010
   449   1 h        0.804     0.343     0.605     1.222
   450   1 h        0.805     0.329     0.640     1.257
   451   8 o        1.606    -0.695    27.580     7.088
   452   1 h        0.803     0.366     0.552     1.167
   453   1 h        0.803     0.335     0.625     1.242
   454   8 o        1.609    -0.652    26.461     6.943
   455   1 h        0.805     0.349     0.591     1.207
   456   1 h        0.804     0.332     0.632     1.249
   457   8 o        1.607    -0.697    27.620     7.093
   458   1 h        0.804     0.330     0.636     1.253
   459   1 h        0.803     0.351     0.585     1.202
   460   8 o        1.607    -0.692    27.493     7.077
   461   1 h        0.804     0.345     0.600     1.217
   462   1 h        0.803     0.326     0.647     1.264
   463   8 o        1.606    -0.673    27.017     7.015
   464   1 h        0.803     0.343     0.604     1.221
   465   1 h        0.804     0.327     0.645     1.261
   466   8 o        1.607    -0.678    27.129     7.030
   467   1 h        0.803     0.341     0.609     1.226
   468   1 h        0.803     0.335     0.625     1.242
   469   8 o        1.608    -0.680    27.179     7.036
   470   1 h        0.803     0.358     0.570     1.186
   471   1 h        0.804     0.322     0.659     1.275
   472   8 o        1.607    -0.690    27.443     7.070
   473   1 h        0.804     0.325     0.651     1.268
   474   1 h        0.803     0.349     0.591     1.208
   475   8 o        1.607    -0.679    27.151     7.032
   476   1 h        0.804     0.328     0.642     1.259
   477   1 h        0.803     0.336     0.623     1.240
   478   8 o        1.608    -0.680    27.193     7.038
   479   1 h        0.803     0.359     0.569     1.185
   480   1 h        0.805     0.318     0.668     1.284
   481   8 o        1.607    -0.672    26.972     7.009
   482   1 h        0.804     0.333     0.630     1.246
   483   1 h        0.802     0.363     0.559     1.175
   484   8 o        1.608    -0.674    27.040     7.018
   485   1 h        0.804     0.349     0.590     1.207
   486   1 h        0.804     0.344     0.603     1.220
   487   8 o        1.609    -0.681    27.220     7.042
   488   1 h        0.805     0.346     0.597     1.213
   489   1 h        0.804     0.338     0.617     1.234
   490   8 o        1.608    -0.672    26.975     7.010
   491   1 h        0.803     0.348     0.592     1.209
   492   1 h        0.805     0.328     0.642     1.259
   493   8 o        1.608    -0.670    26.928     7.004
   494   1 h        0.805     0.333     0.630     1.247
   495   1 h        0.803     0.340     0.612     1.229
   496   8 o        1.608    -0.687    27.371     7.061
   497   1 h        0.804     0.352     0.585     1.201
   498   1 h        0.803     0.356     0.575     1.191
   499   8 o        1.607    -0.702    27.771     7.112
   500   1 h        0.804     0.338     0.618     1.234
   501   1 h        0.803     0.328     0.642     1.258
   502   8 o        1.606    -0.686    27.353     7.059
   503   1 h        0.804     0.335     0.624     1.241
   504   1 h        0.803     0.332     0.632     1.249
   505   8 o        1.609    -0.677    27.094     7.025
   506   1 h        0.805     0.324     0.653     1.270
   507   1 h        0.804     0.344     0.602     1.218
   508   8 o        1.608    -0.686    27.337     7.057
   509   1 h        0.805     0.312     0.685     1.300
   510   1 h        0.803     0.363     0.559     1.174
   511   8 o        1.608    -0.674    27.040     7.018
   512   1 h        0.804     0.334     0.626     1.243
   513   1 h        0.804     0.333     0.629     1.246
   514   8 o        1.607    -0.684    27.302     7.052
   515   1 h        0.805     0.320     0.663     1.279
   516   1 h        0.802     0.368     0.548     1.163
   517   8 o        1.608    -0.671    26.955     7.007
   518   1 h        0.804     0.337     0.619     1.236
   519   1 h        0.805     0.329     0.639     1.256
   520   8 o        1.608    -0.675    27.056     7.020
   521   1 h        0.804     0.344     0.602     1.219
   522   1 h        0.804     0.334     0.626     1.243
   523   8 o        1.606    -0.672    26.976     7.010
   524   1 h        0.802     0.332     0.632     1.249
   525   1 h        0.804     0.333     0.629     1.246
   526   8 o        1.607    -0.648    26.354     6.929
   527   1 h        0.803     0.336     0.622     1.239
   528   1 h        0.805     0.317     0.673     1.288
   529   8 o        1.608    -0.679    27.168     7.035
   530   1 h        0.803     0.356     0.575     1.191
   531   1 h        0.805     0.351     0.586     1.202
   532   8 o        1.607    -0.679    27.151     7.033
   533   1 h        0.803     0.342     0.609     1.225
   534   1 h        0.805     0.325     0.650     1.266
   535   8 o        1.607    -0.673    27.003     7.013
   536   1 h        0.806     0.311     0.688     1.303
   537   1 h        0.802     0.364     0.556     1.172
   538   8 o        1.606    -0.706    27.879     7.126
   539   1 h        0.804     0.318     0.671     1.286
   540   1 h        0.802     0.356     0.575     1.192
   541   8 o        1.607    -0.680    27.188     7.037
   542   1 h        0.803     0.340     0.611     1.228
   543   1 h        0.804     0.340     0.611     1.228
   544   8 o        1.610    -0.651    26.431     6.939
   545   1 h        0.805     0.331     0.636     1.252
   546   1 h        0.805     0.342     0.608     1.225
   547   8 o        1.609    -0.665    26.794     6.986
   548   1 h        0.804     0.337     0.619     1.235
   549   1 h        0.805     0.331     0.636     1.252
   550   8 o        1.607    -0.678    27.135     7.030
   551   1 h        0.803     0.356     0.576     1.192
   552   1 h        0.803     0.320     0.663     1.279
   553   8 o        1.607    -0.674    27.038     7.018
   554   1 h        0.803     0.337     0.620     1.237
   555   1 h        0.803     0.329     0.641     1.258
   556   8 o        1.608    -0.659    26.641     6.966
   557   1 h        0.803     0.357     0.573     1.189
   558   1 h        0.806     0.316     0.675     1.290
   559   8 o        1.608    -0.693    27.522     7.081
   560   1 h        0.805     0.335     0.624     1.241
   561   1 h        0.803     0.343     0.604     1.221
   562   8 o        1.608    -0.671    26.955     7.007
   563   1 h        0.805     0.318     0.668     1.284
   564   1 h        0.803     0.373     0.538     1.152
   565   8 o        1.609    -0.668    26.867     6.996
   566   1 h        0.805     0.322     0.659     1.275
   567   1 h        0.804     0.347     0.596     1.213
   568   8 o        1.607    -0.711    28.017     7.144
   569   1 h        0.804     0.324     0.653     1.269
   570   1 h        0.803     0.356     0.575     1.191
   571   8 o        1.607    -0.689    27.410     7.066
   572   1 h        0.805     0.331     0.635     1.252
   573   1 h        0.802     0.359     0.568     1.184
   574   8 o        1.607    -0.706    27.862     7.124
   575   1 h        0.804     0.333     0.629     1.246
   576   1 h        0.803     0.358     0.571     1.187
   577   8 o        1.607    -0.693    27.514     7.079
   578   1 h        0.803     0.348     0.594     1.210
   579   1 h        0.804     0.347     0.596     1.213
   580   8 o        1.609    -0.651    26.442     6.940
   581   1 h        0.804     0.355     0.576     1.192
   582   1 h        0.805     0.337     0.619     1.236
   583   8 o        1.609    -0.682    27.236     7.044
   584   1 h        0.805     0.339     0.615     1.232
   585   1 h        0.805     0.330     0.636     1.253
   586   8 o        1.607    -0.682    27.243     7.044
   587   1 h        0.803     0.336     0.621     1.238
   588   1 h        0.804     0.336     0.623     1.240
   589   8 o        1.608    -0.672    26.979     7.010
   590   1 h        0.803     0.342     0.606     1.223
   591   1 h        0.805     0.319     0.666     1.282
   592   8 o        1.608    -0.703    27.780     7.114
   593   1 h        0.803     0.341     0.611     1.228
   594   1 h        0.804     0.344     0.603     1.220
   595   8 o        1.608    -0.687    27.369     7.061
   596   1 h        0.805     0.326     0.648     1.265
   597   1 h        0.804     0.353     0.581     1.197
   598   8 o        1.607    -0.705    27.838     7.121
   599   1 h        0.804     0.341     0.610     1.226
   600   1 h        0.803     0.359     0.567     1.183
   601   8 o        1.607    -0.695    27.576     7.087
   602   1 h        0.804     0.337     0.621     1.238
   603   1 h        0.803     0.328     0.642     1.259
   604   8 o        1.607    -0.687    27.377     7.062
   605   1 h        0.802     0.340     0.613     1.230
   606   1 h        0.805     0.332     0.633     1.250
   607   8 o        1.608    -0.675    27.064     7.021
   608   1 h        0.804     0.331     0.636     1.252
   609   1 h        0.803     0.355     0.577     1.193
   610   8 o        1.609    -0.670    26.935     7.005
   611   1 h        0.805     0.338     0.616     1.233
   612   1 h        0.804     0.340     0.613     1.230
   613   8 o        1.608    -0.680    27.196     7.038
   614   1 h        0.803     0.348     0.592     1.209
   615   1 h        0.806     0.304     0.708     1.322
   616   8 o        1.608    -0.680    27.197     7.038
   617   1 h        0.805     0.322     0.659     1.275
   618   1 h        0.803     0.340     0.611     1.228
   619   8 o        1.607    -0.692    27.492     7.077
   620   1 h        0.804     0.348     0.592     1.209
   621   1 h        0.804     0.318     0.669     1.285
   622   8 o        1.609    -0.680    27.183     7.037
   623   1 h        0.804     0.340     0.611     1.228
   624   1 h        0.804     0.338     0.618     1.235
   625   8 o        1.606    -0.683    27.258     7.046
   626   1 h        0.801     0.358     0.570     1.186
   627   1 h        0.805     0.314     0.681     1.296
   628   8 o        1.606    -0.685    27.316     7.054
   629   1 h        0.803     0.332     0.632     1.249
   630   1 h        0.803     0.339     0.614     1.231
   631   8 o        1.607    -0.684    27.283     7.050
   632   1 h        0.804     0.358     0.569     1.185
   633   1 h        0.803     0.332     0.632     1.249
   634   8 o        1.608    -0.683    27.256     7.046
   635   1 h        0.805     0.322     0.660     1.276
   636   1 h        0.804     0.336     0.623     1.240
   637   8 o        1.604    -0.699    27.694     7.102
   638   1 h        0.803     0.342     0.608     1.225
   639   1 h        0.802     0.340     0.612     1.229
   640   8 o        1.608    -0.682    27.242     7.044
   641   1 h        0.803     0.337     0.620     1.237
   642   1 h        0.805     0.320     0.664     1.280
   643   8 o        1.608    -0.685    27.320     7.054
   644   1 h        0.803     0.363     0.558     1.174
   645   1 h        0.805     0.318     0.669     1.285
   646   8 o        1.606    -0.695    27.576     7.087
   647   1 h        0.803     0.337     0.621     1.238
   648   1 h        0.803     0.354     0.578     1.195
   649   8 o        1.609    -0.651    26.440     6.940
   650   1 h        0.805     0.327     0.644     1.261
   651   1 h        0.804     0.342     0.608     1.224
   652   8 o        1.607    -0.683    27.274     7.048
   653   1 h        0.802     0.364     0.557     1.172
   654   1 h        0.805     0.309     0.694     1.309
   655   8 o        1.608    -0.651    26.449     6.941
   656   1 h        0.804     0.335     0.625     1.242
   657   1 h        0.804     0.329     0.641     1.257
   658   8 o        1.607    -0.709    27.952     7.136
   659   1 h        0.804     0.331     0.634     1.250
   660   1 h        0.803     0.366     0.553     1.168
   661   8 o        1.607    -0.678    27.132     7.030
   662   1 h        0.805     0.326     0.647     1.264
   663   1 h        0.802     0.342     0.608     1.225
   664   8 o        1.608    -0.705    27.843     7.122
   665   1 h        0.804     0.346     0.598     1.215
   666   1 h        0.804     0.336     0.623     1.239
   667   8 o        1.608    -0.678    27.125     7.029
   668   1 h        0.803     0.336     0.623     1.240
   669   1 h        0.805     0.341     0.609     1.226
   670   8 o        1.609    -0.678    27.128     7.030
   671   1 h        0.805     0.342     0.607     1.224
   672   1 h        0.804     0.345     0.601     1.218
   673   8 o        1.609    -0.705    27.846     7.122
   674   1 h        0.805     0.344     0.602     1.219
   675   1 h        0.804     0.346     0.598     1.215
   676   8 o        1.606    -0.682    27.231     7.043
   677   1 h        0.802     0.371     0.542     1.157
   678   1 h        0.803     0.327     0.645     1.262
   679   8 o        1.608    -0.666    26.813     6.989
   680   1 h        0.804     0.322     0.659     1.275
   681   1 h        0.804     0.337     0.620     1.237
   682   8 o        1.609    -0.671    26.939     7.005
   683   1 h        0.804     0.336     0.622     1.239
   684   1 h        0.804     0.342     0.607     1.224
   685   8 o        1.609    -0.660    26.669     6.970
   686   1 h        0.804     0.353     0.581     1.197
   687   1 h        0.805     0.328     0.642     1.259
   688   8 o        1.606    -0.685    27.310     7.053
   689   1 h        0.803     0.357     0.573     1.189
   690   1 h        0.804     0.326     0.647     1.264
   691   8 o        1.608    -0.666    26.817     6.989
   692   1 h        0.803     0.364     0.557     1.173
   693   1 h        0.806     0.315     0.677     1.292
   694   8 o        1.607    -0.678    27.133     7.030
   695   1 h        0.803     0.339     0.615     1.232
   696   1 h        0.804     0.341     0.609     1.226
   697   8 o        1.609    -0.673    27.004     7.014
   698   1 h        0.804     0.349     0.590     1.206
   699   1 h        0.805     0.321     0.660     1.276
   700   8 o        1.608    -0.670    26.924     7.003
   701   1 h        0.805     0.326     0.647     1.264
   702   1 h        0.803     0.351     0.586     1.202
   703   8 o        1.609    -0.672    26.971     7.009
   704   1 h        0.804     0.349     0.590     1.206
   705   1 h        0.805     0.335     0.624     1.240
   706   8 o        1.607    -0.688    27.387     7.063
   707   1 h        0.806     0.304     0.709     1.322
   708   1 h        0.802     0.366     0.553     1.168
   709   8 o        1.609    -0.674    27.037     7.018
   710   1 h        0.805     0.324     0.654     1.270
   711   1 h        0.804     0.341     0.609     1.226
   712   8 o        1.605    -0.693    27.528     7.081
   713   1 h        0.803     0.337     0.619     1.236
   714   1 h        0.802     0.367     0.551     1.167
   715   8 o        1.607    -0.689    27.431     7.069
   716   1 h        0.803     0.355     0.577     1.194
   717   1 h        0.804     0.340     0.612     1.229
   718   8 o        1.609    -0.671    26.947     7.006
   719   1 h        0.805     0.315     0.677     1.292
   720   1 h        0.804     0.341     0.610     1.226
   721   8 o        1.609    -0.657    26.592     6.960
   722   1 h        0.805     0.335     0.626     1.242
   723   1 h        0.805     0.334     0.628     1.245
   724   8 o        1.608    -0.652    26.462     6.943
   725   1 h        0.804     0.337     0.619     1.236
   726   1 h        0.804     0.342     0.607     1.223
   727   8 o        1.607    -0.689    27.413     7.066
   728   1 h        0.803     0.351     0.586     1.203
   729   1 h        0.804     0.330     0.637     1.254
   730   8 o        1.608    -0.663    26.738     6.979
   731   1 h        0.806     0.309     0.693     1.308
   732   1 h        0.802     0.344     0.603     1.220
   733   8 o        1.607    -0.684    27.286     7.050
   734   1 h        0.802     0.364     0.557     1.173
   735   1 h        0.806     0.311     0.690     1.305
   736   8 o        1.608    -0.649    26.402     6.935
   737   1 h        0.803     0.334     0.627     1.244
   738   1 h        0.806     0.303     0.712     1.325
   739   8 o        1.607    -0.673    26.995     7.012
   740   1 h        0.804     0.329     0.641     1.258
   741   1 h        0.802     0.345     0.600     1.217
   742   8 o        1.608    -0.646    26.304     6.922
   743   1 h        0.804     0.327     0.645     1.262
   744   1 h        0.804     0.331     0.634     1.251
   745   8 o        1.608    -0.676    27.088     7.024
   746   1 h        0.803     0.364     0.557     1.173
   747   1 h        0.805     0.327     0.646     1.262
   748   8 o        1.610    -0.667    26.851     6.994
   749   1 h        0.805     0.340     0.611     1.228
   750   1 h        0.805     0.320     0.664     1.280
   751   8 o        1.609    -0.675    27.050     7.020
   752   1 h        0.804     0.336     0.623     1.239
   753   1 h        0.805     0.313     0.682     1.298
   754   8 o        1.611    -0.644    26.270     6.918
   755   1 h        0.805     0.339     0.614     1.231
   756   1 h        0.805     0.350     0.588     1.204

 Mol. C6AA /au·bohr⁶  :    2900330.724597
 Mol. C8AA /au·bohr⁸  :   52630654.395869
 Mol. α(0) /au        :       2393.364875


Wiberg/Mayer (AO) data.
largest (>0.10) Wiberg bond orders for each atom

 ---------------------------------------------------------------------------
     #   Z sym  total        # sym  WBO       # sym  WBO       # sym  WBO
 ---------------------------------------------------------------------------
     1   8 o    1.807 --     3 h    0.861     2 h    0.852
     2   1 h    0.887 --     1 o    0.852
     3   1 h    0.890 --     1 o    0.861
     4   8 o    1.863 --     6 h    0.833     5 h    0.786
     5   1 h    0.868 --     4 o    0.786
     6   1 h    0.877 --     4 o    0.833
     7   8 o    1.828 --     9 h    0.836     8 h    0.815
     8   1 h    0.873 --     7 o    0.815
     9   1 h    0.876 --     7 o    0.836
    10   8 o    1.851 --    12 h    0.818    11 h    0.787
    11   1 h    0.882 --    10 o    0.787
    12   1 h    0.877 --    10 o    0.818
    13   8 o    1.837 --    15 h    0.859    14 h    0.823
    14   1 h    0.883 --    13 o    0.823
    15   1 h    0.886 --    13 o    0.859
    16   8 o    1.878 --    17 h    0.832    18 h    0.752
    17   1 h    0.886 --    16 o    0.832
    18   1 h    0.857 --    16 o    0.752
    19   8 o    1.832 --    20 h    0.850    21 h    0.803
    20   1 h    0.892 --    19 o    0.850
    21   1 h    0.877 --    19 o    0.803
    22   8 o    1.830 --    23 h    0.857    24 h    0.811
    23   1 h    0.892 --    22 o    0.857
    24   1 h    0.875 --    22 o    0.811
    25   8 o    1.866 --    27 h    0.806    26 h    0.800
    26   1 h    0.877 --    25 o    0.800
    27   1 h    0.870 --    25 o    0.806
    28   8 o    1.871 --    29 h    0.826    30 h    0.825
    29   1 h    0.880 --    28 o    0.826
    30   1 h    0.878 --    28 o    0.825
    31   8 o    1.845 --    32 h    0.820    33 h    0.789
    32   1 h    0.883 --    31 o    0.820
    33   1 h    0.869 --    31 o    0.789
    34   8 o    1.827 --    35 h    0.849    36 h    0.810
    35   1 h    0.885 --    34 o    0.849
    36   1 h    0.877 --    34 o    0.810
    37   8 o    1.842 --    39 h    0.882    38 h    0.796
    38   1 h    0.864 --    37 o    0.796
    39   1 h    0.900 --    37 o    0.882
    40   8 o    1.824 --    42 h    0.824    41 h    0.804
    41   1 h    0.875 --    40 o    0.804
    42   1 h    0.882 --    40 o    0.824
    43   8 o    1.813 --    45 h    0.840    44 h    0.824
    44   1 h    0.886 --    43 o    0.824
    45   1 h    0.891 --    43 o    0.840
    46   8 o    1.793 --    47 h    0.823    48 h    0.813
    47   1 h    0.890 --    46 o    0.823
    48   1 h    0.891 --    46 o    0.813
    49   8 o    1.875 --    51 h    0.823    50 h    0.816
    50   1 h    0.875 --    49 o    0.816
    51   1 h    0.873 --    49 o    0.823
    52   8 o    1.880 --    53 h    0.833    54 h    0.822
    53   1 h    0.893 --    52 o    0.833
    54   1 h    0.871 --    52 o    0.822
    55   8 o    1.883 --    57 h    0.842    56 h    0.810
    56   1 h    0.876 --    55 o    0.810
    57   1 h    0.874 --    55 o    0.842
    58   8 o    1.846 --    60 h    0.834    59 h    0.834
    59   1 h    0.885 --    58 o    0.834
    60   1 h    0.883 --    58 o    0.834
    61   8 o    1.855 --    62 h    0.827    63 h    0.817
    62   1 h    0.875 --    61 o    0.827
    63   1 h    0.887 --    61 o    0.817
    64   8 o    1.871 --    65 h    0.850    66 h    0.783
    65   1 h    0.879 --    64 o    0.850
    66   1 h    0.867 --    64 o    0.783
    67   8 o    1.843 --    68 h    0.835    69 h    0.810
    68   1 h    0.882 --    67 o    0.835
    69   1 h    0.876 --    67 o    0.810
    70   8 o    1.861 --    71 h    0.820    72 h    0.785
    71   1 h    0.879 --    70 o    0.820
    72   1 h    0.873 --    70 o    0.785
    73   8 o    1.823 --    74 h    0.848    75 h    0.838
    74   1 h    0.890 --    73 o    0.848
    75   1 h    0.880 --    73 o    0.838
    76   8 o    1.867 --    77 h    0.812    78 h    0.808
    77   1 h    0.876 --    76 o    0.812
    78   1 h    0.874 --    76 o    0.808
    79   8 o    1.824 --    80 h    0.837    81 h    0.792
    80   1 h    0.894 --    79 o    0.837
    81   1 h    0.872 --    79 o    0.792
    82   8 o    1.870 --    83 h    0.829    84 h    0.787
    83   1 h    0.879 --    82 o    0.829
    84   1 h    0.870 --    82 o    0.787
    85   8 o    1.869 --    86 h    0.845    87 h    0.815
    86   1 h    0.891 --    85 o    0.845
    87   1 h    0.875 --    85 o    0.815
    88   8 o    1.874 --    89 h    0.822    90 h    0.820
    89   1 h    0.880 --    88 o    0.822
    90   1 h    0.880 --    88 o    0.820
    91   8 o    1.828 --    93 h    0.803    92 h    0.788
    92   1 h    0.887 --    91 o    0.788
    93   1 h    0.880 --    91 o    0.803
    94   8 o    1.868 --    96 h    0.819    95 h    0.804
    95   1 h    0.876 --    94 o    0.804
    96   1 h    0.881 --    94 o    0.819
    97   8 o    1.828 --    99 h    0.840    98 h    0.836
    98   1 h    0.889 --    97 o    0.836
    99   1 h    0.883 --    97 o    0.840
   100   8 o    1.880 --   102 h    0.866   101 h    0.819
   101   1 h    0.873 --   100 o    0.819
   102   1 h    0.887 --   100 o    0.866
   103   8 o    1.859 --   104 h    0.840   105 h    0.826
   104   1 h    0.880 --   103 o    0.840
   105   1 h    0.871 --   103 o    0.826
   106   8 o    1.853 --   107 h    0.830   108 h    0.788
   107   1 h    0.895 --   106 o    0.830
   108   1 h    0.871 --   106 o    0.788
   109   8 o    1.842 --   111 h    0.824   110 h    0.819
   110   1 h    0.880 --   109 o    0.819
   111   1 h    0.881 --   109 o    0.824
   112   8 o    1.847 --   114 h    0.819   113 h    0.810
   113   1 h    0.877 --   112 o    0.810
   114   1 h    0.881 --   112 o    0.819
   115   8 o    1.827 --   117 h    0.827   116 h    0.815
   116   1 h    0.875 --   115 o    0.815
   117   1 h    0.882 --   115 o    0.827
   118   8 o    1.893 --   119 h    0.821   120 h    0.799
   119   1 h    0.873 --   118 o    0.821
   120   1 h    0.868 --   118 o    0.799
   121   8 o    1.873 --   123 h    0.842   122 h    0.788
   122   1 h    0.860 --   121 o    0.788
   123   1 h    0.887 --   121 o    0.842
   124   8 o    1.843 --   125 h    0.837   126 h    0.814
   125   1 h    0.892 --   124 o    0.837
   126   1 h    0.866 --   124 o    0.814
   127   8 o    1.809 --   128 h    0.848   129 h    0.847
   128   1 h    0.895 --   127 o    0.848
   129   1 h    0.888 --   127 o    0.847
   130   8 o    1.848 --   131 h    0.864   132 h    0.810
   131   1 h    0.893 --   130 o    0.864
   132   1 h    0.888 --   130 o    0.810
   133   8 o    1.850 --   135 h    0.836   134 h    0.834
   134   1 h    0.885 --   133 o    0.834
   135   1 h    0.887 --   133 o    0.836
   136   8 o    1.848 --   137 h    0.811   138 h    0.772
   137   1 h    0.884 --   136 o    0.811
   138   1 h    0.862 --   136 o    0.772
   139   8 o    1.870 --   140 h    0.829   141 h    0.806   308 h    0.109
   140   1 h    0.883 --   139 o    0.829
   141   1 h    0.872 --   139 o    0.806
   142   8 o    1.866 --   143 h    0.839   144 h    0.799
   143   1 h    0.896 --   142 o    0.839
   144   1 h    0.873 --   142 o    0.799
   145   8 o    1.872 --   147 h    0.870   146 h    0.780
   146   1 h    0.868 --   145 o    0.780
   147   1 h    0.902 --   145 o    0.870
   148   8 o    1.886 --   150 h    0.859   149 h    0.781
   149   1 h    0.863 --   148 o    0.781
   150   1 h    0.894 --   148 o    0.859
   151   8 o    1.862 --   153 h    0.809   152 h    0.795
   152   1 h    0.878 --   151 o    0.795
   153   1 h    0.883 --   151 o    0.809
   154   8 o    1.872 --   155 h    0.816   156 h    0.787
   155   1 h    0.878 --   154 o    0.816
   156   1 h    0.872 --   154 o    0.787
   157   8 o    1.820 --   159 h    0.860   158 h    0.859
   158   1 h    0.887 --   157 o    0.859
   159   1 h    0.891 --   157 o    0.860
   160   8 o    1.847 --   162 h    0.810   161 h    0.806
   161   1 h    0.874 --   160 o    0.806
   162   1 h    0.880 --   160 o    0.810
   163   8 o    1.855 --   165 h    0.849   164 h    0.801
   164   1 h    0.866 --   163 o    0.801
   165   1 h    0.894 --   163 o    0.849
   166   8 o    1.858 --   168 h    0.839   167 h    0.815
   167   1 h    0.886 --   166 o    0.815
   168   1 h    0.895 --   166 o    0.839
   169   8 o    1.790 --   170 h    0.825   171 h    0.821
   170   1 h    0.882 --   169 o    0.825
   171   1 h    0.883 --   169 o    0.821
   172   8 o    1.848 --   173 h    0.820   174 h    0.808
   173   1 h    0.879 --   172 o    0.820
   174   1 h    0.872 --   172 o    0.808
   175   8 o    1.828 --   177 h    0.893   176 h    0.790
   176   1 h    0.878 --   175 o    0.790
   177   1 h    0.901 --   175 o    0.893
   178   8 o    1.835 --   180 h    0.888   179 h    0.792
   179   1 h    0.871 --   178 o    0.792
   180   1 h    0.901 --   178 o    0.888
   181   8 o    1.854 --   182 h    0.823   183 h    0.807
   182   1 h    0.891 --   181 o    0.823
   183   1 h    0.871 --   181 o    0.807
   184   8 o    1.887 --   185 h    0.805   186 h    0.791
   185   1 h    0.882 --   184 o    0.805
   186   1 h    0.868 --   184 o    0.791
   187   8 o    1.802 --   189 h    0.861   188 h    0.851
   188   1 h    0.886 --   187 o    0.851
   189   1 h    0.893 --   187 o    0.861
   190   8 o    1.822 --   191 h    0.895   192 h    0.787
   191   1 h    0.906 --   190 o    0.895
   192   1 h    0.868 --   190 o    0.787
   193   8 o    1.834 --   194 h    0.838   195 h    0.809
   194   1 h    0.889 --   193 o    0.838
   195   1 h    0.874 --   193 o    0.809
   196   8 o    1.830 --   197 h    0.852   198 h    0.815
   197   1 h    0.890 --   196 o    0.852
   198   1 h    0.881 --   196 o    0.815
   199   8 o    1.874 --   201 h    0.843   200 h    0.831
   200   1 h    0.882 --   199 o    0.831
   201   1 h    0.891 --   199 o    0.843
   202   8 o    1.798 --   203 h    0.861   204 h    0.854
   203   1 h    0.892 --   202 o    0.861
   204   1 h    0.897 --   202 o    0.854
   205   8 o    1.860 --   206 h    0.830   207 h    0.816
   206   1 h    0.889 --   205 o    0.830
   207   1 h    0.884 --   205 o    0.816
   208   8 o    1.803 --   210 h    0.856   209 h    0.833
   209   1 h    0.889 --   208 o    0.833
   210   1 h    0.888 --   208 o    0.856
   211   8 o    1.837 --   212 h    0.821   213 h    0.814
   212   1 h    0.872 --   211 o    0.821
   213   1 h    0.882 --   211 o    0.814
   214   8 o    1.877 --   215 h    0.834   216 h    0.785
   215   1 h    0.876 --   214 o    0.834
   216   1 h    0.871 --   214 o    0.785
   217   8 o    1.833 --   219 h    0.845   218 h    0.794
   218   1 h    0.876 --   217 o    0.794
   219   1 h    0.897 --   217 o    0.845
   220   8 o    1.855 --   222 h    0.831   221 h    0.826
   221   1 h    0.882 --   220 o    0.826
   222   1 h    0.883 --   220 o    0.831
   223   8 o    1.876 --   225 h    0.827   224 h    0.815
   224   1 h    0.881 --   223 o    0.815
   225   1 h    0.886 --   223 o    0.827
   226   8 o    1.876 --   228 h    0.810   227 h    0.786
   227   1 h    0.870 --   226 o    0.786
   228   1 h    0.888 --   226 o    0.810
   229   8 o    1.878 --   231 h    0.801   230 h    0.796
   230   1 h    0.880 --   229 o    0.796
   231   1 h    0.874 --   229 o    0.801
   232   8 o    1.858 --   233 h    0.848   234 h    0.827
   233   1 h    0.880 --   232 o    0.848
   234   1 h    0.893 --   232 o    0.827
   235   8 o    1.847 --   237 h    0.824   236 h    0.817
   236   1 h    0.891 --   235 o    0.817
   237   1 h    0.877 --   235 o    0.824
   238   8 o    1.883 --   239 h    0.839   240 h    0.815
   239   1 h    0.896 --   238 o    0.839
   240   1 h    0.882 --   238 o    0.815
   241   8 o    1.838 --   243 h    0.882   242 h    0.828
   242   1 h    0.879 --   241 o    0.828
   243   1 h    0.895 --   241 o    0.882
   244   8 o    1.826 --   245 h    0.864   246 h    0.843
   245   1 h    0.891 --   244 o    0.864
   246   1 h    0.884 --   244 o    0.843
   247   8 o    1.840 --   248 h    0.857   249 h    0.790
   248   1 h    0.895 --   247 o    0.857
   249   1 h    0.867 --   247 o    0.790
   250   8 o    1.819 --   252 h    0.887   251 h    0.799
   251   1 h    0.880 --   250 o    0.799
   252   1 h    0.903 --   250 o    0.887
   253   8 o    1.852 --   255 h    0.828   254 h    0.802
   254   1 h    0.865 --   253 o    0.802
   255   1 h    0.893 --   253 o    0.828
   256   8 o    1.856 --   258 h    0.848   257 h    0.825
   257   1 h    0.874 --   256 o    0.825
   258   1 h    0.885 --   256 o    0.848
   259   8 o    1.863 --   260 h    0.851   261 h    0.830
   260   1 h    0.900 --   259 o    0.851
   261   1 h    0.886 --   259 o    0.830
   262   8 o    1.868 --   263 h    0.850   264 h    0.831
   263   1 h    0.887 --   262 o    0.850
   264   1 h    0.890 --   262 o    0.831
   265   8 o    1.805 --   267 h    0.872   266 h    0.818
   266   1 h    0.879 --   265 o    0.818
   267   1 h    0.893 --   265 o    0.872
   268   8 o    1.825 --   270 h    0.840   269 h    0.836
   269   1 h    0.887 --   268 o    0.836
   270   1 h    0.888 --   268 o    0.840
   271   8 o    1.825 --   272 h    0.855   273 h    0.811
   272   1 h    0.896 --   271 o    0.855
   273   1 h    0.871 --   271 o    0.811
   274   8 o    1.864 --   275 h    0.849   276 h    0.789
   275   1 h    0.889 --   274 o    0.849
   276   1 h    0.871 --   274 o    0.789
   277   8 o    1.875 --   278 h    0.818   279 h    0.780
   278   1 h    0.882 --   277 o    0.818
   279   1 h    0.875 --   277 o    0.780
   280   8 o    1.828 --   281 h    0.852   282 h    0.782
   281   1 h    0.890 --   280 o    0.852
   282   1 h    0.873 --   280 o    0.782
   283   8 o    1.840 --   284 h    0.827   285 h    0.813
   284   1 h    0.896 --   283 o    0.827
   285   1 h    0.885 --   283 o    0.813
   286   8 o    1.846 --   287 h    0.839   288 h    0.829
   287   1 h    0.881 --   286 o    0.839
   288   1 h    0.880 --   286 o    0.829
   289   8 o    1.867 --   291 h    0.813   290 h    0.807
   290   1 h    0.870 --   289 o    0.807
   291   1 h    0.876 --   289 o    0.813
   292   8 o    1.848 --   293 h    0.845   294 h    0.793
   293   1 h    0.894 --   292 o    0.845
   294   1 h    0.871 --   292 o    0.793
   295   8 o    1.881 --   296 h    0.832   297 h    0.821
   296   1 h    0.881 --   295 o    0.832
   297   1 h    0.888 --   295 o    0.821
   298   8 o    1.821 --   300 h    0.828   299 h    0.813
   299   1 h    0.885 --   298 o    0.813
   300   1 h    0.887 --   298 o    0.828
   301   8 o    1.821 --   303 h    0.899   302 h    0.790
   302   1 h    0.871 --   301 o    0.790
   303   1 h    0.909 --   301 o    0.899
   304   8 o    1.811 --   305 h    0.842   306 h    0.809
   305   1 h    0.895 --   304 o    0.842
   306   1 h    0.879 --   304 o    0.809
   307   8 o    1.876 --   309 h    0.840   308 h    0.749
   308   1 h    0.865 --   307 o    0.749   139 o    0.109
   309   1 h    0.890 --   307 o    0.840
   310   8 o    1.824 --   312 h    0.869   311 h    0.854
   311   1 h    0.886 --   310 o    0.854
   312   1 h    0.890 --   310 o    0.869
   313   8 o    1.823 --   315 h    0.859   314 h    0.846
   314   1 h    0.883 --   313 o    0.846
   315   1 h    0.892 --   313 o    0.859
   316   8 o    1.839 --   318 h    0.900   317 h    0.833
   317   1 h    0.881 --   316 o    0.833
   318   1 h    0.905 --   316 o    0.900
   319   8 o    1.857 --   321 h    0.831   320 h    0.805
   320   1 h    0.874 --   319 o    0.805
   321   1 h    0.895 --   319 o    0.831
   322   8 o    1.865 --   323 h    0.830   324 h    0.798
   323   1 h    0.891 --   322 o    0.830
   324   1 h    0.870 --   322 o    0.798
   325   8 o    1.879 --   326 h    0.854   327 h    0.793
   326   1 h    0.895 --   325 o    0.854
   327   1 h    0.879 --   325 o    0.793
   328   8 o    1.841 --   330 h    0.904   329 h    0.794
   329   1 h    0.870 --   328 o    0.794
   330   1 h    0.908 --   328 o    0.904
   331   8 o    1.810 --   333 h    0.845   332 h    0.836
   332   1 h    0.891 --   331 o    0.836
   333   1 h    0.884 --   331 o    0.845
   334   8 o    1.859 --   335 h    0.850   336 h    0.810
   335   1 h    0.896 --   334 o    0.850
   336   1 h    0.873 --   334 o    0.810
   337   8 o    1.848 --   339 h    0.834   338 h    0.798
   338   1 h    0.873 --   337 o    0.798
   339   1 h    0.885 --   337 o    0.834
   340   8 o    1.880 --   342 h    0.848   341 h    0.827
   341   1 h    0.889 --   340 o    0.827
   342   1 h    0.885 --   340 o    0.848
   343   8 o    1.869 --   344 h    0.821   345 h    0.785
   344   1 h    0.882 --   343 o    0.821
   345   1 h    0.872 --   343 o    0.785
   346   8 o    1.841 --   348 h    0.872   347 h    0.846
   347   1 h    0.897 --   346 o    0.846
   348   1 h    0.894 --   346 o    0.872
   349   8 o    1.855 --   350 h    0.836   351 h    0.824
   350   1 h    0.899 --   349 o    0.836
   351   1 h    0.886 --   349 o    0.824
   352   8 o    1.835 --   354 h    0.896   353 h    0.827
   353   1 h    0.875 --   352 o    0.827
   354   1 h    0.902 --   352 o    0.896
   355   8 o    1.892 --   357 h    0.855   356 h    0.824
   356   1 h    0.882 --   355 o    0.824
   357   1 h    0.888 --   355 o    0.855
   358   8 o    1.852 --   359 h    0.844   360 h    0.802
   359   1 h    0.894 --   358 o    0.844
   360   1 h    0.871 --   358 o    0.802
   361   8 o    1.837 --   363 h    0.864   362 h    0.828
   362   1 h    0.884 --   361 o    0.828
   363   1 h    0.888 --   361 o    0.864
[...]
   370   8 o    1.877 --   371 h    0.822   372 h    0.811
   371   1 h    0.887 --   370 o    0.822
   372   1 h    0.882 --   370 o    0.811
   373   8 o    1.807 --   375 h    0.851   374 h    0.848
   374   1 h    0.895 --   373 o    0.848
   375   1 h    0.892 --   373 o    0.851
   376   8 o    1.850 --   377 h    0.823   378 h    0.812
   377   1 h    0.880 --   376 o    0.823
   378   1 h    0.878 --   376 o    0.812
   379   8 o    1.799 --   381 h    0.856   380 h    0.831
   380   1 h    0.887 --   379 o    0.831
   381   1 h    0.893 --   379 o    0.856
   382   8 o    1.835 --   384 h    0.845   383 h    0.834
   383   1 h    0.878 --   382 o    0.834
   384   1 h    0.888 --   382 o    0.845
   385   8 o    1.857 --   386 h    0.869   387 h    0.809
   386   1 h    0.896 --   385 o    0.869
   387   1 h    0.876 --   385 o    0.809
   388   8 o    1.819 --   390 h    0.819   389 h    0.817
   389   1 h    0.896 --   388 o    0.817
   390   1 h    0.873 --   388 o    0.819
   391   8 o    1.861 --   392 h    0.897   393 h    0.776
   392   1 h    0.901 --   391 o    0.897
   393   1 h    0.866 --   391 o    0.776
   394   8 o    1.864 --   396 h    0.857   395 h    0.798
   395   1 h    0.866 --   394 o    0.798
   396   1 h    0.892 --   394 o    0.857
   397   8 o    1.885 --   398 h    0.825   399 h    0.815
   398   1 h    0.865 --   397 o    0.825
   399   1 h    0.875 --   397 o    0.815
   400   8 o    1.833 --   402 h    0.896   401 h    0.787
   401   1 h    0.879 --   400 o    0.787
   402   1 h    0.903 --   400 o    0.896
   403   8 o    1.863 --   404 h    0.834   405 h    0.804
   404   1 h    0.889 --   403 o    0.834
   405   1 h    0.870 --   403 o    0.804
   406   8 o    1.876 --   407 h    0.822   408 h    0.818
   407   1 h    0.877 --   406 o    0.822
   408   1 h    0.880 --   406 o    0.818
   409   8 o    1.829 --   410 h    0.899   411 h    0.755
   410   1 h    0.906 --   409 o    0.899
   411   1 h    0.866 --   409 o    0.755   712 o    0.104
   412   8 o    1.847 --   414 h    0.825   413 h    0.822
   413   1 h    0.879 --   412 o    0.822
   414   1 h    0.878 --   412 o    0.825
   415   8 o    1.837 --   416 h    0.857   417 h    0.852
   416   1 h    0.885 --   415 o    0.857
   417   1 h    0.884 --   415 o    0.852
   418   8 o    1.831 --   420 h    0.833   419 h    0.822
   419   1 h    0.892 --   418 o    0.822
   420   1 h    0.890 --   418 o    0.833
   421   8 o    1.831 --   422 h    0.850   423 h    0.809
   422   1 h    0.894 --   421 o    0.850
   423   1 h    0.876 --   421 o    0.809
   424   8 o    1.863 --   425 h    0.904   426 h    0.802
   425   1 h    0.908 --   424 o    0.904
   426   1 h    0.878 --   424 o    0.802
   427   8 o    1.838 --   428 h    0.829   429 h    0.775
   428   1 h    0.883 --   427 o    0.829
   429   1 h    0.868 --   427 o    0.775
   430   8 o    1.833 --   431 h    0.856   432 h    0.828
   431   1 h    0.884 --   430 o    0.856
   432   1 h    0.882 --   430 o    0.828
   433   8 o    1.811 --   435 h    0.887   434 h    0.840
   434   1 h    0.883 --   433 o    0.840
   435   1 h    0.902 --   433 o    0.887
   436   8 o    1.829 --   437 h    0.843   438 h    0.800
   437   1 h    0.887 --   436 o    0.843
   438   1 h    0.875 --   436 o    0.800
   439   8 o    1.899 --   440 h    0.813   441 h    0.804
   440   1 h    0.893 --   439 o    0.813
   441   1 h    0.874 --   439 o    0.804
   442   8 o    1.852 --   443 h    0.852   444 h    0.825
   443   1 h    0.894 --   442 o    0.852
   444   1 h    0.893 --   442 o    0.825
   445   8 o    1.835 --   447 h    0.870   446 h    0.813
   446   1 h    0.870 --   445 o    0.813
   447   1 h    0.894 --   445 o    0.870
   448   8 o    1.817 --   450 h    0.872   449 h    0.844
   449   1 h    0.882 --   448 o    0.844
   450   1 h    0.892 --   448 o    0.872
   451   8 o    1.876 --   453 h    0.815   452 h    0.784
   452   1 h    0.866 --   451 o    0.784
   453   1 h    0.888 --   451 o    0.815
   454   8 o    1.883 --   456 h    0.844   455 h    0.843
   455   1 h    0.878 --   454 o    0.843
   456   1 h    0.890 --   454 o    0.844
   457   8 o    1.825 --   458 h    0.834   459 h    0.802
   458   1 h    0.891 --   457 o    0.834
   459   1 h    0.876 --   457 o    0.802
   460   8 o    1.822 --   462 h    0.831   461 h    0.828
   461   1 h    0.881 --   460 o    0.828
   462   1 h    0.893 --   460 o    0.831
   463   8 o    1.860 --   465 h    0.840   464 h    0.808
   464   1 h    0.882 --   463 o    0.808
   465   1 h    0.893 --   463 o    0.840
   466   8 o    1.863 --   467 h    0.822   468 h    0.819
   467   1 h    0.884 --   466 o    0.822
   468   1 h    0.888 --   466 o    0.819
   469   8 o    1.831 --   471 h    0.855   470 h    0.820
   470   1 h    0.872 --   469 o    0.820
   471   1 h    0.896 --   469 o    0.855
   472   8 o    1.830 --   473 h    0.838   474 h    0.818
   473   1 h    0.895 --   472 o    0.838
   474   1 h    0.878 --   472 o    0.818
   475   8 o    1.814 --   476 h    0.847   477 h    0.818
   476   1 h    0.892 --   475 o    0.847
   477   1 h    0.887 --   475 o    0.818
   478   8 o    1.829 --   480 h    0.883   479 h    0.791
   479   1 h    0.871 --   478 o    0.791
   480   1 h    0.899 --   478 o    0.883
   481   8 o    1.885 --   482 h    0.847   483 h    0.801
   482   1 h    0.889 --   481 o    0.847
   483   1 h    0.868 --   481 o    0.801
   484   8 o    1.857 --   485 h    0.840   486 h    0.827
   485   1 h    0.878 --   484 o    0.840
   486   1 h    0.882 --   484 o    0.827
   487   8 o    1.812 --   488 h    0.851   489 h    0.846
   488   1 h    0.880 --   487 o    0.851
   489   1 h    0.886 --   487 o    0.846
   490   8 o    1.842 --   492 h    0.865   491 h    0.815
   491   1 h    0.879 --   490 o    0.815
   492   1 h    0.892 --   490 o    0.865
   493   8 o    1.865 --   494 h    0.838   495 h    0.814
   494   1 h    0.889 --   493 o    0.838
   495   1 h    0.884 --   493 o    0.814
   496   8 o    1.861 --   497 h    0.836   498 h    0.799
   497   1 h    0.876 --   496 o    0.836
   498   1 h    0.873 --   496 o    0.799
   499   8 o    1.787 --   500 h    0.836   501 h    0.826
   500   1 h    0.886 --   499 o    0.836
   501   1 h    0.892 --   499 o    0.826
   502   8 o    1.824 --   503 h    0.841   504 h    0.810
   503   1 h    0.888 --   502 o    0.841
   504   1 h    0.890 --   502 o    0.810
   505   8 o    1.797 --   506 h    0.873   507 h    0.836
   506   1 h    0.895 --   505 o    0.873
   507   1 h    0.881 --   505 o    0.836
   508   8 o    1.815 --   509 h    0.896   510 h    0.791
   509   1 h    0.902 --   508 o    0.896
   510   1 h    0.868 --   508 o    0.791
   511   8 o    1.834 --   512 h    0.837   513 h    0.833
   512   1 h    0.888 --   511 o    0.837
   513   1 h    0.889 --   511 o    0.833
   514   8 o    1.843 --   515 h    0.873   516 h    0.779
   515   1 h    0.897 --   514 o    0.873
   516   1 h    0.864 --   514 o    0.779
   517   8 o    1.841 --   519 h    0.850   518 h    0.833
   518   1 h    0.886 --   517 o    0.833
   519   1 h    0.891 --   517 o    0.850
   520   8 o    1.832 --   522 h    0.853   521 h    0.836
   521   1 h    0.881 --   520 o    0.836
   522   1 h    0.888 --   520 o    0.853
   523   8 o    1.866 --   525 h    0.834   524 h    0.816
   524   1 h    0.890 --   523 o    0.816
   525   1 h    0.889 --   523 o    0.834
   526   8 o    1.870 --   528 h    0.876   527 h    0.815
   527   1 h    0.887 --   526 o    0.815
   528   1 h    0.900 --   526 o    0.876
   529   8 o    1.880 --   531 h    0.844   530 h    0.790
   530   1 h    0.873 --   529 o    0.790
   531   1 h    0.877 --   529 o    0.844
   532   8 o    1.834 --   534 h    0.852   533 h    0.815
   533   1 h    0.883 --   532 o    0.815
   534   1 h    0.894 --   532 o    0.852
   535   8 o    1.835 --   536 h    0.893   537 h    0.784
   536   1 h    0.903 --   535 o    0.893
   537   1 h    0.867 --   535 o    0.784
   538   8 o    1.801 --   539 h    0.844   540 h    0.799
   539   1 h    0.899 --   538 o    0.844
   540   1 h    0.873 --   538 o    0.799
   541   8 o    1.836 --   543 h    0.850   542 h    0.823
   542   1 h    0.884 --   541 o    0.823
   543   1 h    0.884 --   541 o    0.850
   544   8 o    1.830 --   545 h    0.877   546 h    0.860
   545   1 h    0.891 --   544 o    0.877
   546   1 h    0.883 --   544 o    0.860
   547   8 o    1.822 --   549 h    0.857   548 h    0.843
   548   1 h    0.886 --   547 o    0.843
   549   1 h    0.891 --   547 o    0.857
   550   8 o    1.867 --   552 h    0.834   551 h    0.804
   551   1 h    0.874 --   550 o    0.804
   552   1 h    0.897 --   550 o    0.834
   553   8 o    1.854 --   554 h    0.834   555 h    0.828
   554   1 h    0.886 --   553 o    0.834
   555   1 h    0.892 --   553 o    0.828
   556   8 o    1.843 --   558 h    0.896   557 h    0.810
   557   1 h    0.873 --   556 o    0.810
   558   1 h    0.900 --   556 o    0.896
   559   8 o    1.816 --   560 h    0.855   561 h    0.824
   560   1 h    0.888 --   559 o    0.855
   561   1 h    0.882 --   559 o    0.824
   562   8 o    1.860 --   563 h    0.882   564 h    0.790
   563   1 h    0.899 --   562 o    0.882
   564   1 h    0.861 --   562 o    0.790
   565   8 o    1.823 --   566 h    0.879   567 h    0.827
   566   1 h    0.896 --   565 o    0.879
   567   1 h    0.880 --   565 o    0.827
   568   8 o    1.801 --   569 h    0.846   570 h    0.805
   569   1 h    0.895 --   568 o    0.846
   570   1 h    0.873 --   568 o    0.805
   571   8 o    1.838 --   572 h    0.856   573 h    0.801
   572   1 h    0.890 --   571 o    0.856
   573   1 h    0.871 --   571 o    0.801
   574   8 o    1.825 --   575 h    0.844   576 h    0.795
   575   1 h    0.889 --   574 o    0.844
   576   1 h    0.872 --   574 o    0.795
   577   8 o    1.846 --   579 h    0.820   578 h    0.806
   578   1 h    0.879 --   577 o    0.806
   579   1 h    0.880 --   577 o    0.820
   580   8 o    1.883 --   582 h    0.857   581 h    0.824
   581   1 h    0.874 --   580 o    0.824
   582   1 h    0.886 --   580 o    0.857
   583   8 o    1.808 --   585 h    0.859   584 h    0.846
   584   1 h    0.885 --   583 o    0.846
   585   1 h    0.891 --   583 o    0.859
   586   8 o    1.833 --   588 h    0.847   587 h    0.823
   587   1 h    0.887 --   586 o    0.823
   588   1 h    0.887 --   586 o    0.847
   589   8 o    1.809 --   591 h    0.871   590 h    0.817
   590   1 h    0.883 --   589 o    0.817
   591   1 h    0.898 --   589 o    0.871
   592   8 o    1.824 --   594 h    0.831   593 h    0.827
   593   1 h    0.884 --   592 o    0.827
   594   1 h    0.882 --   592 o    0.831
   595   8 o    1.810 --   596 h    0.866   597 h    0.816
   596   1 h    0.894 --   595 o    0.866
   597   1 h    0.875 --   595 o    0.816
   598   8 o    1.844 --   599 h    0.820   600 h    0.800
   599   1 h    0.884 --   598 o    0.820
   600   1 h    0.871 --   598 o    0.800
   601   8 o    1.791 --   603 h    0.837   602 h    0.831
   602   1 h    0.887 --   601 o    0.831
   603   1 h    0.892 --   601 o    0.837
   604   8 o    1.824 --   606 h    0.856   605 h    0.810
   605   1 h    0.885 --   604 o    0.810
   606   1 h    0.890 --   604 o    0.856
   607   8 o    1.852 --   608 h    0.852   609 h    0.811
   608   1 h    0.891 --   607 o    0.852
   609   1 h    0.874 --   607 o    0.811
   610   8 o    1.817 --   611 h    0.861   612 h    0.848
   611   1 h    0.886 --   610 o    0.861
   612   1 h    0.884 --   610 o    0.848
   613   8 o    1.786 --   615 h    0.896   614 h    0.809
   614   1 h    0.879 --   613 o    0.809
   615   1 h    0.907 --   613 o    0.896
   616   8 o    1.806 --   617 h    0.869   618 h    0.828
   617   1 h    0.896 --   616 o    0.869
   618   1 h    0.884 --   616 o    0.828
   619   8 o    1.815 --   621 h    0.843   620 h    0.811
   620   1 h    0.879 --   619 o    0.811
   621   1 h    0.899 --   619 o    0.843
   622   8 o    1.834 --   624 h    0.854   623 h    0.830
   623   1 h    0.884 --   622 o    0.830
   624   1 h    0.886 --   622 o    0.854
   625   8 o    1.830 --   627 h    0.891   626 h    0.778
   626   1 h    0.872 --   625 o    0.778
   627   1 h    0.902 --   625 o    0.891
   628   8 o    1.846 --   629 h    0.817   630 h    0.815
   629   1 h    0.889 --   628 o    0.817
   630   1 h    0.885 --   628 o    0.815
   631   8 o    1.858 --   633 h    0.822   632 h    0.816
   632   1 h    0.872 --   631 o    0.816
   633   1 h    0.890 --   631 o    0.822
   634   8 o    1.800 --   635 h    0.852   636 h    0.843
   635   1 h    0.896 --   634 o    0.852
   636   1 h    0.887 --   634 o    0.843
   637   8 o    1.833 --   638 h    0.823   639 h    0.799
   638   1 h    0.883 --   637 o    0.823
   639   1 h    0.884 --   637 o    0.799
   640   8 o    1.810 --   642 h    0.859   641 h    0.819
   641   1 h    0.886 --   640 o    0.819
   642   1 h    0.898 --   640 o    0.859
   643   8 o    1.820 --   645 h    0.874   644 h    0.813
   644   1 h    0.868 --   643 o    0.813
   645   1 h    0.899 --   643 o    0.874
   646   8 o    1.835 --   647 h    0.823   648 h    0.814
   647   1 h    0.887 --   646 o    0.823
   648   1 h    0.874 --   646 o    0.814
   649   8 o    1.851 --   650 h    0.866   651 h    0.842
   650   1 h    0.893 --   649 o    0.866
   651   1 h    0.883 --   649 o    0.842
   652   8 o    1.823 --   654 h    0.886   653 h    0.783
   653   1 h    0.867 --   652 o    0.783
   654   1 h    0.904 --   652 o    0.886
   655   8 o    1.865 --   657 h    0.852   656 h    0.833
   656   1 h    0.888 --   655 o    0.833
   657   1 h    0.892 --   655 o    0.852
   658   8 o    1.825 --   659 h    0.835   660 h    0.795
   659   1 h    0.890 --   658 o    0.835
   660   1 h    0.866 --   658 o    0.795
   661   8 o    1.822 --   662 h    0.866   663 h    0.805
   662   1 h    0.894 --   661 o    0.866
   663   1 h    0.883 --   661 o    0.805
   664   8 o    1.803 --   666 h    0.829   665 h    0.813
   665   1 h    0.880 --   664 o    0.813
   666   1 h    0.887 --   664 o    0.829
   667   8 o    1.826 --   669 h    0.868   668 h    0.834
   668   1 h    0.887 --   667 o    0.834
   669   1 h    0.884 --   667 o    0.868
   670   8 o    1.835 --   671 h    0.862   672 h    0.836
   671   1 h    0.883 --   670 o    0.862
   672   1 h    0.881 --   670 o    0.836
   673   8 o    1.811 --   674 h    0.828   675 h    0.809
   674   1 h    0.882 --   673 o    0.828
   675   1 h    0.880 --   673 o    0.809
   676   8 o    1.891 --   678 h    0.825   677 h    0.783
   677   1 h    0.862 --   676 o    0.783
   678   1 h    0.893 --   676 o    0.825
   679   8 o    1.852 --   680 h    0.842   681 h    0.836
   680   1 h    0.896 --   679 o    0.842
   681   1 h    0.887 --   679 o    0.836
   682   8 o    1.835 --   683 h    0.851   684 h    0.850
   683   1 h    0.887 --   682 o    0.851
   684   1 h    0.883 --   682 o    0.850
   685   8 o    1.854 --   687 h    0.868   686 h    0.826
   686   1 h    0.875 --   685 o    0.826
   687   1 h    0.892 --   685 o    0.868
   688   8 o    1.874 --   690 h    0.821   689 h    0.795
   689   1 h    0.873 --   688 o    0.795
   690   1 h    0.894 --   688 o    0.821
   691   8 o    1.848 --   693 h    0.885   692 h    0.800
   692   1 h    0.868 --   691 o    0.800
   693   1 h    0.901 --   691 o    0.885
   694   8 o    1.874 --   696 h    0.823   695 h    0.811
   695   1 h    0.885 --   694 o    0.811
   696   1 h    0.883 --   694 o    0.823
   697   8 o    1.815 --   699 h    0.885   698 h    0.829
   698   1 h    0.878 --   697 o    0.829
   699   1 h    0.897 --   697 o    0.885
   700   8 o    1.840 --   701 h    0.873   702 h    0.817
   701   1 h    0.894 --   700 o    0.873
   702   1 h    0.877 --   700 o    0.817
   703   8 o    1.840 --   705 h    0.858   704 h    0.828
   704   1 h    0.878 --   703 o    0.828
   705   1 h    0.888 --   703 o    0.858
   706   8 o    1.804 --   707 h    0.900   708 h    0.781
   707   1 h    0.907 --   706 o    0.900
   708   1 h    0.866 --   706 o    0.781
   709   8 o    1.813 --   710 h    0.870   711 h    0.829
   710   1 h    0.895 --   709 o    0.870
   711   1 h    0.883 --   709 o    0.829
   712   8 o    1.896 --   713 h    0.816   714 h    0.766   411 h    0.104
   713   1 h    0.886 --   712 o    0.816
   714   1 h    0.866 --   712 o    0.766
   715   8 o    1.845 --   717 h    0.838   716 h    0.802
   716   1 h    0.874 --   715 o    0.802
   717   1 h    0.884 --   715 o    0.838
   718   8 o    1.802 --   719 h    0.874   720 h    0.839
   719   1 h    0.901 --   718 o    0.874
   720   1 h    0.884 --   718 o    0.839
   721   8 o    1.832 --   723 h    0.859   722 h    0.858
   722   1 h    0.888 --   721 o    0.858
   723   1 h    0.889 --   721 o    0.859
   724   8 o    1.885 --   725 h    0.841   726 h    0.829
   725   1 h    0.886 --   724 o    0.841
   726   1 h    0.883 --   724 o    0.829
   727   8 o    1.842 --   729 h    0.840   728 h    0.816
   728   1 h    0.877 --   727 o    0.816
   729   1 h    0.891 --   727 o    0.840
   730   8 o    1.828 --   731 h    0.899   732 h    0.804
   731   1 h    0.904 --   730 o    0.899
   732   1 h    0.882 --   730 o    0.804
   733   8 o    1.819 --   735 h    0.893   734 h    0.776
   734   1 h    0.868 --   733 o    0.776
   735   1 h    0.904 --   733 o    0.893
   736   8 o    1.826 --   738 h    0.902   737 h    0.813
   737   1 h    0.888 --   736 o    0.813
   738   1 h    0.908 --   736 o    0.902
   739   8 o    1.875 --   740 h    0.840   741 h    0.806
   740   1 h    0.892 --   739 o    0.840
   741   1 h    0.881 --   739 o    0.806
   742   8 o    1.875 --   743 h    0.849   744 h    0.845
   743   1 h    0.893 --   742 o    0.849
   744   1 h    0.890 --   742 o    0.845
   745   8 o    1.856 --   747 h    0.873   746 h    0.800
   746   1 h    0.868 --   745 o    0.800
   747   1 h    0.893 --   745 o    0.873
   748   8 o    1.804 --   750 h    0.873   749 h    0.848
   749   1 h    0.884 --   748 o    0.848
   750   1 h    0.898 --   748 o    0.873
   751   8 o    1.789 --   753 h    0.886   752 h    0.834
   752   1 h    0.887 --   751 o    0.834
   753   1 h    0.902 --   751 o    0.886
   754   8 o    1.874 --   755 h    0.862   756 h    0.854
   755   1 h    0.885 --   754 o    0.862
   756   1 h    0.877 --   754 o    0.854
 ---------------------------------------------------------------------------

Topologies differ in total number of bonds
Writing topology from bond orders to xtbtopo.mol

molecular dipole:
                 x           y           z       tot (Debye)
 q only:       -2.912       4.081      -5.062
   full:       -3.751       4.567      -5.802      21.050
molecular quadrupole (traceless):
                xx          xy          yy          xz          yz          zz
 q only:      102.927     -66.122      19.807       8.596     -47.870    -122.734
  q+dip:      130.991     -89.032      23.810       5.076     -52.022    -154.801
   full:      133.282     -88.709      21.740       3.228     -51.854    -155.022


           -------------------------------------------------
          | TOTAL ENERGY            -1283.614345222107 Eh   |
          | GRADIENT NORM               0.102279836716 Eh/α |
          | HOMO-LUMO GAP               7.716319606882 eV   |
           -------------------------------------------------

------------------------------------------------------------------------
 * finished run on 2022/11/24 at 09:28:07.588     
------------------------------------------------------------------------
 total:
 * wall-time:     0 d,  0 h,  0 min, 21.059 sec
 *  cpu-time:     0 d,  0 h,  0 min, 33.620 sec
 * ratio c/w:     1.596 speedup
 SCF:
 * wall-time:     0 d,  0 h,  0 min, 20.055 sec
 *  cpu-time:     0 d,  0 h,  0 min, 31.923 sec
 * ratio c/w:     1.592 speedup

