756
 energy: -1283.344652398020 gnorm: 0.018715167234 xtb: 6.5.1 (579679a)
o           -2.53895934044288       -5.62034724316057       -5.99553765545188
h           -3.11697764811611       -4.97445442308477       -6.42541621876865
h           -3.11530242107144       -6.13354225424811       -5.41485393972593
o            0.50518850892996       -1.97897924229636       -2.03631157487697
h            0.67448650532310       -1.11072657144992       -2.46181900129968
h            0.96740367464687       -1.95899073105080       -1.18471209718587
o            3.13205289341745        1.74246764853895       -1.56923732761096
h            3.51308308076623        2.29104904584340       -0.85991619581932
h            2.48252982397821        1.15858115081028       -1.12713479432784
o            4.46940168334203        0.55051139322528        0.53963693893411
h            5.09121695395168        0.40321908509046        1.29080079324348
h            4.95147622471663        1.12978943268132       -0.07891359327847
o            1.17666233663284        0.33717902041756       -3.12798254459506
h            0.56061841658764        1.08618257962712       -3.13195932772627
h            2.03097250887235        0.70843402237342       -2.90020060772817
o           -4.08728567369378       -4.91112689725982        1.08162416595026
h           -4.88321396914988       -5.18807103996574        1.57466133480780
h           -4.04587693683531       -3.91963363744772        1.09592592902316
o            4.34430415764820       -2.28489393841409        1.64889510272016
h            4.63126547032462       -2.72954981196020        2.45721558702675
h            3.59885453440878       -1.71353814252284        1.92121502915520
o           -1.41263991323938       -3.36958055348044        1.71073186418340
h           -0.89924224647120       -4.17171011056082        1.56370016572455
h           -1.65966199342137       -3.05823513516583        0.81841612546984
o            3.25074808430500       -4.74016946932095        1.05606892292122
h            3.08060075979067       -4.95589272190702        0.11269411424461
h            3.69345081683246       -3.86886588995824        1.08094315311341
o            2.29388988727965        1.74301579978822        1.72234345850605
h            3.17882170417819        1.44765753259059        1.44818282434163
h            2.11220482353585        2.56121802937774        1.22804589056529
o            1.72253554528797        2.05833434383369        4.31965345073512
h            1.01428732219754        1.40270197886131        4.45561474692116
h            1.99690399193319        1.96226278364691        3.38320617541610
o           -0.50921686945630        0.57232518410160        4.36950211401056
h           -0.79397041043784        1.21556040902402        3.71096181070764
h           -0.44722655180774       -0.30255337333014        3.94015619814407
o           -0.91519498639115       -3.37729289546488       -6.84574890107177
h           -1.05685334684842       -3.19343546922235       -5.89264645449753
h           -1.16572735124698       -4.29499053312353       -6.96706473481622
o           -0.89631047514317        2.84552700380011        2.61414748416691
h           -1.05291171841403        3.17458431067144        1.70716892701368
h           -0.17083705095036        3.40953027387401        2.93674876593701
o            5.87839698511984        2.03588292261702       -1.23662780956916
h            6.57326719305156        1.40211176801622       -1.47940269264549
h            6.23692125615678        2.92776553597060       -1.33832637593396
o           -2.35488176692102       -1.21877260422570       -7.54547332245299
h           -1.81350060034881       -2.01390618795589       -7.37546785712582
h           -1.70047694693454       -0.57853706152503       -7.90628737727797
o           -0.44851545518811        2.51850020684078       -3.06455964967896
h           -0.61651300500172        2.76580095449693       -3.99682287838669
h           -1.28669928802375        2.25635189616242       -2.65610172417453
o           -7.02741030361758       -0.87821872172156       -3.01729502706443
h           -7.18307858617524       -1.55271172264412       -3.70821669836230
h           -6.37481984316305       -1.29378223616667       -2.41898238287368
o           -4.86435021319997        0.59726180678785       -3.75277359742878
h           -5.67407481057587        0.07446235849137       -3.57782684315961
h           -4.55215198516495        0.87153599314123       -2.88194322712180
o           -3.85875816139581        2.75716753299821        0.88718674948929
h           -3.43460624994727        3.52676833399687        1.30957994680105
h           -3.80927391328669        1.99603911471331        1.48639308259665
o           -2.43414601056696        1.49565176683774       -4.81335779463067
h           -2.68800316091479        2.37628982583492       -4.49754631523078
h           -2.97802944730700        1.32185274256222       -5.60687504931073
o            3.32962323848742        0.30193622478739       -5.18409027033516
h            2.59186732583420       -0.29619909101930       -5.02709505270087
h            3.94361982912251        0.15296066330885       -4.43066283703608
o           -4.10859110861710       -2.32743580396731        1.00034486839075
h           -4.96691524028395       -2.02103273929448        1.31722523929173
h           -3.89730068511979       -1.73535082919948        0.26010742476809
o           -3.38521951712918       -0.26634482158947       -0.59530829826886
h           -4.16754409764739        0.30122770545300       -0.68447300449678
h           -2.82211165577295        0.08099695758545        0.16023564983355
o           -2.94666823171661       -1.65914947246906        3.34936350395605
h           -3.64420818980115       -2.21961893727033        3.71242008707272
h           -2.52607613163828       -2.22977271352817        2.69070905766373
o           -5.47532418641575        1.41481404163792       -1.19441557988587
h           -5.28879720562069        2.35029504874632       -0.98348989895469
h           -6.29403815705779        1.16359342004527       -0.72197120311761
o           -0.32464799808026        0.36602705274127       -8.26822043959904
h            0.22917546623799       -0.39470541808052       -8.53075248754204
h           -0.07795634076742        0.53830749985759       -7.33153864770153
o            3.52767423711251       -1.51439557719868       -0.82337593310963
h            2.76150605619539       -1.84672697866626       -0.33321838958514
h            3.87421787706168       -0.75260971377514       -0.30987962385005
o           -6.72478828599380       -2.64418383028050       -0.86519177183011
h           -7.44862172813862       -3.09128395989992       -1.32809655438303
h           -5.90992341939453       -3.09584495597639       -1.16915494312900
o            4.16066460828562        3.39895859595480        0.43851365631591
h            4.10836154983853        4.18867866158693       -0.12652170226150
h            5.10750571674062        3.23917340497923        0.59978786365334
o           -7.29031095782629       -2.92692487214831       -4.76643258858431
h           -6.99899925645339       -2.37552908650541       -5.53893888041335
h           -6.47823362636841       -3.44165594829320       -4.55307689657895
o           -5.66598752512647       -0.65060865733861        4.52862444694777
h           -4.79672226137406       -0.33081666880780        4.84771571174315
h           -5.53681257711064       -1.57900631610431        4.26384931071236
o            4.47193351780717        5.66449503606456       -5.26848467240548
h            5.37826655852015        5.72078877224200       -4.91162312541414
h            4.36968763909297        4.73853754377215       -5.54029883828741
o            4.76975356647642       -4.25896667056584        3.53106093659855
h            5.44971847459139       -4.51063776171643        2.87980059522067
h            4.00334717678124       -4.82038166077935        3.39078204181307
o            6.76945483334968       -1.57393705397463        0.16624399717663
h            6.84243966767836       -0.73860918117399       -0.31678463370942
h            5.90368185577357       -1.63587990192807        0.59529194407044
o           -6.63895933465696       -3.56247136968441        1.64655700223701
h           -7.13814708814345       -4.39613591753916        1.55162878504468
h           -6.67830921180593       -3.14852943068883        0.75805700366963
o            1.59248982615322        3.97723284930381        0.22746667299651
h            0.62121316106575        3.92186591294100        0.23749461286574
h            1.83278642575926        3.98159614829914       -0.71679121929802
o           -0.02966322174768       -1.91892329986778        3.53704642444339
h           -0.48608519860226       -2.46102984217309        2.86837903808030
h           -0.43405548432938       -2.18213306034823        4.38660470802349
o           -2.76264049209014        2.28012732085632       -1.63043926663280
h           -3.25423443008186        2.39670315734069       -0.79724022533456
h           -3.16043057888432        2.90307380846147       -2.26641184782913
o            4.89905168138027        0.20482911839659       -3.05320565633280
h            4.42547858501704        0.58918772063684       -2.29746568124787
h            5.20826201629289       -0.69718658341701       -2.83535819764369
o            5.64711199677753       -6.16756819449112       -1.10033154511458
h            5.32701936367468       -5.28381577718333       -0.82961723393060
h            5.95746727018351       -6.03476289081231       -2.00900219601057
o            4.18021313657218        3.49618254803458       -3.30368527159402
h            5.00472215317634        3.17335512558545       -3.69114901034615
h            3.81791611688499        2.75042936202300       -2.79534076425651
o           -4.59362924591655       -2.01067070935592       -2.47730685256272
h           -4.68209041710959       -2.73475990417712       -3.11622438718563
h           -3.78038168306737       -1.55341413777862       -2.71680428324300
o           -3.78652841439720        1.18000598112273       -7.11392245599142
h           -3.64675993586434        0.28829912115250       -7.45046911736742
h           -3.10257503925211        1.74443662535655       -7.54438626705420
o            7.60796867165483        0.08402443750461       -1.84261255654778
h            8.51160327581843        0.31840224985981       -1.57520830915691
h            7.66832783135524       -0.36894525487022       -2.69729021355345
o            6.23996250627452        2.00187569347163       -4.37461420443633
h            7.06277006523670        2.25639328005821       -3.91131807721956
h            5.80533158489856        1.32618169046076       -3.79607713031106
o            3.11856287356914       -1.87406728512965       -3.42879797208626
h            2.18933195108047       -1.81590556642553       -3.69495835809248
h            3.18696408482295       -1.65676667319019       -2.48198405802855
o           -9.41630664938288       -1.09376730902323       -1.74172648590763
h          -10.02701477772280       -1.56394766370159       -2.33904211429040
h           -8.56485841967755       -0.96797751929392       -2.21440988955344
o            0.95946342868397        4.69306362139133        3.08972649934431
h            1.87495208744741        4.33374429842786        3.00857868307289
h            1.02367777832597        5.45877919125076        3.67143913767479
o           -5.20920481880527        2.70120575529021       -5.35400815917077
h           -5.17637296825155        1.93321638854190       -4.73840757708449
h           -4.81497917068039        2.37865703271517       -6.17586123942172
o            2.74210123229565       -5.42386039129013       -1.47467434198420
h            3.27644312692116       -4.87153094763350       -2.08803336937861
h            1.81573184974155       -5.23272239502332       -1.73125362207929
o            0.04314935159685        0.79793965046965       -5.69352112847201
h           -0.82729753164576        1.05820982952260       -5.34558935895167
h            0.69401305701133        1.45435162446940       -5.35119622813179
o            5.67119619264329        7.31929512423717       -0.29110934759157
h            5.73575993555313        6.97976636803772        0.60754854393337
h            4.77045066441184        7.64720779311477       -0.40773373267185
o            4.97671185357506        2.10086797448779        3.97770135196060
h            5.53500193727854        1.57318628474437        3.37508498416936
h            4.41100065196021        1.43557714391120        4.41094985096489
o            3.39341917196864        2.37257318567977        6.44808740926542
h            2.84811651296033        2.20908944684695        5.65291572503905
h            3.06809966245057        1.76642004031693        7.13300184742083
o            8.44427129596523        0.52967100615865        0.96718883716713
h            8.55717478669030        1.34096077718986        0.44509721770499
h            9.06937452217017        0.54058742374596        1.71391890588777
o           -6.62319167561961        2.76640549774112        1.33098679391501
h           -5.65767499199728        2.80703330167192        1.23783506375710
h           -6.98306681613162        3.05021128691055        0.47320438829759
o           -4.36318018349674        0.54705014984626        2.38485621034011
h           -3.91498650687912       -0.19866799736835        2.82318956407271
h           -5.05403412270141        0.14334903460067        1.82791930051123
o           -4.30270722490760       -6.62510243774220       -4.03897753937547
h           -3.54614558869898       -6.81454235306692       -3.42627436222033
h           -5.06871159633986       -7.05264308017644       -3.65472161312591
o          -13.06593794818088       -0.72224806879205        0.21517272953702
h          -12.22626662898286       -0.21324705181548        0.14813368025656
h          -13.47447571637788       -0.45789407831772        1.04079007103849
o            6.47861297343340       -4.13383517787480        1.48823992312530
h            7.38974374770145       -4.33173002441460        1.20026837774261
h            5.99808891561502       -3.85989804899007        0.68511902423641
o           -7.02644011090758        2.17798435553283       -3.28240852796797
h           -7.92684855737003        2.03650693595876       -2.93185871069058
h           -6.42644394797326        1.86494883017551       -2.57317482506819
o           -3.63684646298384        4.66460126533176       -7.09332558030193
h           -2.95300431052878        5.25832489234801       -6.75066135719338
h           -3.16500740485996        4.00172920853115       -7.60835316001932
o            3.36718276020291       -3.90621722259285        7.25691020582542
h            2.70071383483577       -4.52767579793528        7.55319149903687
h            3.05168886587325       -3.59642866043409        6.37483060026205
o          -10.54626510224858        2.69226878201934        3.76527232436930
h          -10.29558303850606        1.92448330805209        4.31357407719929
h          -10.02656726816468        2.57693799271950        2.94506832316499
o           -7.92958808611631        0.87388028792410       -0.39908531057403
h           -8.50111463329147        0.99868492594505       -1.16106153928030
h           -8.35274455375663        0.22822954012536        0.19242891414704
o            6.72112119213416        4.67985038671743       -1.52488468362567
h            5.95695386033149        5.20786831122933       -1.23079446631038
h            7.51657768793401        5.07385595566280       -1.13411665128007
o           -0.98522553769370       -4.26678984974000        4.59139953092341
h           -0.14985197539716       -4.37726650469016        4.12653360805247
h           -1.66066364782850       -4.66923675450179        4.03147155167217
o           -9.54918380675479        1.74382308111335       -2.59023096268574
h           -9.74967124905392        2.50257524151860       -3.16890831929774
h           -9.69705934213542        0.94880138377307       -3.14854329388766
o            0.98661931006456       -1.98617529782834       -8.43782405206345
h            1.80029483467416       -2.15063052567064       -7.92987901728927
h            0.32206094742022       -2.53864397067198       -8.00198584109918
o           -1.39476568079747       -2.74761875228395       -4.27378263019100
h           -1.69251424937326       -1.91347091597375       -3.87334439094245
h           -1.82301030286648       -3.45101217762540       -3.74864155801192
o           -1.75517304295996       -2.50754185205740       -0.80686947634079
h           -2.37985006030453       -1.77583978434284       -0.88036897102174
h           -0.95071253869544       -2.24175942131608       -1.30909228824620
o            4.12646457905864        5.31385633099607       -1.40286151184657
h            4.20595838988330        4.63783452981544       -2.11171567888099
h            3.69872804534302        6.06211587047458       -1.84088698020816
o            2.58597290708119       -3.00767415235665        4.86229470299064
h            2.05693209096410       -3.59330838662342        4.29441452487671
h            2.00939048647469       -2.28299980879004        5.15990494477896
o           -5.01879146977128        4.08432771926792       -1.16025663075457
h           -5.41048389063129        4.54251625345877       -0.38911383899913
h           -5.55695779854194        4.33427399507858       -1.92947896648852
o           -2.30037125527813       -6.92884255696254       -2.33227960491801
h           -2.21055846821086       -5.94722642183365       -2.34602446324250
h           -2.81684644936110       -7.14170963251339       -1.51895835237529
o           -2.62976319631828        2.62438801271698        4.65291886241561
h           -3.54829314719972        2.79394276678610        4.34382269049264
h           -2.02478562514636        2.82959282987846        3.91724961846883
o            1.36215422732329       -0.84605005630598        6.00146888870149
h            0.55542713966915       -0.39200493543094        5.73377672703726
h            1.25793788279212       -1.07466480619561        6.94645230922846
o           -5.12402607980766       -3.26716227568219        3.89364407655891
h           -5.77649722217368       -3.51242750392741        4.58389088262028
h           -5.52823412380685       -3.50164152812783        3.04292692188609
o           -9.85945428656877       -0.06435395432945       -4.53950179893820
h          -10.57551135003493        0.49822743137612       -4.89745802172835
h           -9.03364992038452        0.19912989142518       -4.99902886830462
o           -5.49686550021707        5.69104978200113       -5.44783903876535
h           -4.93909111346581        5.18906678707348       -6.07246078841497
h           -4.92409594605673        6.37512751173440       -5.09083217888744
o           -7.29773530073779       -6.07811133329069       -1.47042565397836
h           -7.65332410834712       -6.09118745037775       -0.57154415257393
h           -7.83808096670570       -5.42577348811241       -1.94379636236007
o           -9.50610175795190        0.38030761601624        4.65572379235543
h           -9.05480671502165        0.08327412357418        5.45774741764632
h           -8.77176697408118        0.54656368839133        4.02044516739482
o            1.61957232114083        4.93081289663365       -6.00063244197918
h            1.26517929802035        5.64194647135677       -5.41613532080674
h            2.48554802619793        5.22515109982578       -6.28710956990042
o            2.98837697654694        6.10220549425550        1.30540188508876
h            2.50297444468152        5.33380259834556        0.94661197837612
h            3.04840320527825        6.75087594877346        0.57927845295618
o            1.63946068499544        4.20470604219960       -2.46227601915732
h            1.06990270513781        3.47652021395881       -2.75076019689259
h            2.41033012617681        4.16552124273514       -3.03989680926744
o            1.84633888530212        2.51074197756089       -4.75824212314419
h            1.99949068979291        3.32478666903595       -5.25955714873356
h            2.59508427233549        1.91982347628426       -4.94542187037822
o            8.11864004877665       -1.10999860751743       -4.30885293213717
h            7.52870558370864       -0.85849856185105       -5.03455352900882
h            8.88794965440217       -0.51853556839186       -4.38655333442827
o            6.67143004614449       -4.51077343730384       -6.54293982636528
h            6.17000568246517       -3.70979876331555       -6.29241090320871
h            7.52333101920764       -4.42340860900939       -6.10268267121106
o           -5.00684266007985        2.90111967854239        7.73019595591508
h           -4.70729282827145        1.99669363275266        7.93715856061397
h           -4.20785734000747        3.40235049053968        7.49378602864864
o            9.09457164063228       -2.07360844631656        1.57673177761537
h            9.89115619892765       -1.75886794681721        1.13189424008605
h            8.34101725864477       -1.79721116446022        1.02819391910733
o            6.94727145315245       -2.09810016784435        3.15661001243877
h            7.88872730300707       -1.94068150534914        3.01026100101705
h            6.73346033248958       -2.83720256707246        2.54565643632155
o            6.26151331197510        0.37951063818999        2.37956039303112
h            6.39079807848065       -0.49278435598071        2.79788944972011
h            7.07591001431794        0.50800794246829        1.83161063326846
o           -6.19434172560700       -1.36843931434001       -6.54246527510925
h           -6.62101109662177       -0.52253851342047       -6.34233482827692
h           -5.31519164027191       -1.34460391775150       -6.08690937877432
o           -9.08400417851286       -0.79692195156400        1.40208916431855
h           -9.92433390514929       -0.66957686847884        1.88089847549571
h           -9.15521802290580       -1.68823766857051        1.00290123855363
o           -6.26636645542510       -0.76257558185022        1.09513842429610
h           -6.53683424573183       -1.11031595628834        0.23650899535760
h           -7.05715285145810       -0.46036391368868        1.56691123402643
o            0.80738721849308        6.53471257732880       -1.32883187861488
h            1.05625277090399        5.71840290616317       -1.80245938137313
h            0.48476443772507        6.26151177377548       -0.44699398972942
o           -4.11426141089075        0.31661603722506        7.86218056117003
h           -3.26280843518604        0.11877460658067        8.29207255738571
h           -3.88069093796063        0.31341277922268        6.90721207076909
o            9.76445158798299        0.42935851046562        3.29569984013473
h            9.00696835195983        0.52234268263834        3.89586927085252
h           10.15870403180505       -0.43557143128893        3.53193192661798
o            2.27055059314524       -0.94729325261276        2.59196378282530
h            2.77182267753856       -0.46648996602037        3.28490246193628
h            1.52533306008401       -1.35401249097878        3.06705983144734
o           10.49991037824930       -1.62992806148015       -2.57803798371710
h           10.46659888413973       -0.78663298021854       -2.07218514914880
h           10.88181919041697       -1.41107708348456       -3.42741185771505
o            6.55441865910003        0.08806477502946       -6.25087922346185
h            5.89294669086967        0.26174670831592       -6.94323667602699
h            6.46367591371916        0.83507583692423       -5.62301687401304
o            3.88894862249475       -4.30707821500208       -3.50682650614678
h            3.68539471148012       -3.33089391406931       -3.50736433149711
h            4.85095076584297       -4.40964387648645       -3.53035714026390
o          -12.95932281877186       -0.68082193233552       -2.56278388683266
h          -13.24547502832372       -0.73426364427739       -1.64002644724324
h          -12.65110864026704        0.21985059150275       -2.70052897405279
o          -11.62780358540656        1.89651625294689       -5.00966074181859
h          -11.01382974356901        2.64580239312998       -5.04430911370377
h          -12.06415509352291        1.96199749267143       -4.14999711067559
o           -4.26196569618715        6.97844584186014        2.85252110435141
h           -4.97425240700370        6.40416364034061        3.18921562531369
h           -3.83115264355683        7.38731453282677        3.60295388562855
o           -2.74401363631860        5.46054224818668       -0.84100799837395
h           -3.51247629942259        4.87631759058941       -1.00012303731135
h           -3.12887111611244        6.29935876216400       -0.52944272657973
o            2.87389789486813       -2.58712399497412       -6.56191443360484
h            2.78232496416382       -3.55285582807642       -6.42782423394540
h            2.19686093888173       -2.20836320311453       -5.96199716796366
o           -6.04499801346263        5.59905437483602        0.76537228279125
h           -6.90403759386376        5.97220495021616        0.53264849288262
h           -6.10362598472341        5.32151858138535        1.71066602028921
o           -1.45313427528264        7.89385730473096       -1.83848909603015
h           -0.64206526373111        7.34137164558885       -1.73920755684167
h           -1.18237292770283        8.67875442111068       -2.31248470705443
o            4.98279558931074       -6.36676209171028       -5.53799920450060
h            5.58471686606636       -5.85301296087472       -6.11196497324968
h            4.09720262107353       -6.04178890736044       -5.76350309587935
o           -3.86940860570770       -1.37106371829696       -5.28036891780295
h           -3.16783064229817       -1.17680896681929       -5.91749987969185
h           -3.99727056884510       -0.59536785236378       -4.70934380498099
o           -1.50437112392887       -0.28278501046406        8.11619337210337
h           -1.50697883148702       -0.80212408838104        7.28115248817584
h           -1.06474552521580        0.56080468246998        7.90079109278802
o           -4.91119941785326       -3.98687862590896       -4.35289699415104
h           -4.68900263946806       -4.92674437141096       -4.21709088735048
h           -4.42934240545846       -3.67625383432817       -5.13499274589064
o           -2.59106319920854       -4.33586148753154       -2.48424237821918
h           -3.55181880827261       -4.39093291292230       -2.32521528507342
h           -2.25815579169500       -3.74222478460756       -1.77522814129947
o           -7.87219829064064        3.65889929873821       -0.93274599376247
h           -8.02708337457088        4.57611479764133       -0.66270252891621
h           -8.72284516792021        3.27162595466831       -1.15330701159976
o           -5.03434250432868       -4.65319915438972       -1.44673890857604
h           -5.77575455894237       -5.28370273739348       -1.53136561632456
h           -4.65586553744246       -4.79304560571509       -0.56019612032650
o            8.24831619914538       -2.27715225093230        5.63741290677755
h            8.04310153838448       -3.07059277341920        5.10585788579336
h            7.84260662398618       -2.41483506205883        6.49340339286130
o           -0.79232319969050        3.62756898804470       -5.54675685738817
h           -1.28801342600208        4.46181262224627       -5.42598087449338
h            0.10087837944098        3.90890632754292       -5.78855044405554
o            6.88484111314448        5.75043787679108       -3.96644217100534
h            7.01483107888480        6.63255899585050       -3.56513103393762
h            6.69107254522168        5.18205115882435       -3.18797101482948
o          -12.14302154060605       -3.24626890322065       -0.22448092967345
h          -12.56389629655871       -2.38052768664166       -0.06422406894141
h          -12.06901472777221       -3.33627261567033       -1.18267805507472
o            3.47551320365228        3.98644160184963        2.96126591466262
h            3.66361991539994        3.84383804597979        2.00991382802621
h            3.91372676709568        3.22929357909560        3.40570152562910
o           -0.00705324124557        1.86749405523926        7.51931368128015
h            0.07579687756805        2.57942565078844        6.85505374020847
h            0.88460507362873        1.64118600633567        7.79762739165902
o           -1.27245373724564       -1.88761656477256        5.97362037388478
h           -0.69980716167409       -2.55085405523946        6.41202009281146
h           -2.11742136355166       -2.37384894706105        5.87474954985809
o            1.44319874030412       -5.61640110392703        5.85443620754257
h            0.68283927044835       -6.16546690758597        5.60453691932753
h            2.21915493691357       -6.02139393085253        5.44612024972514
o           -1.06636523376569        3.61947882569534        0.02694984779989
h           -1.46946818646684        2.98401392385186       -0.58614437131914
h           -1.61489722257449        4.42348543810176       -0.07016263019046
o            2.65000248554051        0.48701667301597        8.24877131980323
h            3.39285274882083       -0.12052590671770        8.06676183468957
h            1.98746966040826       -0.08299603569988        8.65798545013777
o           -3.53285491903221       -7.37715849636892       -0.04718008192267
h           -3.80923150229075       -6.52924661223554        0.33020032096520