      -----------------------------------------------------------      
     |                   =====================                   |     
     |                           x T B                           |     
     |                   =====================                   |     
     |                         S. Grimme                         |     
     |          Mulliken Center for Theoretical Chemistry        |     
     |                    University of Bonn                     |     
      -----------------------------------------------------------      

   * xtb version 6.5.1 (579679a) compiled by 'ehlert@majestix' on 2022-07-11

   xtb is free software: you can redistribute it and/or modify it under
   the terms of the GNU Lesser General Public License as published by
   the Free Software Foundation, either version 3 of the License, or
   (at your option) any later version.
   
   xtb is distributed in the hope that it will be useful,
   but WITHOUT ANY WARRANTY; without even the implied warranty of
   MERCHANTABILITY or FITNESS FOR A PARTICULAR PURPOSE.  See the
   GNU Lesser General Public License for more details.
   
   Cite this work as:
   * C. Bannwarth, E. Caldeweyher, S. Ehlert, A. Hansen, P. Pracht,
     J. Seibert, S. Spicher, S. Grimme, WIREs Comput. Mol. Sci., 2020, 11,
     e01493. DOI: 10.1002/wcms.1493
   
   for GFN2-xTB:
   * C. Bannwarth, S. Ehlert and S. Grimme., J. Chem. Theory Comput., 2019,
     15, 1652-1671. DOI: 10.1021/acs.jctc.8b01176
   for GFN1-xTB:
   * S. Grimme, C. Bannwarth, P. Shushkov, J. Chem. Theory Comput., 2017,
     13, 1989-2009. DOI: 10.1021/acs.jctc.7b00118
   for GFN0-xTB:
   * P. Pracht, E. Caldeweyher, S. Ehlert, S. Grimme, ChemRxiv, 2019, preprint.
     DOI: 10.26434/chemrxiv.8326202.v1
   for GFN-FF:
   * S. Spicher and S. Grimme, Angew. Chem. Int. Ed., 2020, 59, 15665-15673.
     DOI: 10.1002/anie.202004239
   
   for ALPB and GBSA implicit solvation:
   * S. Ehlert, M. Stahn, S. Spicher, S. Grimme, J. Chem. Theory Comput.,
     2021, 17, 4250-4261. DOI: 10.1021/acs.jctc.1c00471
   
   for DFT-D4:
   * E. Caldeweyher, C. Bannwarth and S. Grimme, J. Chem. Phys., 2017,
     147, 034112. DOI: 10.1063/1.4993215
   * E. Caldeweyher, S. Ehlert, A. Hansen, H. Neugebauer, S. Spicher,
     C. Bannwarth and S. Grimme, J. Chem. Phys., 2019, 150, 154122.
     DOI: 10.1063/1.5090222
   * E. Caldeweyher, J.-M. Mewes, S. Ehlert and S. Grimme, Phys. Chem. Chem. Phys.
     2020, 22, 8499-8512. DOI: 10.1039/D0CP00502A
   
   for sTDA-xTB:
   * S. Grimme and C. Bannwarth, J. Chem. Phys., 2016, 145, 054103.
     DOI: 10.1063/1.4959605
   
   in the mass-spec context:
   * V. Asgeirsson, C. Bauer and S. Grimme, Chem. Sci., 2017, 8, 4879.
     DOI: 10.1039/c7sc00601b
   * J. Koopman and S. Grimme, ACS Omega 2019, 4, 12, 15120-15133.
     DOI: 10.1021/acsomega.9b02011
   
   for metadynamics refer to:
   * S. Grimme, J. Chem. Theory Comput., 2019, 155, 2847-2862
     DOI: 10.1021/acs.jctc.9b00143
   
   for SPH calculations refer to:
   * S. Spicher and S. Grimme, J. Chem. Theory Comput., 2021, 17, 1701-1714
     DOI: 10.1021/acs.jctc.0c01306
   
   with help from (in alphabetical order)
   P. Atkinson, C. Bannwarth, F. Bohle, G. Brandenburg, E. Caldeweyher
   M. Checinski, S. Dohm, S. Ehlert, S. Ehrlich, I. Gerasimov, C. Hölzer
   A. Katbashev, J. Koopman, C. Lavigne, S. Lehtola, F. März, M. Müller,
   F. Musil, H. Neugebauer, J. Pisarek, C. Plett, P. Pracht, F. Pultar,
   J. Seibert, P. Shushkov, S. Spicher, M. Stahn, M. Steiner, T. Strunk,
   J. Stückrath, T. Rose, and J. Unsleber
   
 * started run on 2022/11/24 at 09:07:52.368     

           -------------------------------------------------
          |                Calculation Setup                |
           -------------------------------------------------

          program call               : xtb solvent_cluster.coord --gfn2 --input xcontrol --opt 1
          hostname                   : cn0341
          coordinate file            : solvent_cluster.coord
          omp threads                :                     2

   ID    Z sym.   atoms
    1    8 o      1, 4, 7, 10, 13, 16, 19, 22, 25, 28, 31, 34, 37, 40, 43,
                  46, 49, 52, 55, 58, 61, 64, 67, 70, 73, 76, 79, 82, 85, 88,
                  91, 94, 97, 100, 103, 106, 109, 112, 115, 118, 121, 124,
                  127, 130, 133, 136, 139, 142, 145, 148, 151, 154, 157, 160,
                  163, 166, 169, 172, 175, 178, 181, 184, 187, 190, 193, 196,
                  199, 202, 205, 208, 211, 214, 217, 220, 223, 226, 229, 232,
                  235, 238, 241, 244, 247, 250, 253, 256, 259, 262, 265, 268,
                  271, 274, 277, 280, 283, 286, 289, 292, 295, 298, 301, 304,
                  307, 310, 313, 316, 319, 322, 325, 328, 331, 334, 337, 340,
                  343, 346, 349, 352, 355, 358, 361, 364, 367, 370, 373, 376,
                  379, 382, 385, 388, 391, 394, 397, 400, 403, 406, 409, 412,
                  415, 418, 421, 424, 427, 430, 433, 436, 439, 442, 445, 448,
                  451, 454, 457, 460, 463, 466, 469, 472, 475, 478, 481, 484,
                  487, 490, 493, 496, 499, 502, 505, 508, 511, 514, 517, 520,
                  523, 526, 529, 532, 535, 538, 541, 544, 547, 550, 553, 556,
                  559, 562, 565, 568, 571, 574, 577, 580, 583, 586, 589, 592,
                  595, 598, 601, 604, 607, 610, 613, 616, 619, 622, 625, 628,
                  631, 634, 637, 640, 643, 646, 649, 652, 655, 658, 661, 664,
                  667, 670, 673, 676, 679, 682, 685, 688, 691, 694, 697, 700,
                  703, 706, 709, 712, 715, 718, 721, 724, 727, 730, 733, 736,
                  739, 742, 745, 748, 751, 754
    2    1 h      2, 3, 5, 6, 8, 9, 11, 12, 14, 15, 17, 18, 20, 21, 23, 24,
                  26, 27, 29, 30, 32, 33, 35, 36, 38, 39, 41, 42, 44, 45, 47,
                  48, 50, 51, 53, 54, 56, 57, 59, 60, 62, 63, 65, 66, 68, 69,
                  71, 72, 74, 75, 77, 78, 80, 81, 83, 84, 86, 87, 89, 90, 92,
                  93, 95, 96, 98, 99, 101, 102, 104, 105, 107, 108, 110, 111,
                  113, 114, 116, 117, 119, 120, 122, 123, 125, 126, 128, 129,
                  131, 132, 134, 135, 137, 138, 140, 141, 143, 144, 146, 147,
                  149, 150, 152, 153, 155, 156, 158, 159, 161, 162, 164, 165,
                  167, 168, 170, 171, 173, 174, 176, 177, 179, 180, 182, 183,
                  185, 186, 188, 189, 191, 192, 194, 195, 197, 198, 200, 201,
                  203, 204, 206, 207, 209, 210, 212, 213, 215, 216, 218, 219,
                  221, 222, 224, 225, 227, 228, 230, 231, 233, 234, 236, 237,
                  239, 240, 242, 243, 245, 246, 248, 249, 251, 252, 254, 255,
                  257, 258, 260, 261, 263, 264, 266, 267, 269, 270, 272, 273,
                  275, 276, 278, 279, 281, 282, 284, 285, 287, 288, 290, 291,
                  293, 294, 296, 297, 299, 300, 302, 303, 305, 306, 308, 309,
                  311, 312, 314, 315, 317, 318, 320, 321, 323, 324, 326, 327,
                  329, 330, 332, 333, 335, 336, 338, 339, 341, 342, 344, 345,
                  347, 348, 350, 351, 353, 354, 356, 357, 359, 360, 362, 363,
                  365, 366, 368, 369, 371, 372, 374, 375, 377, 378, 380, 381,
                  383, 384, 386, 387, 389, 390, 392, 393, 395, 396, 398, 399,
                  401, 402, 404, 405, 407, 408, 410, 411, 413, 414, 416, 417,
                  419, 420, 422, 423, 425, 426, 428, 429, 431, 432, 434, 435,
                  437, 438, 440, 441, 443, 444, 446, 447, 449, 450, 452, 453,
                  455, 456, 458, 459, 461, 462, 464, 465, 467, 468, 470, 471,
                  473, 474, 476, 477, 479, 480, 482, 483, 485, 486, 488, 489,
                  491, 492, 494, 495, 497, 498, 500, 501, 503, 504, 506, 507,
                  509, 510, 512, 513, 515, 516, 518, 519, 521, 522, 524, 525,
                  527, 528, 530, 531, 533, 534, 536, 537, 539, 540, 542, 543,
                  545, 546, 548, 549, 551, 552, 554, 555, 557, 558, 560, 561,
                  563, 564, 566, 567, 569, 570, 572, 573, 575, 576, 578, 579,
                  581, 582, 584, 585, 587, 588, 590, 591, 593, 594, 596, 597,
                  599, 600, 602, 603, 605, 606, 608, 609, 611, 612, 614, 615,
                  617, 618, 620, 621, 623, 624, 626, 627, 629, 630, 632, 633,
                  635, 636, 638, 639, 641, 642, 644, 645, 647, 648, 650, 651,
                  653, 654, 656, 657, 659, 660, 662, 663, 665, 666, 668, 669,
                  671, 672, 674, 675, 677, 678, 680, 681, 683, 684, 686, 687,
                  689, 690, 692, 693, 695, 696, 698, 699, 701, 702, 704, 705,
                  707, 708, 710, 711, 713, 714, 716, 717, 719, 720, 722, 723,
                  725, 726, 728, 729, 731, 732, 734, 735, 737, 738, 740, 741,
                  743, 744, 746, 747, 749, 750, 752, 753, 755, 756

molecular fragmentation (1/2 indicates fragments):
111222222222222222222222222222222222222222222222222222222222222222222222
222222222222222222222222222222222222222222222222222222222222222222222222
222222222222222222222222222222222222222222222222222222222222222222222222
222222222222222222222222222222222222222222222222222222222222222222222222
222222222222222222222222222222222222222222222222222222222222222222222222
222222222222222222222222222222222222222222222222222222222222222222222222
222222222222222222222222222222222222222222222222222222222222222222222222
222222222222222222222222222222222222222222222222222222222222222222222222
222222222222222222222222222222222222222222222222222222222222222222222222
222222222222222222222222222222222222222222222222222222222222222222222222
222222222222222222222222222222222222
# atoms in fragment 1/2:     3   753
 fragment masses (1/2) :       18.02     4521.84
CMA distance (Bohr)    :  16.933
constraining FC (au)   :  0.0500

           -------------------------------------------------
          |                 G F N 2 - x T B                 |
           -------------------------------------------------

        Reference                      10.1021/acs.jctc.8b01176
      * Hamiltonian:
        H0-scaling (s, p, d)           1.850000    2.230000    2.230000
        zeta-weighting                 0.500000
      * Dispersion:
        s8                             2.700000
        a1                             0.520000
        a2                             5.000000
        s9                             5.000000
      * Repulsion:
        kExp                           1.500000    1.000000
        rExp                           1.000000
      * Coulomb:
        alpha                          2.000000
        third order                    shell-resolved
        anisotropic                    true
        a3                             3.000000
        a5                             4.000000
        cn-shift                       1.200000
        cn-exp                         4.000000
        max-rad                        5.000000


          ...................................................
          :                      SETUP                      :
          :.................................................:
          :  # basis functions                1512          :
          :  # atomic orbitals                1512          :
          :  # shells                         1008          :
          :  # electrons                      2016          :
          :  max. iterations                   250          :
          :  Hamiltonian                  GFN2-xTB          :
          :  restarted?                      false          :
          :  GBSA solvation                  false          :
          :  PC potential                    false          :
          :  electronic temp.          300.0000000     K    :
          :  accuracy                    1.0000000          :
          :  -> integral cutoff          0.2500000E+02      :
          :  -> integral neglect         0.1000000E-07      :
          :  -> SCF convergence          0.1000000E-05 Eh   :
          :  -> wf. convergence          0.1000000E-03 e    :
          :  Broyden damping             0.4000000          :
          ...................................................

 iter      E             dE          RMSdq      gap      omega  full diag
   1  -1291.0109274 -0.129101E+04  0.407E+00    8.45       0.0  T
   2  -1291.0837573 -0.728300E-01  0.242E+00    8.38       1.0  T
   3  -1291.1150157 -0.312583E-01  0.210E-01    7.81       1.0  T
   4  -1291.1201334 -0.511769E-02  0.453E-02    8.03       1.0  T
   5  -1291.1202131 -0.797787E-04  0.308E-02    8.00       1.0  T
   6  -1291.1202523 -0.391815E-04  0.411E-03    8.01       1.0  T
   7  -1291.1202545 -0.214271E-05  0.786E-04    8.01       4.6  T
   8  -1291.1202545 -0.348230E-07  0.417E-04    8.01       8.7  T
   9  -1291.1202545 -0.172477E-07  0.588E-05    8.01      61.8  T

   *** convergence criteria satisfied after 9 iterations ***

         #    Occupation            Energy/Eh            Energy/eV
      -------------------------------------------------------------
         1        2.0000           -0.6882234             -18.7275
       ...           ...                  ...                  ...
      1002        2.0000           -0.4112913             -11.1918
      1003        2.0000           -0.4102354             -11.1631
      1004        2.0000           -0.4095844             -11.1454
      1005        2.0000           -0.4082169             -11.1081
      1006        2.0000           -0.4056937             -11.0395
      1007        2.0000           -0.4035653             -10.9816
      1008        2.0000           -0.4003497             -10.8941 (HOMO)
      1009                         -0.1058957              -2.8816 (LUMO)
      1010                         -0.0945186              -2.5720
      1011                         -0.0835997              -2.2749
      1012                         -0.0825526              -2.2464
      1013                         -0.0726093              -1.9758
       ...                                ...                  ...
      1512                          0.4358048              11.8589
      -------------------------------------------------------------
                  HL-Gap            0.2944540 Eh            8.0125 eV
             Fermi-level           -0.2531227 Eh           -6.8878 eV

 SCC (total)                   0 d,  0 h,  0 min, 21.597 sec
 SCC setup                      ...        0 min,  0.041 sec (  0.191%)
 Dispersion                     ...        0 min,  0.110 sec (  0.509%)
 classical contributions        ...        0 min,  0.023 sec (  0.107%)
 integral evaluation            ...        0 min,  0.596 sec (  2.758%)
 iterations                     ...        0 min,  8.254 sec ( 38.219%)
 molecular gradient             ...        0 min, 12.508 sec ( 57.916%)
 printout                       ...        0 min,  0.065 sec (  0.300%)

         :::::::::::::::::::::::::::::::::::::::::::::::::::::
         ::                     SUMMARY                     ::
         :::::::::::::::::::::::::::::::::::::::::::::::::::::
         :: total energy           -1283.315563449490 Eh    ::
         :: gradient norm              0.066028340534 Eh/a0 ::
         :: HOMO-LUMO gap              8.012501062456 eV    ::
         ::.................................................::
         :: SCC energy             -1291.120254506567 Eh    ::
         :: -> isotropic ES            7.161584840056 Eh    ::
         :: -> anisotropic ES         -1.613269859696 Eh    ::
         :: -> anisotropic XC         -0.126475006260 Eh    ::
         :: -> dispersion             -0.796323245191 Eh    ::
         :: repulsion energy           7.648640652998 Eh    ::
         :: add. restraining           0.000000000000 Eh    ::
         :: total charge              -0.000000000000 e     ::
         :::::::::::::::::::::::::::::::::::::::::::::::::::::

      ----------------------------------------------------------- 
     |                       L-ANC optimizer                     |
      ----------------------------------------------------------- 
          low memory version by Sebastian Ehlert

          ...................................................
          :                      SETUP                      :
          :.................................................:
          :   energy convergence        0.1000000E-05 Eh    :
          :   grad. convergence         0.8000000E-03 Eh/a0 :
          :   optimization log               true           :
          :   writing optlog all                1     steps :
          :   Hessian reset                    20     steps :
          :   maximium step len.        1.0000000     a0    :
          :   LBFGS images                     20           :
          ...................................................
 * calculating model hessian...
Using Lindh-Hessian (1995)
 Shifting diagonal of input Hessian by   1.000011185836968E-002
 Lowest  eigenvalues of input Hessian
    0.010000   -0.000000   -0.000000   -0.000000   -0.000000   -0.000000
   -0.000000   -0.000000   -0.000000   -0.000000   -0.000000   -0.000000
   -0.000000   -0.000000   -0.000000   -0.000000   -0.000000   -0.000000
 Highest eigenvalues
    0.312496    0.319695    1.217068    1.226244    1.438796    1.447715
 

........................................................................
.............................. CYCLE    1 ..............................
........................................................................
   1  -1291.1206348 -0.129112E+04  0.112E-02    8.05       0.0  T
   2  -1291.1206405 -0.577846E-05  0.653E-03    8.07       1.0  T
   3  -1291.1206417 -0.118101E-05  0.148E-03    8.08       2.5  T
   4  -1291.1206419 -0.142851E-06  0.257E-04    8.08      14.1  T
   5  -1291.1206419 -0.201817E-08  0.428E-05    8.08      85.1  T
     SCC iter.                  ...        0 min,  3.775 sec
     gradient                   ...        0 min, 12.469 sec
 * total energy  : -1283.3170339 Eh     change       -0.1470461E-02 Eh
   gradient norm :     0.0034699 Eh/a0  converged?    E=F G=F D=F
   step length   :     0.3249748 a0

........................................................................
.............................. CYCLE    2 ..............................
........................................................................
   1  -1291.1205164 -0.129112E+04  0.137E-02    8.09       0.0  T
   2  -1291.1205260 -0.958304E-05  0.785E-03    8.09       1.0  T
   3  -1291.1205278 -0.183250E-05  0.185E-03    8.09       2.0  T
   4  -1291.1205281 -0.229421E-06  0.351E-04    8.09      10.4  T
   5  -1291.1205281 -0.472642E-08  0.594E-05    8.09      61.3  T
     SCC iter.                  ...        0 min,  3.530 sec
     gradient                   ...        0 min, 12.401 sec
 * total energy  : -1283.3180592 Eh     change       -0.1025311E-02 Eh
   gradient norm :     0.0092815 Eh/a0  converged?    E=F G=F D=F
   step length   :     0.5239577 a0

........................................................................
.............................. CYCLE    3 ..............................
........................................................................
   1  -1291.1209175 -0.129112E+04  0.113E-02    8.08       0.0  T
   2  -1291.1209208 -0.333455E-05  0.679E-03    8.08       1.0  T
   3  -1291.1209216 -0.761520E-06  0.106E-03    8.08       3.4  T
   4  -1291.1209217 -0.111879E-06  0.225E-04    8.08      16.1  T
   5  -1291.1209217 -0.160981E-08  0.360E-05    8.08     101.1  T
     SCC iter.                  ...        0 min,  3.324 sec
     gradient                   ...        0 min, 12.410 sec
 * total energy  : -1283.3184796 Eh     change       -0.4203346E-03 Eh
   gradient norm :     0.0057979 Eh/a0  converged?    E=F G=F D=F
   step length   :     0.3802648 a0

........................................................................
.............................. CYCLE    4 ..............................
........................................................................
   1  -1291.1201845 -0.129112E+04  0.141E-02    8.06       0.0  T
   2  -1291.1201895 -0.502093E-05  0.846E-03    8.06       1.0  T
   3  -1291.1201906 -0.112902E-05  0.128E-03    8.06       2.8  T
   4  -1291.1201908 -0.172784E-06  0.288E-04    8.06      12.6  T
   5  -1291.1201908 -0.308637E-08  0.481E-05    8.06      75.7  T
     SCC iter.                  ...        0 min,  3.277 sec
     gradient                   ...        0 min, 12.459 sec
 * total energy  : -1283.3187128 Eh     change       -0.2332011E-03 Eh
   gradient norm :     0.0103049 Eh/a0  converged?    E=F G=F D=F
   step length   :     0.3884768 a0

........................................................................
.............................. CYCLE    5 ..............................
........................................................................
   1  -1291.1211203 -0.129112E+04  0.831E-03    8.05       0.0  T
   2  -1291.1211211 -0.796048E-06  0.513E-03    8.05       1.0  T
   3  -1291.1211215 -0.368900E-06  0.475E-04    8.05       7.7  T
   4  -1291.1211215 -0.176447E-07  0.136E-04    8.05      26.7  T
     SCC iter.                  ...        0 min,  2.595 sec
     gradient                   ...        0 min, 12.442 sec
 * total energy  : -1283.3188804 Eh     change       -0.1676159E-03 Eh
   gradient norm :     0.0093442 Eh/a0  converged?    E=F G=F D=F
   step length   :     0.1497667 a0

........................................................................
.............................. CYCLE    6 ..............................
........................................................................
   1  -1291.1239080 -0.129112E+04  0.133E-02    8.02       0.0  T
   2  -1291.1239121 -0.406706E-05  0.785E-03    8.02       1.0  T
   3  -1291.1239129 -0.755845E-06  0.115E-03    8.03       3.2  T
   4  -1291.1239130 -0.132637E-06  0.214E-04    8.03      17.0  T
   5  -1291.1239130 -0.171281E-08  0.422E-05    8.03      86.1  T
     SCC iter.                  ...        0 min,  3.238 sec
     gradient                   ...        0 min, 12.450 sec
 * total energy  : -1283.3191039 Eh     change       -0.2235231E-03 Eh
   gradient norm :     0.0060759 Eh/a0  converged?    E=F G=F D=F
   step length   :     0.3413434 a0

........................................................................
.............................. CYCLE    7 ..............................
........................................................................
   1  -1291.1180271 -0.129112E+04  0.180E-02    7.97       0.0  T
   2  -1291.1180309 -0.377317E-05  0.111E-02    7.97       1.0  T
   3  -1291.1180329 -0.200673E-05  0.107E-03    7.98       3.4  T
   4  -1291.1180330 -0.794362E-07  0.368E-04    7.97       9.9  T
   5  -1291.1180330 -0.504610E-08  0.406E-05    7.97      89.6  T
     SCC iter.                  ...        0 min,  3.299 sec
     gradient                   ...        0 min, 12.424 sec
 * total energy  : -1283.3190316 Eh     change        0.7230183E-04 Eh
   gradient norm :     0.0201593 Eh/a0  converged?    E=F G=F D=F
   step length   :     0.3291317 a0

........................................................................
.............................. CYCLE    8 ..............................
........................................................................
   1  -1291.1230871 -0.129112E+04  0.140E-02    8.01       0.0  T
   2  -1291.1230906 -0.348395E-05  0.843E-03    8.00       1.0  T
   3  -1291.1230915 -0.887924E-06  0.106E-03    8.00       3.4  T
   4  -1291.1230916 -0.119417E-06  0.269E-04    8.00      13.5  T
   5  -1291.1230916 -0.205159E-08  0.379E-05    8.00      95.9  T
     SCC iter.                  ...        0 min,  3.229 sec
     gradient                   ...        0 min, 12.463 sec
 * total energy  : -1283.3192682 Eh     change       -0.2366316E-03 Eh
   gradient norm :     0.0069001 Eh/a0  converged?    E=F G=F D=F
   step length   :     0.2814180 a0

........................................................................
.............................. CYCLE    9 ..............................
........................................................................
   1  -1291.1220488 -0.129112E+04  0.742E-03    7.99       0.0  T
   2  -1291.1220513 -0.253794E-05  0.430E-03    7.99       1.0  T
   3  -1291.1220517 -0.396520E-06  0.924E-04    8.00       3.9  T
   4  -1291.1220518 -0.582136E-07  0.139E-04    8.00      26.1  T
     SCC iter.                  ...        0 min,  2.574 sec
     gradient                   ...        0 min, 12.440 sec
 * total energy  : -1283.3193804 Eh     change       -0.1121649E-03 Eh
   gradient norm :     0.0063090 Eh/a0  converged?    E=F G=F D=F
   step length   :     0.2170740 a0

........................................................................
.............................. CYCLE   10 ..............................
........................................................................
   1  -1291.1214454 -0.129112E+04  0.828E-03    7.96       0.0  T
   2  -1291.1214465 -0.113109E-05  0.511E-03    7.97       1.0  T
   3  -1291.1214471 -0.561135E-06  0.613E-04    7.97       5.9  T
   4  -1291.1214471 -0.302732E-07  0.204E-04    7.97      17.8  T
     SCC iter.                  ...        0 min,  2.559 sec
     gradient                   ...        0 min, 12.471 sec
 * total energy  : -1283.3195521 Eh     change       -0.1716667E-03 Eh
   gradient norm :     0.0076185 Eh/a0  converged?    E=F G=F D=F
   step length   :     0.2049991 a0

........................................................................
.............................. CYCLE   11 ..............................
........................................................................
   1  -1291.1149725 -0.129111E+04  0.229E-02    7.88       0.0  T
   2  -1291.1149859 -0.133569E-04  0.142E-02    7.89       1.0  T
   3  -1291.1149905 -0.464001E-05  0.200E-03    7.90       1.8  T
   4  -1291.1149910 -0.463115E-06  0.640E-04    7.90       5.7  T
   5  -1291.1149910 -0.126010E-07  0.704E-05    7.90      51.7  T
     SCC iter.                  ...        0 min,  3.165 sec
     gradient                   ...        0 min, 12.564 sec
 * total energy  : -1283.3194167 Eh     change        0.1353421E-03 Eh
   gradient norm :     0.0294926 Eh/a0  converged?    E=F G=F D=F
   step length   :     0.5771004 a0

........................................................................
.............................. CYCLE   12 ..............................
........................................................................
   1  -1291.1220467 -0.129112E+04  0.143E-02    7.94       0.0  T
   2  -1291.1220507 -0.399959E-05  0.879E-03    7.93       1.0  T
   3  -1291.1220526 -0.189244E-05  0.115E-03    7.93       3.2  T
   4  -1291.1220527 -0.101055E-06  0.380E-04    7.93       9.6  T
   5  -1291.1220527 -0.461614E-08  0.386E-05    7.93      94.2  T
     SCC iter.                  ...        0 min,  3.134 sec
     gradient                   ...        0 min, 12.596 sec
 * total energy  : -1283.3199095 Eh     change       -0.4927775E-03 Eh
   gradient norm :     0.0081943 Eh/a0  converged?    E=F G=F D=F
   step length   :     0.2763284 a0

........................................................................
.............................. CYCLE   13 ..............................
........................................................................
   1  -1291.1218897 -0.129112E+04  0.792E-03    7.91       0.0  T
   2  -1291.1218905 -0.738595E-06  0.485E-03    7.91       1.0  T
   3  -1291.1218908 -0.317847E-06  0.481E-04    7.91       7.6  T
   4  -1291.1218908 -0.206842E-07  0.154E-04    7.91      23.6  T
     SCC iter.                  ...        0 min,  2.506 sec
     gradient                   ...        0 min, 12.558 sec
 * total energy  : -1283.3201100 Eh     change       -0.2004927E-03 Eh
   gradient norm :     0.0073149 Eh/a0  converged?    E=F G=F D=F
   step length   :     0.2149020 a0

........................................................................
.............................. CYCLE   14 ..............................
........................................................................
   1  -1291.1159173 -0.129112E+04  0.321E-02    7.83       0.0  T
   2  -1291.1159305 -0.131980E-04  0.196E-02    7.84       1.0  T
   3  -1291.1159346 -0.403599E-05  0.193E-03    7.84       1.9  T
   4  -1291.1159350 -0.459503E-06  0.562E-04    7.84       6.5  T
   5  -1291.1159350 -0.933733E-08  0.784E-05    7.84      46.4  T
     SCC iter.                  ...        0 min,  3.108 sec
     gradient                   ...        0 min, 12.556 sec
 * total energy  : -1283.3198295 Eh     change        0.2804883E-03 Eh
   gradient norm :     0.0259678 Eh/a0  converged?    E=F G=F D=F
   step length   :     0.9251367 a0

........................................................................
.............................. CYCLE   15 ..............................
........................................................................
   1  -1291.1235484 -0.129112E+04  0.226E-02    7.89       0.0  T
   2  -1291.1235554 -0.698467E-05  0.137E-02    7.89       1.0  T
   3  -1291.1235575 -0.212525E-05  0.146E-03    7.89       2.5  T
   4  -1291.1235577 -0.238101E-06  0.425E-04    7.89       8.6  T
   5  -1291.1235578 -0.475393E-08  0.516E-05    7.89      70.5  T
     SCC iter.                  ...        0 min,  3.079 sec
     gradient                   ...        0 min, 12.476 sec
 * total energy  : -1283.3203291 Eh     change       -0.4995733E-03 Eh
   gradient norm :     0.0053902 Eh/a0  converged?    E=F G=F D=F
   step length   :     0.6062482 a0

........................................................................
.............................. CYCLE   16 ..............................
........................................................................
   1  -1291.1227546 -0.129112E+04  0.557E-03    7.88       0.0  T
   2  -1291.1227551 -0.410703E-06  0.344E-03    7.88       1.1  T
   3  -1291.1227552 -0.163127E-06  0.339E-04    7.88      10.7  T
   4  -1291.1227552 -0.117827E-07  0.106E-04    7.88      34.2  T
     SCC iter.                  ...        0 min,  2.436 sec
     gradient                   ...        0 min, 12.496 sec
 * total energy  : -1283.3204045 Eh     change       -0.7545340E-04 Eh
   gradient norm :     0.0030614 Eh/a0  converged?    E=F G=F D=F
   step length   :     0.0966491 a0

........................................................................
.............................. CYCLE   17 ..............................
........................................................................
   1  -1291.1209806 -0.129112E+04  0.124E-02    7.86       0.0  T
   2  -1291.1209821 -0.149626E-05  0.767E-03    7.86       1.0  T
   3  -1291.1209827 -0.566626E-06  0.608E-04    7.86       6.0  T
   4  -1291.1209827 -0.428349E-07  0.188E-04    7.86      19.3  T
     SCC iter.                  ...        0 min,  2.436 sec
     gradient                   ...        0 min, 12.491 sec
 * total energy  : -1283.3204562 Eh     change       -0.5167296E-04 Eh
   gradient norm :     0.0085121 Eh/a0  converged?    E=F G=F D=F
   step length   :     0.2896801 a0

........................................................................
.............................. CYCLE   18 ..............................
........................................................................
   1  -1291.1221548 -0.129112E+04  0.288E-03    7.87       0.0  T
   2  -1291.1221549 -0.995631E-07  0.174E-03    7.86       2.1  T
   3  -1291.1221549 -0.314076E-07  0.182E-04    7.86      20.0  T
   4  -1291.1221549 -0.318187E-08  0.513E-05    7.86      70.9  T
     SCC iter.                  ...        0 min,  2.467 sec
     gradient                   ...        0 min, 12.387 sec
 * total energy  : -1283.3204951 Eh     change       -0.3885473E-04 Eh
   gradient norm :     0.0038042 Eh/a0  converged?    E=F G=F D=F
   step length   :     0.0705535 a0

........................................................................
.............................. CYCLE   19 ..............................
........................................................................
   1  -1291.1228263 -0.129112E+04  0.307E-03    7.87       0.0  T
   2  -1291.1228265 -0.158923E-06  0.186E-03    7.86       2.0  T
   3  -1291.1228265 -0.399784E-07  0.220E-04    7.86      16.5  T
   4  -1291.1228265 -0.527552E-08  0.461E-05    7.86      78.9  T
     SCC iter.                  ...        0 min,  2.432 sec
     gradient                   ...        0 min, 12.294 sec
 * total energy  : -1283.3205250 Eh     change       -0.2990091E-04 Eh
   gradient norm :     0.0014610 Eh/a0  converged?    E=F G=F D=F
   step length   :     0.0550203 a0

........................................................................
.............................. CYCLE   20 ..............................
........................................................................
   1  -1291.1229141 -0.129112E+04  0.794E-03    7.86       0.0  T
   2  -1291.1229148 -0.668780E-06  0.489E-03    7.86       1.0  T
   3  -1291.1229150 -0.232272E-06  0.393E-04    7.86       9.3  T
   4  -1291.1229150 -0.195928E-07  0.106E-04    7.86      34.2  T
     SCC iter.                  ...        0 min,  2.437 sec
     gradient                   ...        0 min, 12.279 sec
 * total energy  : -1283.3205443 Eh     change       -0.1931256E-04 Eh
   gradient norm :     0.0019667 Eh/a0  converged?    E=F G=F D=F
   step length   :     0.1460461 a0
 * RMSD in coord.:     0.0946468 a0     energy gain  -0.4980816E-02 Eh
 * calculating model hessian...
Using Lindh-Hessian (1995)
 Shifting diagonal of input Hessian by   1.000010574677134E-002
 Lowest  eigenvalues of input Hessian
    0.010000    0.010000   -0.000000   -0.000000   -0.000000   -0.000000
   -0.000000   -0.000000   -0.000000   -0.000000   -0.000000   -0.000000
   -0.000000   -0.000000   -0.000000   -0.000000   -0.000000   -0.000000
 Highest eigenvalues
    0.307829    0.313587    1.197087    1.211213    1.429844    1.443086
 

........................................................................
.............................. CYCLE   21 ..............................
........................................................................
   1  -1291.1228684 -0.129112E+04  0.309E-03    7.86       0.0  T
   2  -1291.1228685 -0.100893E-06  0.189E-03    7.86       1.9  T
   3  -1291.1228685 -0.283837E-07  0.176E-04    7.86      20.6  T
   4  -1291.1228685 -0.375508E-08  0.440E-05    7.86      82.7  T
     SCC iter.                  ...        0 min,  2.451 sec
     gradient                   ...        0 min, 12.347 sec
 * total energy  : -1283.3205634 Eh     change       -0.1914181E-04 Eh
   gradient norm :     0.0005659 Eh/a0  converged?    E=F G=T D=F
   step length   :     0.0471282 a0

........................................................................
.............................. CYCLE   22 ..............................
........................................................................
   1  -1291.1228168 -0.129112E+04  0.375E-03    7.86       0.0  T
   2  -1291.1228170 -0.190766E-06  0.229E-03    7.86       1.6  T
   3  -1291.1228170 -0.538821E-07  0.239E-04    7.86      15.2  T
   4  -1291.1228170 -0.715158E-08  0.605E-05    7.86      60.1  T
     SCC iter.                  ...        0 min,  2.464 sec
     gradient                   ...        0 min, 12.179 sec
 * total energy  : -1283.3205736 Eh     change       -0.1014460E-04 Eh
   gradient norm :     0.0011043 Eh/a0  converged?    E=F G=F D=F
   step length   :     0.0593194 a0

........................................................................
.............................. CYCLE   23 ..............................
........................................................................
   1  -1291.1229155 -0.129112E+04  0.105E-03    7.86       0.0  T
   2  -1291.1229155 -0.144164E-07  0.643E-04    7.86       5.7  T
   3  -1291.1229155 -0.453292E-08  0.636E-05    7.86      57.2  T
     SCC iter.                  ...        0 min,  1.817 sec
     gradient                   ...        0 min, 12.148 sec
 * total energy  : -1283.3205755 Eh     change       -0.1924039E-05 Eh
   gradient norm :     0.0002592 Eh/a0  converged?    E=F G=T D=F
   step length   :     0.0202076 a0

........................................................................
.............................. CYCLE   24 ..............................
........................................................................
   1  -1291.1229380 -0.129112E+04  0.701E-04    7.86       0.0  T
   2  -1291.1229380 -0.504815E-08  0.434E-04    7.86       8.4  T
   3  -1291.1229380 -0.214209E-08  0.332E-05    7.86     109.7  T
     SCC iter.                  ...        0 min,  1.787 sec
     gradient                   ...        0 min, 12.162 sec
 * total energy  : -1283.3205758 Eh     change       -0.3361438E-06 Eh
   gradient norm :     0.0001411 Eh/a0  converged?    E=T G=T D=F
   step length   :     0.0094241 a0

   *** GEOMETRY OPTIMIZATION CONVERGED AFTER 24 CYCLES ***

------------------------------------------------------------------------
 total energy gain   :        -0.0050124 Eh       -3.1453 kcal/mol
 total RMSD          :         0.0949484 a0        0.0502 Å
 total power (kW/mol):        -0.5483315 (step)   -0.0325 (real)
------------------------------------------------------------------------

 L-ANCopt (total)              0 d,  0 h,  6 min, 45.415 sec
 setup                          ...        0 min,  0.030 sec (  0.007%)
 model hessian                  ...        0 min, 15.152 sec (  3.738%)
 ANC generation                 ...        0 min,  4.962 sec (  1.224%)
 coordinate transformation      ...        0 min,  0.002 sec (  0.000%)
 Rational function              ...        0 min,  0.000 sec (  0.000%)
 singlepoint calculation        ...        6 min, 25.097 sec ( 94.988%)
 optimization log               ...        0 min,  0.165 sec (  0.041%)
 hessian update                 ...        0 min,  0.000 sec (  0.000%)

================
 final structure:
================
$coord
       -4.87257576676700      -11.78247909670200      -11.05597706182600      o
       -5.53418324778400      -10.68307865742400      -12.35065980783100      h
       -6.26816777557700      -12.34583597639900      -10.01535478452000      h
        3.53349160128300       -3.73281584643300       -4.66933475788400      o
        2.19183288072500       -3.71653864982800       -5.92549781069600      h
        4.79848435248300       -2.56497397242700       -5.23605344870600      h
        5.99223088044300        2.72824985469000       -2.59302990287200      o
        7.20899798415400        3.93134797723500       -3.30690885885800      h
        6.97617173118900        1.63862371032300       -1.46911688249800      h
        8.97001140922000        0.87225585789500        1.04766053684900      o
       10.70223592279800        0.61085400173800        0.46922633807100      h
        8.99101997750200        2.65160073318300        1.56812925710400      h
        2.82151595799900        1.38402756119900       -6.38648283355900      o
        1.22287919968400        0.94611107212000       -5.57545436155000      h
        3.96843158037400        1.83767095226300       -5.02986789398300      h
       -7.31295223834800      -13.56437366545200        0.06764257935000      o
       -9.05790443640800      -14.06769587755900        0.29430934485000      h
       -7.37406254985300      -11.70174942003400        0.13457199049000      h
        7.76588175255300       -2.77494874080600        4.55723539084000      o
        6.14559123874700       -2.35710102660100        5.25557258941900      h
        8.24498113883400       -1.43895212390600        3.38499615289600      h
       -3.12669521456800       -6.65726680243200        0.41256769007800      o
       -2.04327728425100       -8.13977644693200        0.33155905924600      h
       -4.83645870308200       -7.32287590797100        0.47623062090800      h
        6.97577751904900       -7.41209504165000        2.87446831917900      o
        5.32888749074400       -7.33065084164800        2.04787814030400      h
        7.40158707292100       -5.65986633684900        3.33294828409700      h
        5.09361009711600        2.22538677323400        4.40620944180400      o
        6.73347101687600        2.34560119457900        5.26155702212100      h
        4.97438630488400        3.66368179123900        3.28348100766800      h
        3.91210864389800        5.29392793144600        8.64382949505400      o
        2.59733736574400        5.17692562242800        7.36709387965800      h
        4.47616159054200        3.55762327580000        8.98847876475300      h
       -2.08946451818400        2.31158383922200        7.69655707390000      o
       -1.14816095480000        2.96841771186500        6.26374322131700      h
       -2.27459574547900        0.48044431179800        7.48083693071000      h
       -0.13297753422000       -8.39247214458900      -12.68549919813300      o
       -1.88627896142000       -7.93720154962800      -12.77139899019800      h
        0.07773658282300       -9.37562100363100      -11.13860433628600      h
        0.44874779898900        5.29110441499300        4.64384781160100      o
        1.72200116989200        5.51139195078000        3.35356184523100      h
       -0.64636768178600        6.76727556773700        4.53514405702200      h
        9.49836478215300        6.09869903536700       -3.52857085261000      o
        9.81778219249300        6.21951772984300       -1.72679720761200      h
        9.09158369144600        7.79012194949600       -4.13286055640400      h
       -5.56108754937800       -2.85330723319400      -11.75077126216600      o
       -4.06564011915400       -2.37268663490900      -12.74313601722000      h
       -5.15852672146200       -2.75672521661300       -9.95851579412200      h
       -1.52873470092000        0.44022398732700       -4.12157375110900      o
       -2.76389974202600        1.32043725442800       -5.13150658042300      h
       -1.85743756789500        0.96417487988800       -2.33633590925700      h
      -13.98375285891900        0.23484652193900       -7.74664936244600      o
      -14.04864023200800        1.08800628999100       -9.36572105989600      h
      -12.85372877417300       -1.19221162734800       -7.90733513114300      h
      -11.41312278611500       -0.72441771647600       -2.85484323551600      o
      -13.16725907288600       -1.19284253578800       -3.15265839579000      h
      -11.48485025074600        0.79853646583400       -1.84819617759100      h
       -5.89864928549700        5.75136767649500        2.69999406456000      o
       -4.96233412656500        6.86609497751300        3.79656347043300      h
       -5.93874255802300        4.07765591892600        3.43582176490400      h
       -4.25698473796900        3.33057686719200       -7.45975967882700      o
       -5.98471498586300        2.75045129358000       -7.15478774768200      h
       -4.38703607709800        5.02471492936000       -8.16001479636500      h
        5.09089303213800       -1.70977359968200       -9.50909927970100      o
        3.89116367642100       -2.48261030868900      -10.67179003043300      h
        4.14547856232500       -0.52579101244800       -8.43362317817700      h
       -7.32718961128500       -3.49918856944100       -0.97295502890700      o
       -8.98754434761600       -2.88322575558100       -1.46307455161600      h
       -6.24948828696800       -2.05022834522400       -1.29219454214600      h
       -6.40035520649500        1.15933751423900       -2.54224785207100      o
       -7.91975569925300        1.60831824708400       -1.64771074894600      h
       -5.45310021617300        2.75893580687900       -2.58662242175700      h
       -6.22388175958300       -4.48555126650800        4.21858343005900      o
       -6.58107223069300       -4.14464211311700        2.44698667644900      h
       -5.42977486957800       -6.14547606259600        4.28476848646100      h
      -10.22335453908200        3.66264151751300        0.10120154388300      o
       -8.95076518839800        4.99012491523200        0.16955678915600      h
      -11.79171680714300        4.61866084495000       -0.07527019698500      h
       -1.78995068042000       -1.95900699304400      -14.98577037928700      o
       -0.16469616419300       -2.62981835840800      -14.42700730791000      h
       -1.51965997253900       -0.20608150187700      -15.34673759469600      h
        8.11679897242800       -3.36863351403300       -1.51592374906700      o
        7.57630825198300       -5.06068789633900       -2.04935639675800      h
        6.68201318665900       -2.61469736435800       -0.64319822057400      h
      -13.04992072656300       -6.19618303893100       -4.15199565491500      o
      -14.73127419515300       -6.18672560967600       -4.83668078084100      h
      -11.98962088015600       -5.20140163562600       -5.33884344595600      h
        9.71726227502700        5.70124225557200        1.78707647131300      o
        8.64798974751900        6.47646505123800        3.07062118013200      h
       11.38096157533300        5.51430108636900        2.55122533156500      h
      -14.36375379490000       -2.99014509523700      -12.44964996644000      o
      -12.75696771116000       -2.17450973535800      -12.08848144419500      h
      -14.41722953117800       -4.54579622847000      -11.49104799287900      h
       -9.88311652186300       -2.88665022756300        7.32343878854500      o
       -8.56553155194200       -3.70895255741000        6.31546393017700      h
      -10.47746279970500       -1.51645103835300        6.25764099632700      h
        6.29469947064600        6.86031135767200      -13.76400777633600      o
        7.99381973537600        6.24985711441900      -14.06918668028200      h
        5.29879111264200        5.37295183489200      -13.38950982682100      h
        7.97554785517400       -8.48978154673500        7.60689243260400      o
        7.47643418861200       -8.57680510364300        5.82474461430900      h
        6.94126957874200       -7.08375310741800        8.26507166332100      h
       11.78222284513900       -4.34759966839800        1.69854191296900      o
       12.41995714668500       -2.78576723232600        2.38676202582900      h
       10.44437025638600       -3.91678390488700        0.48448480080200      h
      -11.93698571231100       -5.94094691106000        0.68157028932000      o
      -13.18915545161600       -7.16388304497400        1.26093245219900      h
      -12.36086077394900       -5.66317215388300       -1.09005962142100      h
        4.17921087822300        5.86064056645200        0.83504383238200      o
        2.73454712944400        6.81419858385400        0.20939404161100      h
        4.73259172890400        4.75040835333700       -0.55849479227400      h
       -3.20598454608600       -2.52503794834300        7.79523891011500      o
       -4.07027882150500       -3.37639793875500        6.41446280760400      h
       -1.71604458778100       -3.59090337253000        8.24975212729300      h
       -4.39490066428800        5.62916552612300       -2.22017534445800      o
       -4.90292272895500        5.89243024860900       -0.47118517621100      h
       -5.21932813326100        6.92358199783600       -3.22413079333800      h
        9.38737278979100       -0.82541750754700       -5.62275453578600      o
       10.79187511912400        0.32197238596400       -5.28692866072900      h
        9.04445194300300       -1.76090726744400       -4.05695733297400      h
       10.71196007723400      -13.30631977458700       -2.87386772912400      o
       10.56464269874300      -11.85702855447700       -1.70032665046900      h
       12.18825239353600      -12.94723136969300       -3.87825870767800      h
        7.34802280052600        2.96507848428700       -8.41434619771800      o
        8.71698781822200        4.17861162495900       -8.57284164761700      h
        7.96606158492100        1.53827359191500       -7.43911372230900      h
      -10.44633641816000       -3.86686930009000       -7.58982993449100      o
      -10.15835646622500       -5.37383204221600       -8.59186804002100      h
       -8.74549306181400       -3.26694728945800       -7.11829901269800      h
       -9.01905379475300        4.63579553626300      -13.18359313890400      o
       -9.12734052801100        6.27962076979600      -13.95282965277100      h
       -7.23338131990000        4.11556901386900      -13.35501804140300      h
       14.34069105917400       -2.63585269102500       -3.28351006825200      o
       14.27942886869300       -1.18087813316100       -2.16648841429800      h
       15.25163463373300       -2.17450064880000       -4.82082712284300      h
       12.82722857667800        2.86732995556200       -5.76551400451300      o
       14.45458421928400        3.00027914729400       -4.89510644221600      h
       11.78563356823000        4.23908605313100       -5.11163545122900      h
        3.45737259873900       -7.93807832445400       -8.53286056830900      o
        5.13797761510000       -7.20051554993100       -8.26603945982100      h
        2.80359522100400       -8.43365083431600       -6.88734378230800      h
      -16.47553235677600       -1.52094792433100       -3.46198757577000      o
      -16.83131507975200       -3.06773927190300       -4.37259817721600      h
      -16.77535868151300       -0.18942925892200       -4.70862019316600      h
        1.59962214136000       10.05371861425000        8.87920205036800      o
        3.23790996744600       10.09711217277200        9.71498685204300      h
        1.96587805662700       10.18713390726600        7.06778202808600      h
       -9.61177315215700        6.45676674844300       -8.28830678457300      o
       -9.67421399891600        4.85012142415200       -7.35539944157800      h
       -9.26004029727200        5.96347394803000      -10.02100793843600      h
        6.13551972131200       -7.72892331031000       -2.82801963334600      o
        6.71990002877300       -8.85621166506700       -4.17456520505100      h
        4.78664474641300       -6.70583747249500       -3.55498238473100      h
       -1.06426860878300        0.47035324363700      -10.36175591936800      o
       -0.61427895805700       -1.20940415731400       -9.73401467931600      h
       -2.06044357537200        1.27430162267400       -9.04875953758900      h
        8.12855525878000       15.43437950205900       -2.17505185483600      o
        6.91914607233900       15.28918909024900       -0.79648333603800      h
        8.15934059411400       13.80317972771500       -3.02508301301500      h
        9.71683735484000        6.58085878331200        9.65872358196200      o
        9.97493997890200        5.78465810681300       11.27229422348900      h
        9.43059801662700        5.17076377412700        8.46765924843400      h
        5.39840379214300        5.57219575535000       13.75194751017800      o
        3.90677562675300        4.89873227300100       14.58916592768900      h
        4.92464966635200        5.63954741819400       11.97765743014000      h
       13.85885644916000        1.13121111818000        0.22097918739000      o
       14.22159136675700        2.93400566456700        0.17448038394500      h
       14.31344863118300        0.60174657920900        1.92635716489400      h
      -15.65991169518500        5.31816322455000        5.04874500540700      o
      -13.97064609409000        4.69556726417200        5.40075032853800      h
      -16.55555139330800        5.38797314627600        6.65659950618400      h
       -6.39449086682200        0.77201067351200        3.91585471095300      o
       -5.90367130231600       -0.25487156213000        5.32314494957700      h
       -7.91130620824500       -0.00697590142100        3.20219335653200      h
       -8.43963493442600      -12.78546600377300       -7.38083482820100      o
       -7.32040736860100      -13.99297088503000       -6.57779996706600      h
       -9.46886205975700      -12.14816033459200       -5.98770230338300      h
      -20.74042757506200       -3.90676442861500        5.04597588679500      o
      -20.34820241689900       -2.54418953546900        6.24209048967800      h
      -22.21274972586700       -3.31385909987900        4.07772497253600      h
       12.09961377308600       -5.73275733220300        6.52040078592900      o
       10.70512805312200       -6.83336683439500        7.02054139646900      h
       11.68605110639100       -5.18011617657200        4.80781217072700      h
      -13.36106896449000        4.34591957768600       -4.67888658669900      o
      -14.93435788132700        4.41967206470700       -3.76829094281200      h
      -13.51032213988200        2.91390655713400       -5.82837899818300      h
       -7.88787494666700        9.86529539307900      -12.54378843263200      o
       -7.01569155050200       11.42493097076800      -12.87362235217700      h
       -6.62297000574100        8.81623176494800      -11.72536126344500      h
        3.88066177428000       -6.94291669676100       13.59702736546200      o
        2.20599929804200       -6.39921951370300       14.10084523114200      h
        3.59561361442500       -8.34091693679400       12.41351186198000      h
      -18.18782748714500        4.70408365242300        9.42335738236400      o
      -18.91573782195400        3.03389089754200        9.16675294834100      h
      -16.65861837279300        4.38061852034199       10.37538420528500      h
      -14.86428014197000        1.09417968867400        1.29477526075100      o
      -15.79180824625800        2.12226943425300        0.09491984632900      h
      -15.66035957044000       -0.57386852583200        1.32696211908300      h
       12.23762121014000        9.95938490440800       -1.00467514118000      o
       10.43807958679100        9.80144766878300       -0.60953474739300      h
       12.65818494468200       11.66136692835200       -0.43840893843400      h
       -3.80594540381400       -8.78912973187900        5.36081518884600      o
       -1.97336970205400       -8.43491449575900        5.39349247717100      h
       -3.98760572402500      -10.50190351584600        4.74063489632900      h
      -17.77176905088500        4.15891611574500       -1.72604300683700      o
      -19.18317273516300        5.15362713904200       -1.07933865827900      h
      -18.46339810104500        3.17299895879900       -3.10106503404900      h
        2.57178817755700       -4.09985413167600      -13.27581670138300      o
        4.29866981170000       -4.56689326710700      -13.73907398307300      h
        1.68226755303100       -5.70124551988500      -13.02347544696100      h
       -4.21717047780900       -7.02613357365400       -8.67805199017800      o
       -5.22758082121700       -7.01129699923200       -7.14995543534900      h
       -4.12206271675400       -8.76550569009700       -9.22106239769300      h
       -2.27363404561300       -4.50049520570900       -3.91975237957100      o
       -1.74060527582000       -2.73670236226700       -3.82211850581000      h
       -2.72979703530700       -5.09493032315900       -2.21465071590600      h
        4.63687756291700        6.68409912247600       -6.47764617228600      o
        5.52581110968400        5.14027218554300       -6.97061824897800      h
        4.85749773941500        7.84162384717700       -7.89222798387100      h
        5.66002462048400       -4.49139698331000        9.40294467320800      o
        4.32724978752900       -3.62735019263700        8.45665992488000      h
        4.86178216123600       -5.11867968778600       10.93629259069100      h
       -8.77234477422600        8.56540914135300       -0.27660843589500      o
       -9.52984348930600        9.07712556677100        1.28925548709300      h
      -10.00812332827800        8.89612458725100       -1.61269570011400      h
       -3.08433308056400      -10.78051913908800       -4.58285856312100      o
       -4.34620792605500       -9.46331718241300       -4.31154336507200      h
       -3.95705240867700      -12.39891279001700       -4.48380429725900      h
       -5.51454326212000        8.79096034266500        8.50422607672100      o
       -6.42294721677900        9.67397519689300        9.79635395613900      h
       -3.88936215286300        8.32408278881800        9.22100913047500      h
        0.60409806082700       -0.35490643192000       11.64676619229600      o
       -1.11753338304800       -0.19029340206300       11.09106075552100      h
        0.66468574065300       -1.85110105562700       12.71428619608500      h
       -7.80748308515800       -8.72157081409700        1.11581572193800      o
       -8.16464360335500       -8.93076833176800        2.90673326344400      h
       -9.19800515936800       -7.61720061515900        0.57921650677100      h
      -18.65880338017500        2.01349715707700       -6.40151005071500      o
      -18.49219131071500        3.82040666448900       -6.73000117824400      h
      -18.44111268934700        1.19927733478200       -8.03675631847800      h
      -10.47810501305400       11.87175652899400       -8.42981190272600      o
       -9.62112170126100       11.05889466603300       -9.84661608834100      h
       -9.44928693024300       13.28373708197500       -7.94659528132400      h
      -14.91568160298500       -7.70788943179500      -10.09894063153800      o
      -15.60515594434300       -8.87215421104800      -11.29650433202700      h
      -13.10492926094400       -8.08179785087500       -9.96113095902900      h
      -19.25098790809700       -0.32686574173700        8.34673302080300      o
      -18.92197837431600       -1.59791361972000        9.62765107763700      h
      -17.59466892095900       -0.17306442117300        7.46510474335200      h
        5.88408365563600       10.20250215041400       -9.91484854507900      o
        4.31527741932800       11.17910202055900       -9.97985439283600      h
        5.99678409820600        9.21928624030400      -11.47939204039100      h
        7.21728206423700        9.96139277111000        0.02161049645300      o
        6.43049659257800        8.42815555188400        0.66440185260400      h
        6.19354503952000       10.37121221289800       -1.46987248866300      h
       -0.03088537780300        5.75280158202600       -5.11279768427700      o
       -1.17103279759200        4.66515706835200       -6.01116479608400      h
        1.64710773134900        5.68811906127600       -5.89057444815400      h
        1.10903362362900        7.40570871639500      -10.64149172793300      o
        1.56517209601900        8.50118480998200      -12.00401805739000      h
        1.89824035995000        5.74548102388200      -10.98739132951400      h
       16.50887086644700       -2.16299588251400       -7.70955896385300      o
       15.00193792624400       -1.89533112741800       -8.74353730638400      h
       17.76807086381600       -0.93408968008200       -8.23422926752400      h
       13.00402160591700       -6.90206506492700      -11.09939930771000      o
       12.51784191841500       -5.17312721412100      -10.66771342366500      h
       14.67129646273900       -7.14672820238000      -10.42091971582500      h
      -10.32160601005400        7.73694573326900       10.95559976367800      o
      -11.54646749276400        6.43198462817500       11.25092785752000      h
       -8.87675929819800        7.34911342996900       12.02542303046100      h
       17.98046182502200       -3.38061478076399        2.89534500443200      o
       19.74001283785300       -3.83475687126100        3.16785718135400      h
       17.22350946259500       -4.77158813268000        1.93976199374100      h
       13.94868883538200       -0.88978801715700        4.91087457801900      o
       14.01253756614600        0.02075904811200        6.49180065768500      h
       15.49521290143900       -1.86282584138300        4.78804782352100      h
        9.49180450119900        2.53471737428800        6.70706078243000      o
        9.74990379594200        0.86580344174300        7.47400316540400      h
       11.07210629024400        2.98167157428500        5.85670696375000      h
       -9.89539126530100       -0.34789678112800      -11.51893497086400      o
       -9.68903967944500        1.15028233204900      -12.52568369623400      h
       -8.34011663105100       -1.33792998153400      -11.71867708827900      h
      -16.67186487246300       -3.58077761296800        2.10512653340400      o
      -18.18910192588400       -3.54663087393400        3.16320288951900      h
      -17.14538606572000       -4.61135548039200        0.66018401697800      h
      -10.71259417307500       -1.36791974432200        2.63299404211000      o
      -11.99842177118500       -0.25818792137800        1.95372420840600      h
      -11.09670129589500       -3.05271042750400        2.00547621339600      h
        3.55881020851100       10.48130377276600       -3.30788254412100      o
        3.97012894280500        9.09665631040200       -4.44949015647400      h
        2.10129734769800        9.89772389992700       -2.32425013331100      h
       -8.69629486951100        2.27903054507700       12.29832862489200      o
       -7.32411434535200        2.31706319107500       13.50838284944400      h
       -7.95500578785300        2.86942933016400       10.68891598157500      h
       18.04936797832200        2.20639671912600        4.29604013596500      o
       19.63144020890100        2.94374984348301        3.82416360521600      h
       18.37489115159600        0.91861582355200        5.55626086427100      h
        2.49850265504600       -1.39373968318300        6.90565717128500      o
        3.34972920416100        0.11653619771900        6.31943230667200      h
        1.86826532663200       -0.99046225323400        8.58241126706800      h
       21.43435055372600       -2.13065011750500       -4.60544439419000      o
       20.29635466119600       -1.40777266354900       -3.31194929502500      h
       21.16127268412900       -1.19468373716600       -6.14154536496900      h
       11.12797116754400        4.35193479156700      -13.30419395043500      o
       10.21172185384500        2.77254955078800      -13.16619549430400      h
       10.84648848138300        5.29095700238500      -11.74483075217600      h
        7.93214100054100       -5.70923004949200       -8.27009896381400      o
        7.25184048573800       -4.00244510431200       -8.30127837333800      h
        9.07581428650200       -5.87124085075000       -6.83275143984800      h
      -23.82168437944600        0.55998357242300       -4.80466690783300      o
      -25.62591318360900        0.44219674216500       -4.77356949767600      h
      -23.43962323248700        2.37322350756300       -5.12541297069300      h
      -23.17147491882000        5.46658657970300       -5.14520106816400      o
      -21.71756052329200        6.11755302315900       -6.04850401205800      h
      -22.99003769719800        6.06478907993900       -3.42516457793400      h
       -7.29874088391500       12.98069285838200        5.48331793150000      o
       -8.07240897426300       11.31803331004800        5.52925065298500      h
       -5.81747831794600       12.90505680043800        6.55407032002800      h
       -4.28640843958400       10.75520827368900       -0.25957728701300      o
       -5.96655655611500        9.96598167313500       -0.35537732573800      h
       -4.45868898334700       12.51774609419200       -0.63994679533300      h
        7.39655518190600       -5.69264237941700      -13.52759483618000      o
        6.88449258987400       -7.44416660572300      -13.71224806920100      h
        7.97314842535000       -5.59624036565700      -11.78555242585400      h
      -12.80688739119300       12.16675889001700        0.45118031130100      o
      -13.24386903322300       10.37748390567700        0.40375321362100      h
      -13.27768146802100       12.72677996972100        2.11540526269000      h
       -1.13686961095000       14.72659844510300       -3.39098248118200      o
       -1.21443545949000       13.00119539811700       -4.08648838425100      h
        0.43728156421500       15.40790936745800       -4.03802654161700      h
        9.99316825632300      -10.82910781068000      -10.29324154159600      o
       10.91427614009700       -9.27301070684700      -10.72507624212700      h
        8.61800230531400      -10.95884245706200      -11.48203077414900      h
       -9.06561951188200        1.78616607391600       -6.90449850358300      o
       -9.45793043185600        0.86521086166900       -8.45283248376900      h
       -9.86470298345800        0.88740564229800       -5.50915656485300      h
       -4.28750653325500        1.85279446494000       15.02115022195000      o
       -4.21705082187400        0.12372019198300       14.39365377737500      h
       -2.55479968545900        2.45079276649200       15.17335392152000      h
       -9.92398277828500       -8.40623216708100       -9.98236100489300      o
       -9.31823925975200       -9.84115977546000       -9.02124508128000      h
       -8.71838582651900       -8.09897338521300      -11.34434280925100      h
       -6.88230969221900       -7.41942601445100       -4.25270771688100      o
       -8.25873156114100       -8.55878371512000       -3.85835959995700      h
       -6.95255916741400       -6.02816585750500       -3.03846794645000      h
      -13.97451149696000        7.06887340812800        0.63405359066300      o
      -14.68811902159200        6.69788798634300        2.28803074172200      h
      -15.33505967867900        6.81520054074100       -0.54927720571400      h
      -10.85174353315900      -10.65503326201100       -3.44709881788900      o
      -11.97454309204400       -9.20064040884900       -3.65324744755700      h
      -11.44908380076600      -11.65207440811000       -2.04006610658200      h
       15.17673810775600       -2.59359352837600       12.00468872169600      o
       13.82942235159500       -2.55474774105000       13.24733599739300      h
       15.03016367918000       -4.24861253108300       11.22195453126600      h
       -3.75594508426200        7.72013435309000      -10.05590742542500      o
       -3.91939177450700        9.54454826932700       -9.76112582993500      h
       -1.90093701021800        7.51963935638500      -10.15989989441300      h
       10.33952118407400        7.01061824500900       -9.02327968987200      o
       11.65421310942200        7.55815101692000       -7.84446140958500      h
        9.25140086216100        8.43606499531000       -9.31246977336100      h
      -23.74471083772600       -5.16855770616400       -1.50672506921400      o
      -24.30233502286200       -4.18831547372200       -0.06838857569200      h
      -23.77289425796600       -4.05432674639101       -2.93935970396800      h
        6.69050825124300        7.90321535944300        5.25270224650200      o
        5.22996337805600        8.78329015517400        4.56013781128800      h
        6.00485640104800        6.93364359950000        6.67048859544700      h
        0.60597680350100        3.76259952043300       14.55828645036600      o
       -0.02759306796400        4.97655509214400       13.32457278190700      h
        0.98594133145500        2.23609306170900       13.58125272975600      h
       -4.61873840251600       -2.83563394976600       12.71063404406300      o
       -4.30577750147500       -2.82580638725900       10.88968998837900      h
       -6.42333853442600       -3.18111798813900       12.88665944507900      h
        3.43067318444500      -10.49572811726600       10.04893209829200      o
        1.92898513987500      -11.50752765566700        9.89533272234700      h
        4.83303738807700      -11.50451848025400        9.44543946502900      h
       -0.01463777581800        8.09116628405400       -0.71574915142800      o
       -0.50940257088900        6.86184048611600       -2.00132450306000      h
       -1.49917308861700        9.15993177673600       -0.52613365812400      h
        5.30460049870600       -1.61671284382100       14.62262491400300      o
        7.10947681652100       -1.98166060688200       14.64569413791500      h
        4.47775451405500       -3.22975595266500       14.71443032472700      h
       -5.19167956026700      -15.37700303486200       -4.17678567499300      o
       -6.06477946255700      -14.96870102694900       -2.60023748318300      h
       -3.52513212604800      -15.98007913926600       -3.67300175483700      h
       -5.97541898984900       15.45787029057100        1.45043934276400      o
       -6.29342394021200       17.19575812894900        1.82552914518700      h
       -6.56776153325300       14.47491025313500        2.94108115813600      h
        6.27142395272200       14.16361913832000        7.31599012455700      o
        5.99158152563100       13.18470610887600        8.82652866546100      h
        7.89199293484400       13.56719141861800        6.67923356154800      h
       15.52196549999100        3.95081271330500      -10.08390732549600      o
       14.42376856103000        3.53083331415300       -8.65382330450100      h
       14.42514652953900        4.04503169391700      -11.54458170632700      h
       15.69873776473300       -6.51034681403400       -0.44018105426500      o
       14.10469766217800       -6.20355134024500        0.45608241858300      h
       15.65534303080200       -5.24538592153400       -1.78068085937800      h
      -19.47407856792600        2.11616873049300        3.57639563158900      o
      -17.74327907155300        2.73218674872800        3.59191786585800      h
      -19.80347774789100        1.45055936096000        1.90090813785200      h
        3.21617718380400      -14.22027405108100       -5.82733501587000      o
        4.66057833721000      -13.07640509382400       -5.96612224966000      h
        2.01225200020900      -13.55339953270100       -7.04642045276100      h
      -10.33158002688900        8.67244704676100        5.87200274478900      o
      -10.22041679776600        8.51733591141100        7.70487171822200      h
      -10.49006074410700        6.92106953518800        5.28655049746500      h
       -0.66672205377800      -11.13408906176400        0.34791782436000      o
        1.19264302891600      -11.10965490788500        0.34755830362000      h
       -1.23681974448400      -11.89386377657300        1.89962134597400      h
      -17.15854272441700        9.91387140237299       -2.67828634076200      o
      -17.39506926809400       10.34619902223300       -0.91734454027700      h
      -15.37286713945300       10.16424597855900       -3.04523159441900      h
      -14.60706122387000       -0.07648342050800        6.62363215834300      o
      -13.96641255257300        1.03805396664200        7.94458482607500      h
      -14.34701012624800        0.73503760686900        5.00939295483000      h
       16.95573613688500       12.10970623321900        1.97794938429500      o
       17.35940227269000       11.57608646316400        0.27111596008500      h
       15.55388915370200       13.26329316966500        1.84509059459600      h
      -21.45981826789000       -2.79519286675300       -8.09155335907700      o
      -20.62270984509000       -1.88337643344700       -9.44013752008200      h
      -22.15939014027200       -1.50804824304100       -6.98341119155400      h
        8.39482546094300       11.05172679094300       -5.21706265760600      o
        7.32311992185800       10.99440186337600       -6.69112881759100      h
        9.92464007032400       11.94023754516600       -5.76720549405300      h
       12.61883285820000       13.41941249384000       -6.63718038753200      o
       13.44304378139800       11.75973089641100       -6.56327575640700      h
       13.33517144689900       14.43587579084600       -5.32307731080500      h
       10.50635587364400       -9.17930350503000       -0.12321151460700      o
       10.65777713634200       -8.01184193912600       -1.54911663192000      h
        9.08814749088000       -8.56839536642200        0.91517942456600      h
        2.46001842104900       -6.45193502041300        0.86425408756200      o
        2.82062455745000       -4.66226704204900        0.83382587641800      h
        1.98407274624800       -6.98922111090000       -0.83889507553700      h
       -6.77479351172400      -13.85591036659400        8.13103348242900      o
       -5.87753494774100      -13.93990953655100        6.51917106585400      h
       -8.52913116485800      -14.14017853904000        7.71192035141500      h
      -14.06457802022700       -5.45314086210000        6.16640085989300      o
      -12.76352518341400       -4.25609026793800        6.73210205763600      h
      -14.81588008354700       -4.70105234661800        4.64803597342800      h
       16.17279891222100       -8.21526479425800        4.71039502321000      o
       14.80198647481600       -7.18974149153700        5.42282529940900      h
       15.36869451552000       -9.77633664265900        4.17778044657500      h
       22.97457292703800       -4.64090705428300        2.65977401315400      o
       23.80576081935200       -3.91001625334400        1.19555545187300      h
       22.53783311134700       -6.36584325694600        2.23706064637000      h
       18.94145667313800       -6.28605549357900        8.50846470273500      o
       18.27103317893900       -7.08070639562300        6.99092423038000      h
       17.82735283315100       -6.83770814093600        9.83988978097800      h
      -20.75232023235500       -8.10325634381900        7.75024808435600      o
      -20.82591056879500       -6.61512206930400        6.62103427120100      h
      -22.43635544675500       -8.74295478418700        7.88065175948800      h
      -10.87964997966800        3.67847248368200        5.13442165334200      o
      -10.48916449508800        3.40431392989200        3.34601257960300      h
       -9.32567972535300        3.42621747616300        6.09027955906500      h
       -6.56407621578400       -8.87775767991200        9.48364586358100      o
       -5.38515935416400       -8.61104066225400        8.06547168806900      h
       -6.79614523439700      -10.70413350037000        9.49888454333800      h
       -3.96686810616200      -13.72743069741900        3.81521580160100      o
       -2.71106699747500      -15.07859449648300        3.51795228143400      h
       -5.19305351726600      -13.85804720803800        2.42962735171200      h
      -15.51583899088900       -9.48026423508800        1.41565030987900      o
      -16.94986327265800       -8.76666655101500        0.52120118823700      h
      -16.01690945204300       -9.80456036924200        3.16665985892900      h
       13.73995747474100      -10.59979535269500       -6.29050042002900      o
       15.10883354624900       -9.48592562820999       -6.88331046084600      h
       12.75138710401100      -11.01132124139300       -7.76736330280000      h
       13.58748628257400        4.63601927981600        4.79154092505800      o
       15.22881403520600        3.81604125600600        4.62473158805000      h
       13.83372405288200        6.22506380206100        5.68289311052400      h
       10.15720297429300       11.75492381513100        4.93857502493600      o
       11.66712709839400       11.13971016139300        5.76025091630000      h
        9.00586011745900       10.31330634086600        4.89930849012700      h
      -16.20907049577300      -10.17285260859500        6.39445894519400      o
      -17.92114832107500       -9.80838011482200        6.93865640863000      h
      -15.28706090261700       -8.60774899227500        6.65783157991300      h
       14.04711425392700        1.74527739891901        9.66319585425900      o
       14.51719131392800        0.13355933643100       10.44718019005600      h
       12.56037822127900        2.28081002894900       10.56623555309200      h
        6.33984768071900      -15.75442094658400       -1.69111675849400      o
        7.99719850452400      -15.26317099680400       -2.30293588163600      h
        5.27707449900600      -15.92825509093100       -3.16351306611300      h
      -20.63222925206600       -0.23521468420600       -0.88120336047700      o
      -21.72653693244500        0.13118291742200       -2.30917105338200      h
      -19.07124758819000       -0.92076974055900       -1.61178832079800      h
       -9.94803129125400       -8.64209792027000        5.73573617902600      o
      -11.35982473132000       -7.47059283273100        5.75070361148900      h
       -8.97027401404200       -8.38451925239600        7.28382626815800      h
       -1.26952522695300      -12.93297362796700        8.98058687952700      o
       -2.96342306375800      -13.59081740870700        9.08678169258400      h
       -0.66033314904700      -13.35025623436700        7.31876578955800      h
        2.89530984154500      -12.89564446098800        4.74106371917800      o
        3.81932294048300      -12.36286035647100        3.22644228060700      h
        4.15246183141000      -13.43216886096000        5.94171753355400      h
       11.20377133212400       -6.51867467547600       -4.42758633581500      o
       12.22916675104300       -7.88012871868300       -5.12701164369800      h
       12.28966541173700       -5.06720399890200       -4.10743575621500      h
       10.07271706082000       -1.91220535931600        9.11778928028800      o
        8.35536450092400       -2.59608234431700        9.03437873124000      h
       11.09350858935200       -3.10150924758200        8.11803718077400      h
       -9.70004498152500       -2.67849612075200       12.40244531652800      o
       -9.82593658748700       -3.00881505660300       10.59517126302800      h
       -9.42542351498600       -0.84780059974600       12.50672482109300      h
       -5.53170234129100       15.29669418693500       -6.17341315705800      o
       -3.98258580026700       15.42119946121600       -5.18590518307600      h
       -6.82021237344900       14.77230163801800       -4.98146153672600      h
       20.54541591432000       -7.20547886279200       -3.77785562781000      o
       20.25088098872600       -7.46606386449800       -1.99243069817500      h
       20.96224425800200       -5.43755019594000       -4.02041496019700      h
       -5.82338716841300        6.91673409322200       13.65476975730200      o
       -5.75465527694800        5.61428539918700       14.91812428561300      h
       -4.21806083069400        6.81827018001500       12.78349063506600      h
       -6.51707048466100        9.32257842693400       -5.25569497185100      o
       -7.45553545781600       10.63630982140100       -4.39391852439000      h
       -7.66919934730400        8.46826222578000       -6.40561238610300      h
        8.50300500044200      -14.15278623669500        3.23008194116300      o
        7.85417729495800      -15.03893229180000        1.78281237670700      h
       10.25540805154800      -13.74689454153800        2.89470796628700      h
      -18.35350583299800        9.96009030471200        2.50121618944900      o
      -19.27669445149600        8.79526150178900        3.57141436293000      h
      -16.99082585597100       10.61067032188800        3.53871011086200      h
      -11.71825154864000      -13.30683818839800        5.98127857686100      o
[...]
   385   8 o      387   1 h                                       0.9955135
   388   8 o      389   1 h                                       0.9639613
   388   8 o      390   1 h                                       0.9739491
   391   8 o      392   1 h                                       0.9797013
   391   8 o      393   1 h                                       0.9678967
   394   8 o      395   1 h                                       0.9812458
   394   8 o      396   1 h                                       0.9756038
   397   8 o      398   1 h                                       0.9722163
   397   8 o      399   1 h                                       0.9698244
   400   8 o      401   1 h                                       0.9777605
   400   8 o      402   1 h                                       0.9729276
   403   8 o      404   1 h                                       0.9751554
   403   8 o      405   1 h                                       0.9807917
   406   8 o      407   1 h                                       0.9840187
   406   8 o      408   1 h                                       0.9627613
   409   8 o      410   1 h                                       0.9676521
   409   8 o      411   1 h                                       0.9737399
   412   8 o      413   1 h                                       0.9754016
   412   8 o      414   1 h                                       0.9659422
   415   8 o      416   1 h                                       0.9701389
   415   8 o      417   1 h                                       0.9632755
   418   8 o      419   1 h                                       0.9686747
   418   8 o      420   1 h                                       0.9720341
   421   8 o      422   1 h                                       0.9648906
   421   8 o      423   1 h                                       0.9803987
   424   8 o      425   1 h                                       0.9813818
   424   8 o      426   1 h                                       0.9573876
   427   8 o      428   1 h                                       0.9784916
   427   8 o      429   1 h                                       0.9847219
   430   8 o      431   1 h                                       0.9662194
   430   8 o      432   1 h                                       0.9780361
   433   8 o      434   1 h                                       0.9772214
   433   8 o      435   1 h                                       0.9662616
   436   8 o      437   1 h                                       0.9822885
   436   8 o      438   1 h                                       0.9808388
   439   8 o      440   1 h                                       0.9812467
   439   8 o      441   1 h                                       0.9710377
   442   8 o      443   1 h                                       0.9712977
   442   8 o      444   1 h                                       0.9678062
   445   8 o      446   1 h                                       0.9734369
   445   8 o      447   1 h                                       0.9639514
   448   8 o      449   1 h                                       0.9893044
   448   8 o      450   1 h                                       0.9557759
   451   8 o      452   1 h                                       0.9794854
   451   8 o      453   1 h                                       0.9746233
   454   8 o      455   1 h                                       0.9860606
   454   8 o      456   1 h                                       0.9742809
   457   8 o      458   1 h                                       0.9887328
   457   8 o      459   1 h                                       0.9815413
   460   8 o      461   1 h                                       0.9708184
   460   8 o      462   1 h                                       0.9789456
   463   8 o      464   1 h                                       0.9851728
   463   8 o      465   1 h                                       0.9653314
   466   8 o      467   1 h                                       0.9749143
   466   8 o      468   1 h                                       0.9729100
   469   8 o      470   1 h                                       0.9661667
   469   8 o      471   1 h                                       0.9765282
   472   8 o      473   1 h                                       0.9700270
   472   8 o      474   1 h                                       0.9712985
   475   8 o      476   1 h                                       0.9805126
   475   8 o      477   1 h                                       0.9631404
   478   8 o      479   1 h                                       0.9703531
   478   8 o      480   1 h                                       0.9653180
   481   8 o      482   1 h                                       0.9715626
   481   8 o      483   1 h                                       0.9815352
   484   8 o      485   1 h                                       0.9708361
   484   8 o      486   1 h                                       0.9784685
   487   8 o      488   1 h                                       0.9632372
   487   8 o      489   1 h                                       0.9623011
   490   8 o      491   1 h                                       0.9802982
   490   8 o      492   1 h                                       0.9627332
   493   8 o      494   1 h                                       0.9749204
   493   8 o      495   1 h                                       0.9740929
   496   8 o      497   1 h                                       0.9791846
   496   8 o      498   1 h                                       0.9837522
   499   8 o      500   1 h                                       0.9744909
   499   8 o      501   1 h                                       0.9811548
   502   8 o      503   1 h                                       0.9743813
   502   8 o      504   1 h                                       0.9694196
   505   8 o      506   1 h                                       0.9674538
   505   8 o      507   1 h                                       0.9697313
   508   8 o      509   1 h                                       0.9608847
   508   8 o      510   1 h                                       0.9679598
   511   8 o      512   1 h                                       0.9684472
   511   8 o      513   1 h                                       0.9728183
   514   8 o      515   1 h                                       0.9614179
   514   8 o      516   1 h                                       0.9682845
   517   8 o      518   1 h                                       0.9691932
   517   8 o      519   1 h                                       0.9694991
   520   8 o      521   1 h                                       0.9871595
   520   8 o      522   1 h                                       0.9627388
   523   8 o      524   1 h                                       0.9701569
   523   8 o      525   1 h                                       0.9877249
   526   8 o      527   1 h                                       0.9825877
   526   8 o      528   1 h                                       0.9690160
   529   8 o      530   1 h                                       0.9818379
   529   8 o      531   1 h                                       0.9793111
   532   8 o      533   1 h                                       0.9739049
   532   8 o      534   1 h                                       0.9753790
   535   8 o      536   1 h                                       0.9616384
   535   8 o      537   1 h                                       0.9946088
   538   8 o      539   1 h                                       0.9630010
   538   8 o      540   1 h                                       0.9833518
   541   8 o      542   1 h                                       0.9725313
   541   8 o      543   1 h                                       0.9733075
   544   8 o      545   1 h                                       0.9561794
   544   8 o      546   1 h                                       0.9967011
   547   8 o      548   1 h                                       0.9655397
   547   8 o      549   1 h                                       0.9644404
   550   8 o      551   1 h                                       0.9681840
   550   8 o      552   1 h                                       0.9778419
   553   8 o      554   1 h                                       0.9642820
   553   8 o      555   1 h                                       0.9785749
   556   8 o      557   1 h                                       0.9752750
   556   8 o      558   1 h                                       0.9795415
   559   8 o      560   1 h                                       0.9842921
   559   8 o      561   1 h                                       0.9629596
   562   8 o      563   1 h                                       0.9703398
   562   8 o      564   1 h                                       0.9616593
   565   8 o      566   1 h                                       0.9611254
   565   8 o      567   1 h                                       0.9826389
   568   8 o      569   1 h                                       0.9669787
   568   8 o      570   1 h                                       0.9651248
   571   8 o      572   1 h                                       0.9683295
   571   8 o      573   1 h                                       0.9708777
   574   8 o      575   1 h                                       0.9827125
   574   8 o      576   1 h                                       0.9577825
   577   8 o      578   1 h                                       0.9771324
   577   8 o      579   1 h                                       0.9748698
   580   8 o      581   1 h                                       0.9831578
   580   8 o      582   1 h                                       0.9611100
   583   8 o      584   1 h                                       0.9593288
   583   8 o      585   1 h                                       0.9837731
   586   8 o      587   1 h                                       0.9561534
   586   8 o      588   1 h                                       0.9778816
   589   8 o      590   1 h                                       0.9749151
   589   8 o      591   1 h                                       0.9613121
   592   8 o      593   1 h                                       0.9767425
   592   8 o      594   1 h                                       0.9620536
   595   8 o      596   1 h                                       0.9741640
   595   8 o      597   1 h                                       0.9946584
   598   8 o      599   1 h                                       0.9877867
   598   8 o      600   1 h                                       0.9729295
   601   8 o      602   1 h                                       0.9786142
   601   8 o      603   1 h                                       0.9593113
   604   8 o      605   1 h                                       0.9911153
   604   8 o      606   1 h                                       0.9602213
   607   8 o      608   1 h                                       0.9673545
   607   8 o      609   1 h                                       0.9754216
   610   8 o      611   1 h                                       0.9643915
   610   8 o      612   1 h                                       0.9745357
   613   8 o      614   1 h                                       0.9566073
   613   8 o      615   1 h                                       0.9811297
   616   8 o      617   1 h                                       0.9740436
   616   8 o      618   1 h                                       0.9679137
   619   8 o      620   1 h                                       0.9788666
   619   8 o      621   1 h                                       0.9729938
   622   8 o      623   1 h                                       0.9747219
   622   8 o      624   1 h                                       0.9667938
   625   8 o      626   1 h                                       0.9727051
   625   8 o      627   1 h                                       0.9630125
   628   8 o      629   1 h                                       0.9814707
   628   8 o      630   1 h                                       0.9752518
   631   8 o      632   1 h                                       0.9818616
   631   8 o      633   1 h                                       0.9666619
   634   8 o      635   1 h                                       0.9554294 (min)
   634   8 o      636   1 h                                       0.9882902
   637   8 o      638   1 h                                       0.9697876
   637   8 o      639   1 h                                       0.9685998
   640   8 o      641   1 h                                       0.9797653
   640   8 o      642   1 h                                       0.9725262
   643   8 o      644   1 h                                       0.9841554
   643   8 o      645   1 h                                       0.9634797
   646   8 o      647   1 h                                       0.9724970
   646   8 o      648   1 h                                       0.9789213
   649   8 o      650   1 h                                       0.9913444
   649   8 o      651   1 h                                       0.9700026
   652   8 o      653   1 h                                       0.9673262
   652   8 o      654   1 h                                       0.9752100
   655   8 o      656   1 h                                       0.9888349
   655   8 o      657   1 h                                       0.9678514
   658   8 o      659   1 h                                       0.9690722
   658   8 o      660   1 h                                       0.9794875
   661   8 o      662   1 h                                       0.9678381
   661   8 o      663   1 h                                       0.9606520
   664   8 o      665   1 h                                       0.9781249
   664   8 o      666   1 h                                       0.9729275
   667   8 o      668   1 h                                       0.9636365
   667   8 o      669   1 h                                       0.9685199
   670   8 o      671   1 h                                       0.9727718
   670   8 o      672   1 h                                       0.9721396
   673   8 o      674   1 h                                       0.9858207
   673   8 o      675   1 h                                       0.9741280
   676   8 o      677   1 h                                       0.9807641
   676   8 o      678   1 h                                       0.9843659
   679   8 o      680   1 h                                       0.9791647
   679   8 o      681   1 h                                       0.9787616
   682   8 o      683   1 h                                       0.9647171
   682   8 o      684   1 h                                       0.9735389
   685   8 o      686   1 h                                       0.9723112
   685   8 o      687   1 h                                       0.9781869
   688   8 o      689   1 h                                       0.9725720
   688   8 o      690   1 h                                       0.9793261
   691   8 o      692   1 h                                       0.9716574
   691   8 o      693   1 h                                       0.9742725
   694   8 o      695   1 h                                       0.9647312
   694   8 o      696   1 h                                       0.9730159
   697   8 o      698   1 h                                       0.9745723
   697   8 o      699   1 h                                       0.9728619
   700   8 o      701   1 h                                       0.9769890
   700   8 o      702   1 h                                       0.9772763
   703   8 o      704   1 h                                       0.9801122
   703   8 o      705   1 h                                       0.9663186
   706   8 o      707   1 h                                       0.9610089
   706   8 o      708   1 h                                       0.9858552
   709   8 o      710   1 h                                       0.9706872
   709   8 o      711   1 h                                       0.9639868
   712   8 o      713   1 h                                       0.9689885
   712   8 o      714   1 h                                       0.9763738
   715   8 o      716   1 h                                       0.9728711
   715   8 o      717   1 h                                       0.9727045
   718   8 o      719   1 h                                       0.9735693
   718   8 o      720   1 h                                       0.9645781
   721   8 o      722   1 h                                       0.9599587
   721   8 o      723   1 h                                       0.9927618
   724   8 o      725   1 h                                       0.9774823
   724   8 o      726   1 h                                       0.9878252
   727   8 o      728   1 h                                       0.9861816
   727   8 o      729   1 h                                       0.9714513
   730   8 o      731   1 h                                       0.9559936
   730   8 o      732   1 h                                       0.9865716
   733   8 o      734   1 h                                       0.9884482
   733   8 o      735   1 h                                       0.9592822
   736   8 o      737   1 h                                       0.9741968
   736   8 o      738   1 h                                       0.9771045
   739   8 o      740   1 h                                       0.9776911
   739   8 o      741   1 h                                       0.9780082
   742   8 o      743   1 h                                       0.9823228
   742   8 o      744   1 h                                       0.9633300
   745   8 o      746   1 h                                       0.9770992
   745   8 o      747   1 h                                       0.9823011
   748   8 o      749   1 h                                       0.9739041
   748   8 o      750   1 h                                       0.9778300
   751   8 o      752   1 h                                       0.9677161
   751   8 o      753   1 h                                       0.9608148
   754   8 o      755   1 h                                       0.9582431
   754   8 o      756   1 h                                       0.9649314

 * 1 distinct bonds (by element types)

   Z      Z             #   av. dist./Å        max./Å        min./Å
   1 H    8 O         504     0.9734765     0.9998012     0.9554294


optimized geometry written to: xtbopt.coord


           -------------------------------------------------
          | TOTAL ENERGY            -1283.320575812230 Eh   |
          | GRADIENT NORM               0.001951476101 Eh/α |
          | HOMO-LUMO GAP               7.861737290181 eV   |
           -------------------------------------------------

------------------------------------------------------------------------
 * finished run on 2022/11/24 at 09:15:15.170     
------------------------------------------------------------------------
 total:
 * wall-time:     0 d,  0 h,  7 min, 22.801 sec
 *  cpu-time:     0 d,  0 h, 10 min, 58.068 sec
 * ratio c/w:     1.486 speedup
 SCF:
 * wall-time:     0 d,  0 h,  0 min, 21.605 sec
 *  cpu-time:     0 d,  0 h,  0 min, 34.953 sec
 * ratio c/w:     1.618 speedup
 ANC optimizer:
 * wall-time:     0 d,  0 h,  7 min,  0.182 sec
 *  cpu-time:     0 d,  0 h, 10 min, 21.388 sec
 * ratio c/w:     1.479 speedup

