      -----------------------------------------------------------      
     |                   =====================                   |     
     |                           x T B                           |     
     |                   =====================                   |     
     |                         S. Grimme                         |     
     |          Mulliken Center for Theoretical Chemistry        |     
     |                    University of Bonn                     |     
      -----------------------------------------------------------      

   * xtb version 6.5.1 (579679a) compiled by 'ehlert@majestix' on 2022-07-11

   xtb is free software: you can redistribute it and/or modify it under
   the terms of the GNU Lesser General Public License as published by
   the Free Software Foundation, either version 3 of the License, or
   (at your option) any later version.
   
   xtb is distributed in the hope that it will be useful,
   but WITHOUT ANY WARRANTY; without even the implied warranty of
   MERCHANTABILITY or FITNESS FOR A PARTICULAR PURPOSE.  See the
   GNU Lesser General Public License for more details.
   
   Cite this work as:
   * C. Bannwarth, E. Caldeweyher, S. Ehlert, A. Hansen, P. Pracht,
     J. Seibert, S. Spicher, S. Grimme, WIREs Comput. Mol. Sci., 2020, 11,
     e01493. DOI: 10.1002/wcms.1493
   
   for GFN2-xTB:
   * C. Bannwarth, S. Ehlert and S. Grimme., J. Chem. Theory Comput., 2019,
     15, 1652-1671. DOI: 10.1021/acs.jctc.8b01176
   for GFN1-xTB:
   * S. Grimme, C. Bannwarth, P. Shushkov, J. Chem. Theory Comput., 2017,
     13, 1989-2009. DOI: 10.1021/acs.jctc.7b00118
   for GFN0-xTB:
   * P. Pracht, E. Caldeweyher, S. Ehlert, S. Grimme, ChemRxiv, 2019, preprint.
     DOI: 10.26434/chemrxiv.8326202.v1
   for GFN-FF:
   * S. Spicher and S. Grimme, Angew. Chem. Int. Ed., 2020, 59, 15665-15673.
     DOI: 10.1002/anie.202004239
   
   for ALPB and GBSA implicit solvation:
   * S. Ehlert, M. Stahn, S. Spicher, S. Grimme, J. Chem. Theory Comput.,
     2021, 17, 4250-4261. DOI: 10.1021/acs.jctc.1c00471
   
   for DFT-D4:
   * E. Caldeweyher, C. Bannwarth and S. Grimme, J. Chem. Phys., 2017,
     147, 034112. DOI: 10.1063/1.4993215
   * E. Caldeweyher, S. Ehlert, A. Hansen, H. Neugebauer, S. Spicher,
     C. Bannwarth and S. Grimme, J. Chem. Phys., 2019, 150, 154122.
     DOI: 10.1063/1.5090222
   * E. Caldeweyher, J.-M. Mewes, S. Ehlert and S. Grimme, Phys. Chem. Chem. Phys.
     2020, 22, 8499-8512. DOI: 10.1039/D0CP00502A
   
   for sTDA-xTB:
   * S. Grimme and C. Bannwarth, J. Chem. Phys., 2016, 145, 054103.
     DOI: 10.1063/1.4959605
   
   in the mass-spec context:
   * V. Asgeirsson, C. Bauer and S. Grimme, Chem. Sci., 2017, 8, 4879.
     DOI: 10.1039/c7sc00601b
   * J. Koopman and S. Grimme, ACS Omega 2019, 4, 12, 15120-15133.
     DOI: 10.1021/acsomega.9b02011
   
   for metadynamics refer to:
   * S. Grimme, J. Chem. Theory Comput., 2019, 155, 2847-2862
     DOI: 10.1021/acs.jctc.9b00143
   
   for SPH calculations refer to:
   * S. Spicher and S. Grimme, J. Chem. Theory Comput., 2021, 17, 1701-1714
     DOI: 10.1021/acs.jctc.0c01306
   
   with help from (in alphabetical order)
   P. Atkinson, C. Bannwarth, F. Bohle, G. Brandenburg, E. Caldeweyher
   M. Checinski, S. Dohm, S. Ehlert, S. Ehrlich, I. Gerasimov, C. Hölzer
   A. Katbashev, J. Koopman, C. Lavigne, S. Lehtola, F. März, M. Müller,
   F. Musil, H. Neugebauer, J. Pisarek, C. Plett, P. Pracht, F. Pultar,
   J. Seibert, P. Shushkov, S. Spicher, M. Stahn, M. Steiner, T. Strunk,
   J. Stückrath, T. Rose, and J. Unsleber
   
 * started run on 2022/11/24 at 09:28:10.076     

           -------------------------------------------------
          |                Calculation Setup                |
           -------------------------------------------------

          program call               : xtb solvent_cluster.coord --gfn2 --sp --lmo --chrg 0
          hostname                   : cn0341
          coordinate file            : solvent_cluster.coord
          omp threads                :                     2

   ID    Z sym.   atoms
    1    8 o      1, 4, 7, 10, 13, 16, 19, 22, 25, 28, 31, 34, 37, 40, 43,
                  46, 49, 52, 55, 58, 61, 64, 67, 70, 73, 76, 79, 82, 85, 88,
                  91, 94, 97, 100, 103, 106, 109, 112, 115, 118, 121, 124,
                  127, 130, 133, 136, 139, 142, 145, 148, 151, 154, 157, 160,
                  163, 166, 169, 172, 175, 178, 181, 184, 187, 190, 193, 196,
                  199, 202, 205, 208, 211, 214, 217, 220, 223, 226, 229, 232,
                  235, 238, 241, 244, 247, 250, 253, 256, 259, 262, 265, 268,
                  271, 274, 277, 280, 283, 286, 289, 292, 295, 298, 301, 304,
                  307, 310, 313, 316, 319, 322, 325, 328, 331, 334, 337, 340,
                  343, 346, 349, 352, 355, 358, 361, 364, 367, 370, 373, 376,
                  379, 382, 385, 388, 391, 394, 397, 400, 403, 406, 409, 412,
                  415, 418, 421, 424, 427, 430, 433, 436, 439, 442, 445, 448,
                  451, 454, 457, 460, 463, 466, 469, 472, 475, 478, 481, 484,
                  487, 490, 493, 496, 499, 502, 505, 508, 511, 514, 517, 520,
                  523, 526, 529, 532, 535, 538, 541, 544, 547, 550, 553, 556,
                  559, 562, 565, 568, 571, 574, 577, 580, 583, 586, 589, 592,
                  595, 598, 601, 604, 607, 610, 613, 616, 619, 622, 625, 628,
                  631, 634, 637, 640, 643, 646, 649, 652, 655, 658, 661, 664,
                  667, 670, 673, 676, 679, 682, 685, 688, 691, 694, 697, 700,
                  703, 706, 709, 712, 715, 718, 721, 724, 727, 730, 733, 736,
                  739, 742, 745, 748, 751, 754
    2    1 h      2, 3, 5, 6, 8, 9, 11, 12, 14, 15, 17, 18, 20, 21, 23, 24,
                  26, 27, 29, 30, 32, 33, 35, 36, 38, 39, 41, 42, 44, 45, 47,
                  48, 50, 51, 53, 54, 56, 57, 59, 60, 62, 63, 65, 66, 68, 69,
                  71, 72, 74, 75, 77, 78, 80, 81, 83, 84, 86, 87, 89, 90, 92,
                  93, 95, 96, 98, 99, 101, 102, 104, 105, 107, 108, 110, 111,
                  113, 114, 116, 117, 119, 120, 122, 123, 125, 126, 128, 129,
                  131, 132, 134, 135, 137, 138, 140, 141, 143, 144, 146, 147,
                  149, 150, 152, 153, 155, 156, 158, 159, 161, 162, 164, 165,
                  167, 168, 170, 171, 173, 174, 176, 177, 179, 180, 182, 183,
                  185, 186, 188, 189, 191, 192, 194, 195, 197, 198, 200, 201,
                  203, 204, 206, 207, 209, 210, 212, 213, 215, 216, 218, 219,
                  221, 222, 224, 225, 227, 228, 230, 231, 233, 234, 236, 237,
                  239, 240, 242, 243, 245, 246, 248, 249, 251, 252, 254, 255,
                  257, 258, 260, 261, 263, 264, 266, 267, 269, 270, 272, 273,
                  275, 276, 278, 279, 281, 282, 284, 285, 287, 288, 290, 291,
                  293, 294, 296, 297, 299, 300, 302, 303, 305, 306, 308, 309,
                  311, 312, 314, 315, 317, 318, 320, 321, 323, 324, 326, 327,
                  329, 330, 332, 333, 335, 336, 338, 339, 341, 342, 344, 345,
                  347, 348, 350, 351, 353, 354, 356, 357, 359, 360, 362, 363,
                  365, 366, 368, 369, 371, 372, 374, 375, 377, 378, 380, 381,
                  383, 384, 386, 387, 389, 390, 392, 393, 395, 396, 398, 399,
                  401, 402, 404, 405, 407, 408, 410, 411, 413, 414, 416, 417,
                  419, 420, 422, 423, 425, 426, 428, 429, 431, 432, 434, 435,
                  437, 438, 440, 441, 443, 444, 446, 447, 449, 450, 452, 453,
                  455, 456, 458, 459, 461, 462, 464, 465, 467, 468, 470, 471,
                  473, 474, 476, 477, 479, 480, 482, 483, 485, 486, 488, 489,
                  491, 492, 494, 495, 497, 498, 500, 501, 503, 504, 506, 507,
                  509, 510, 512, 513, 515, 516, 518, 519, 521, 522, 524, 525,
                  527, 528, 530, 531, 533, 534, 536, 537, 539, 540, 542, 543,
                  545, 546, 548, 549, 551, 552, 554, 555, 557, 558, 560, 561,
                  563, 564, 566, 567, 569, 570, 572, 573, 575, 576, 578, 579,
                  581, 582, 584, 585, 587, 588, 590, 591, 593, 594, 596, 597,
                  599, 600, 602, 603, 605, 606, 608, 609, 611, 612, 614, 615,
                  617, 618, 620, 621, 623, 624, 626, 627, 629, 630, 632, 633,
                  635, 636, 638, 639, 641, 642, 644, 645, 647, 648, 650, 651,
                  653, 654, 656, 657, 659, 660, 662, 663, 665, 666, 668, 669,
                  671, 672, 674, 675, 677, 678, 680, 681, 683, 684, 686, 687,
                  689, 690, 692, 693, 695, 696, 698, 699, 701, 702, 704, 705,
                  707, 708, 710, 711, 713, 714, 716, 717, 719, 720, 722, 723,
                  725, 726, 728, 729, 731, 732, 734, 735, 737, 738, 740, 741,
                  743, 744, 746, 747, 749, 750, 752, 753, 755, 756

molecular fragmentation (1/2 indicates fragments):
111222222222222222222222222222222222222222222222222222222222222222222222
222222222222222222222222222222222222222222222222222222222222222222222222
222222222222222222222222222222222222222222222222222222222222222222222222
222222222222222222222222222222222222222222222222222222222222222222222222
222222222222222222222222222222222222222222222222222222222222222222222222
222222222222222222222222222222222222222222222222222222222222222222222222
222222222222222222222222222222222222222222222222222222222222222222222222
222222222222222222222222222222222222222222222222222222222222222222222222
222222222222222222222222222222222222222222222222222222222222222222222222
222222222222222222222222222222222222222222222222222222222222222222222222
222222222222222222222222222222222222
# atoms in fragment 1/2:     3   753
 fragment masses (1/2) :       18.02     4521.84
CMA distance (Bohr)    :  16.930
constraining FC (au)   :  0.0500

           -------------------------------------------------
          |                 G F N 2 - x T B                 |
           -------------------------------------------------

        Reference                      10.1021/acs.jctc.8b01176
      * Hamiltonian:
        H0-scaling (s, p, d)           1.850000    2.230000    2.230000
        zeta-weighting                 0.500000
      * Dispersion:
        s8                             2.700000
        a1                             0.520000
        a2                             5.000000
        s9                             5.000000
      * Repulsion:
        kExp                           1.500000    1.000000
        rExp                           1.000000
      * Coulomb:
        alpha                          2.000000
        third order                    shell-resolved
        anisotropic                    true
        a3                             3.000000
        a5                             4.000000
        cn-shift                       1.200000
        cn-exp                         4.000000
        max-rad                        5.000000


          ...................................................
          :                      SETUP                      :
          :.................................................:
          :  # basis functions                1512          :
          :  # atomic orbitals                1512          :
          :  # shells                         1008          :
          :  # electrons                      2016          :
          :  max. iterations                   250          :
          :  Hamiltonian                  GFN2-xTB          :
          :  restarted?                      false          :
          :  GBSA solvation                  false          :
          :  PC potential                    false          :
          :  electronic temp.          300.0000000     K    :
          :  accuracy                    1.0000000          :
          :  -> integral cutoff          0.2500000E+02      :
          :  -> integral neglect         0.1000000E-07      :
          :  -> SCF convergence          0.1000000E-05 Eh   :
          :  -> wf. convergence          0.1000000E-03 e    :
          :  Broyden damping             0.4000000          :
          ...................................................

 iter      E             dE          RMSdq      gap      omega  full diag
   1  -1291.0134811 -0.129101E+04  0.407E+00    8.45       0.0  T
   2  -1291.0864569 -0.729759E-01  0.242E+00    8.25       1.0  T
   3  -1291.1176875 -0.312305E-01  0.210E-01    7.68       1.0  T
   4  -1291.1228178 -0.513032E-02  0.453E-02    7.88       1.0  T
   5  -1291.1228966 -0.788226E-04  0.308E-02    7.85       1.0  T
   6  -1291.1229358 -0.391830E-04  0.414E-03    7.86       1.0  T
   7  -1291.1229380 -0.218090E-05  0.786E-04    7.86       4.6  T
   8  -1291.1229380 -0.348846E-07  0.417E-04    7.86       8.7  T
   9  -1291.1229380 -0.172649E-07  0.596E-05    7.86      61.0  T

   *** convergence criteria satisfied after 9 iterations ***

         #    Occupation            Energy/Eh            Energy/eV
      -------------------------------------------------------------
         1        2.0000           -0.6892052             -18.7542
       ...           ...                  ...                  ...
      1002        2.0000           -0.4105835             -11.1725
      1003        2.0000           -0.4092411             -11.1360
      1004        2.0000           -0.4081662             -11.1068
      1005        2.0000           -0.4052044             -11.0262
      1006        2.0000           -0.4043888             -11.0040
      1007        2.0000           -0.4043390             -11.0026
      1008        2.0000           -0.3950479             -10.7498 (HOMO)
      1009                         -0.1061358              -2.8881 (LUMO)
      1010                         -0.0944042              -2.5689
      1011                         -0.0842706              -2.2931
      1012                         -0.0821928              -2.2366
      1013                         -0.0724606              -1.9718
       ...                                ...                  ...
      1512                          0.4399409              11.9714
      -------------------------------------------------------------
                  HL-Gap            0.2889122 Eh            7.8617 eV
             Fermi-level           -0.2505918 Eh           -6.8190 eV
 
 localization/xTB-IFF output generation
 averaging CT terms over            3  occ. levels
 averaging CT terms over            1  virt. levels
 dipole moment from electron density (au)
     X       Y       Z   
  -2.5247  -1.5748   1.0103  total (Debye):    7.987
cpu  time for init local    0.80 s
wall time for init local    0.40 s
 doing rotations ...
 initialization of trafo matrix to unity

 converged in     16 iterations, threshold :   0.99996176D-06
 doing transformations ...
 lmo centers(Z=2) and atoms on file <lmocent.coord>
 LMO Fii/eV  ncent    charge center   contributions...
    1 LP   *******   0.00 -12.42976  -7.96013  -4.13313   85O : 31.99  199O : 21.26  364O : 16.38  421O : 16.18  415O : 14.88   25O : 14.76  223O : 14.32   31O : 14.05  358O : 13.93  136O : 13.30   91O : 13.28  184O : 12.75
  100O : 12.70   97O : 12.10  403O : 11.48  235O : 11.39  115O : 11.33  481O : 11.17   61O : 10.61   70O : 10.33  496O : 10.32  388O : 10.31  547O : 10.25   40O : 10.15
  649O : 10.08  745O : 10.01  694O :  9.85  376O :  9.64  724O :  9.62  676O :  9.52   13O :  9.49  718O :  9.47  124O :  9.17  391O :  8.97  325O :  8.72   64O :  8.60
  736O :  8.36  658O :  8.15  502O :  8.14  412O :  7.73   58O :  7.66  619O :  7.63  451O :  7.45   43O :  7.40  409O :  7.38  433O :  7.27   37O :  7.19  586O :  7.16
  121O :  7.15  469O :  7.09  334O :  7.06  241O :  7.04  112O :  7.00  652O :  6.91  400O :  6.88  499O :  6.84  142O :  6.82    4O :  6.68   46O :  6.66  274O :  6.66
    7O :  6.55  232O :  6.53   16O :  6.53  154O :  6.49  436O :  6.47  304O :  6.32  397O :  6.15  187O :  6.13  370O :  6.09  607O :  6.03  478O :  5.94  190O :  5.93
  169O :  5.89  427O :  5.85  475O :  5.73   34O :  5.73  712O :  5.71  559O :  5.69  226O :  5.54  628O :  5.50  256O :  5.45  439O :  5.20  550O :  5.18  640O :  5.14
    1O :  5.14  262O :  5.13  700O :  5.07  394O :  5.05  721O :  5.05   79O :  5.02  286O :  4.98   22O :  4.97  319O :  4.86  709O :  4.84  265O :  4.77  238O :  4.72
  298O :  4.68  289O :  4.67  181O :  4.66  574O :  4.53  277O :  4.52   55O :  4.48  616O :  4.46  382O :  4.41  589O :  4.40   28O :  4.40   76O :  4.35  229O :  4.32
  739O :  4.22  484O :  4.15  730O :  4.14  685O :  4.10  631O :  4.05  109O :  4.02  664O :  4.01  148O :  3.96  682O :  3.93  133O :  3.84  454O :  3.84  472O :  3.82
  508O :  3.78  715O :  3.74  727O :  3.73  583O :  3.72  610O :  3.69  283O :  3.65  688O :  3.64  193O :  3.64  355O :  3.61  556O :  3.58  742O :  3.54  118O :  3.53
  493O :  3.53  361O :  3.52   10O :  3.50  541O :  3.50  595O :  3.42  634O :  3.39  622O :  3.38  544O :  3.33  220O :  3.32  307O :  3.32  613O :  3.25  445O :  3.23
  340O :  3.22  457O :  3.21  196O :  3.20   88O :  3.18  580O :  3.11  601O :  3.11  349O :  3.11  163O :  3.08  604O :  3.07  637O :  3.05  127O :  2.98  505O :  2.95
  562O :  2.94  214O :  2.87  172O :  2.86  538O :  2.86  511O :  2.85  352O :  2.84  523O :  2.83  139O :  2.80  424O :  2.76  442O :  2.71  568O :  2.68  322O :  2.64
  490O :  2.63  532O :  2.57  145O :  2.57  643O :  2.54  310O :  2.53  328O :  2.52  487O :  2.51  673O :  2.47   52O :  2.47   94O :  2.46  565O :  2.46  175O :  2.44
  423H :  2.44  661O :  2.43  526O :  2.40  529O :  2.38  253O :  2.34   82O :  2.33  166O :  2.32  406O :  2.29  385O :  2.25  200H :  2.23  208O :  2.21  514O :  2.20
  733O :  2.15  598O :  2.13  646O :  2.06  751O :  1.98   41H :  1.91  430O :  1.91   67O :  1.87  259O :  1.86  151O :  1.85  501H :  1.81  463O :  1.76  655O :  1.74
  211O :  1.73  271O :  1.69  301O :  1.68  331O :  1.65  592O :  1.62  438H :  1.62  677H :  1.59  292O :  1.59  244O :  1.58   73O :  1.56  228H :  1.55  520O :  1.54
  217O :  1.54  316O :  1.52  625O :  1.37  713H :  1.31  754O :  1.24   30H :  1.21  278H :  1.18  114H :  1.16  373O :  1.15  295O :  1.14  367O :  1.14  313O :  1.13
  571O :  1.13  416H :  1.13  202O :  1.12  106O :  1.09  280O :  1.09  360H :  1.06  134H :  1.04   49O :  1.03  205O :  1.00  466O :  0.99  160O :  0.97  503H :  0.96
  156H :  0.95  497H :  0.94  748O :  0.93  201H :  0.91  670O :  0.91  679O :  0.90  130O :  0.89  740H :  0.87   59H :  0.86  717H :  0.85  326H :  0.83  703O :  0.82
   65H :  0.81  448O :  0.80  656H :  0.80   48H :  0.79   17H :  0.75  396H :  0.73  413H :  0.72  356H :  0.71  411H :  0.71  426H :  0.71   36H :  0.69  695H :  0.69
  476H :  0.69  335H :  0.68  696H :  0.68  308H :  0.67  509H :  0.67    2H :  0.67  474H :  0.67  440H :  0.67  336H :  0.66  746H :  0.66  268O :  0.66  393H :  0.65
  250O :  0.65  337O :  0.64  563H :  0.64  402H :  0.64  517O :  0.63  399H :  0.63  620H :  0.62  417H :  0.62  674H :  0.62  697O :  0.59  531H :  0.58  590H :  0.57
  651H :  0.57   45H :  0.57   11H :  0.56  285H :  0.56  404H :  0.56  535O :  0.56  143H :  0.55  706O :  0.55   92H :  0.55  528H :  0.54  459H :  0.54  455H :  0.53
  498H :  0.52  551H :  0.52  561H :  0.52  236H :  0.51  596H :  0.51   93H :  0.50  636H :  0.50  482H :  0.49  654H :  0.48  460O :  0.48   71H :  0.48  441H :  0.48
  588H :  0.47   57H :  0.47  359H :  0.47  708H :  0.45   62H :  0.44  343O :  0.43  456H :  0.43   14H :  0.43  353H :  0.43   89H :  0.43  323H :  0.43   39H :  0.43
  488H :  0.43  245H :  0.42  312H :  0.42  247O :  0.42  219H :  0.41  711H :  0.41  194H :  0.41  378H :  0.41  379O :  0.40  650H :  0.40  243H :  0.39  189H :  0.39
  150H :  0.38  173H :  0.38  363H :  0.38  414H :  0.37  282H :  0.37  530H :  0.36  566H :  0.35  553O :  0.35    6H :  0.35    3H :  0.35  192H :  0.35  665H :  0.35
  645H :  0.34  522H :  0.34  584H :  0.34  684H :  0.34  752H :  0.33    9H :  0.33  621H :  0.33  140H :  0.33  468H :  0.33  157O :  0.32  418O :  0.32  122H :  0.32
  167H :  0.32  191H :  0.31   96H :  0.31  623H :  0.31  237H :  0.31   26H :  0.30  329H :  0.30  633H :  0.30  723H :  0.30  726H :  0.30   44H :  0.30  377H :  0.29
  470H :  0.29  222H :  0.29  581H :  0.29  599H :  0.29  158H :  0.28  659H :  0.28  485H :  0.28  165H :  0.28  491H :  0.27  299H :  0.27  164H :  0.27    5H :  0.27
  533H :  0.27  332H :  0.26  662H :  0.26  720H :  0.26  512H :  0.26    8H :  0.25  297H :  0.25  632H :  0.25  303H :  0.25  227H :  0.24  288H :  0.23   56H :  0.23
  452H :  0.23  218H :  0.23  626H :  0.23  450H :  0.22  728H :  0.22  342H :  0.22  689H :  0.22  257H :  0.21  159H :  0.21  407H :  0.21  500H :  0.21  719H :  0.21
   32H :  0.21  123H :  0.21  321H :  0.21  432H :  0.20  518H :  0.20  428H :  0.20  368H :  0.20  615H :  0.19   77H :  0.19   53H :  0.19  300H :  0.19  345H :  0.19
  294H :  0.19  477H :  0.19  111H :  0.19   68H :  0.19  293H :  0.18  365H :  0.18  146H :  0.18   95H :  0.18  446H :  0.18  494H :  0.18  117H :  0.18  390H :  0.18
  197H :  0.18  710H :  0.18  489H :  0.18  618H :  0.17  264H :  0.17  383H :  0.17  686H :  0.17  209H :  0.16  302H :  0.16  405H :  0.16   83H :  0.16  314H :  0.16
  290H :  0.16  318H :  0.16  506H :  0.16  691O :  0.15  537H :  0.15  242H :  0.15  647H :  0.15  366H :  0.15  103O :  0.15  458H :  0.15  207H :  0.14  240H :  0.14
  483H :  0.14  296H :  0.14  144H :  0.14  333H :  0.14   54H :  0.14   75H :  0.14  749H :  0.14  671H :  0.14  453H :  0.14  444H :  0.14  375H :  0.13  560H :  0.13
  188H :  0.13  422H :  0.13  120H :  0.13  524H :  0.13  198H :  0.13  577O :  0.13  504H :  0.13  155H :  0.13  371H :  0.13  161H :  0.12  587H :  0.12  660H :  0.12
  546H :  0.12  225H :  0.12  515H :  0.12   35H :  0.12  667O :  0.12  464H :  0.12  510H :  0.12  573H :  0.12  291H :  0.12  693H :  0.12  213H :  0.12  644H :  0.11
   19O :  0.11  447H :  0.11  683H :  0.11  612H :  0.11  389H :  0.11  635H :  0.11  675H :  0.11  567H :  0.11  575H :  0.11  392H :  0.11  273H :  0.10   15H :  0.10
  603H :  0.10  672H :  0.10  582H :  0.10  564H :  0.10  701H :  0.10   51H :  0.10  738H :  0.10  203H :  0.10  630H :  0.10  576H :  0.10  398H :  0.10  381H :  0.09
  178O :  0.09  276H :  0.09  270H :  0.09  387H :  0.09  374H :  0.09  261H :  0.09  608H :  0.09  617H :  0.09  224H :  0.09  212H :  0.09  269H :  0.09  341H :  0.09
  129H :  0.09  437H :  0.09  230H :  0.08   23H :  0.08  346O :  0.08   74H :  0.08  513H :  0.08  395H :  0.08  372H :  0.08  279H :  0.08   24H :  0.08  327H :  0.08
  462H :  0.08  602H :  0.08  624H :  0.08  105H :  0.08   99H :  0.08  492H :  0.07  434H :  0.07  272H :  0.07   80H :  0.07  266H :  0.07  210H :  0.07  149H :  0.07
    2 LP   *******   0.00 -13.00424  -5.42173  -2.46738   85O : 31.71  199O : 21.08  364O : 16.24  421O : 16.04  415O : 14.75   25O : 14.63  223O : 14.20   31O : 13.93  358O : 13.82  136O : 13.19   91O : 13.17  184O : 12.64
  100O : 12.59   97O : 12.00  403O : 11.38  235O : 11.29  115O : 11.24  481O : 11.08   61O : 10.52   70O : 10.23  496O : 10.23  388O : 10.22  547O : 10.16   40O : 10.06
  649O : 10.02  745O :  9.93  694O :  9.77  376O :  9.56  724O :  9.53  676O :  9.44   13O :  9.41  718O :  9.39  124O :  9.09  391O :  8.89  325O :  8.64   64O :  8.53
  736O :  8.28  658O :  8.08  502O :  8.07  412O :  7.66   58O :  7.59  619O :  7.56  451O :  7.39   43O :  7.34  409O :  7.32  433O :  7.21   37O :  7.13  586O :  7.10
  121O :  7.09  469O :  7.03  334O :  6.99  241O :  6.98  112O :  6.94  652O :  6.86  400O :  6.82  499O :  6.79  142O :  6.78    4O :  6.62   46O :  6.60  274O :  6.60
    7O :  6.49  232O :  6.48   16O :  6.47  154O :  6.43  436O :  6.42  304O :  6.26  397O :  6.10  187O :  6.08  370O :  6.04  607O :  5.98  478O :  5.89  190O :  5.88
  169O :  5.84  427O :  5.80  475O :  5.68   34O :  5.68  712O :  5.67  559O :  5.64  226O :  5.49  628O :  5.45  256O :  5.41  439O :  5.16  550O :  5.13  640O :  5.10
    1O :  5.10  262O :  5.08  700O :  5.03  394O :  5.01  721O :  5.00   79O :  4.98  286O :  4.95   22O :  4.93  319O :  4.82  709O :  4.80  265O :  4.73  238O :  4.67
  298O :  4.64  289O :  4.63  181O :  4.62  574O :  4.49  277O :  4.48   55O :  4.44  616O :  4.43  382O :  4.37  589O :  4.37   28O :  4.36   76O :  4.31  229O :  4.29
  739O :  4.19  484O :  4.12  730O :  4.10  685O :  4.06  631O :  4.02  664O :  4.00  109O :  3.98  148O :  3.92  682O :  3.90  133O :  3.80  454O :  3.80  472O :  3.79
  508O :  3.75  715O :  3.70  727O :  3.69  583O :  3.69  610O :  3.66  283O :  3.63  688O :  3.61  193O :  3.61  355O :  3.58  556O :  3.55  742O :  3.51  118O :  3.50
  493O :  3.50  361O :  3.49   10O :  3.47  541O :  3.47  595O :  3.40  634O :  3.36  622O :  3.35  544O :  3.30  220O :  3.30  307O :  3.29  349O :  3.22  613O :  3.22
  445O :  3.20  340O :  3.19  457O :  3.18  196O :  3.17   88O :  3.15  580O :  3.09  601O :  3.09  163O :  3.06  604O :  3.04  637O :  3.02  505O :  2.92  562O :  2.92
  214O :  2.85  172O :  2.83  538O :  2.83  511O :  2.83  127O :  2.82  352O :  2.82  523O :  2.80  139O :  2.77  424O :  2.74  442O :  2.69  568O :  2.66  322O :  2.61
  490O :  2.61  532O :  2.55  145O :  2.55  643O :  2.52  310O :  2.51  328O :  2.49  487O :  2.49   52O :  2.45  673O :  2.45   94O :  2.44  565O :  2.44  175O :  2.42
  423H :  2.42  661O :  2.40  526O :  2.38  529O :  2.36  253O :  2.32   82O :  2.31  166O :  2.30  406O :  2.27  385O :  2.23  200H :  2.21  208O :  2.19  514O :  2.18
  733O :  2.13  598O :  2.12  646O :  2.04  751O :  1.96   41H :  1.89  430O :  1.89   67O :  1.86  259O :  1.84  151O :  1.83  501H :  1.79  463O :  1.75  655O :  1.73
  211O :  1.71  271O :  1.67  301O :  1.67  331O :  1.63  592O :  1.61  438H :  1.61  677H :  1.57  292O :  1.57  244O :  1.57   73O :  1.55  228H :  1.54  520O :  1.53
  217O :  1.53  316O :  1.51  625O :  1.36  713H :  1.30  754O :  1.23   30H :  1.20  278H :  1.17  114H :  1.15  373O :  1.14  295O :  1.13  367O :  1.13  313O :  1.12
  571O :  1.12  416H :  1.12  202O :  1.11  280O :  1.08  360H :  1.05  134H :  1.04  106O :  1.03   49O :  1.02  205O :  0.99  466O :  0.98  160O :  0.96  503H :  0.95
  156H :  0.94  497H :  0.93  748O :  0.92  201H :  0.91  670O :  0.90  679O :  0.89  130O :  0.88  740H :  0.86   59H :  0.85  717H :  0.85  326H :  0.82  703O :  0.81
   65H :  0.80  448O :  0.79  656H :  0.79   48H :  0.78   17H :  0.75  396H :  0.73  413H :  0.71  356H :  0.71  411H :  0.70  426H :  0.70   36H :  0.69  695H :  0.68
  476H :  0.68  335H :  0.68  696H :  0.67  308H :  0.67  509H :  0.67    2H :  0.66  474H :  0.66  440H :  0.66  746H :  0.66  268O :  0.66  336H :  0.66  393H :  0.65
  250O :  0.64  337O :  0.63  563H :  0.63  402H :  0.63  517O :  0.62  399H :  0.62  620H :  0.62  417H :  0.62  674H :  0.61  697O :  0.59  531H :  0.57  590H :  0.57
   45H :  0.56  285H :  0.56   11H :  0.56  404H :  0.56  535O :  0.56  651H :  0.55  706O :  0.54   92H :  0.54  528H :  0.54  459H :  0.53  143H :  0.52  455H :  0.52
  498H :  0.52  551H :  0.51  561H :  0.51  236H :  0.51  596H :  0.50   93H :  0.50  636H :  0.50  482H :  0.49  654H :  0.48  460O :  0.48   71H :  0.47  441H :  0.47
  588H :  0.47   57H :  0.47  359H :  0.46  708H :  0.45   62H :  0.43  343O :  0.43  456H :  0.43   14H :  0.43  353H :  0.43   89H :  0.43  323H :  0.43   39H :  0.43
  488H :  0.43  245H :  0.42  312H :  0.41  247O :  0.41  650H :  0.41  219H :  0.41  711H :  0.41  194H :  0.40  378H :  0.40  379O :  0.39  243H :  0.39  189H :  0.38
  150H :  0.38  173H :  0.38  363H :  0.38  414H :  0.37  282H :  0.36  530H :  0.36  566H :  0.35  553O :  0.35    6H :  0.35    3H :  0.35  665H :  0.34  192H :  0.34
  645H :  0.34  522H :  0.34  584H :  0.33  684H :  0.33  752H :  0.33    9H :  0.33  621H :  0.33  140H :  0.33  468H :  0.32  157O :  0.32  418O :  0.31  122H :  0.31
  167H :  0.31  191H :  0.31   96H :  0.31  237H :  0.31  623H :  0.31   26H :  0.30  329H :  0.30  723H :  0.30  633H :  0.30  726H :  0.30   44H :  0.29  377H :  0.29
  470H :  0.29  222H :  0.29  599H :  0.29  581H :  0.29  158H :  0.28  659H :  0.28  485H :  0.28  165H :  0.27  491H :  0.27  299H :  0.27  164H :  0.27    5H :  0.26
  533H :  0.26  332H :  0.26  662H :  0.26  720H :  0.26  512H :  0.26    8H :  0.25  297H :  0.25  632H :  0.25  303H :  0.24  227H :  0.24  288H :  0.23  452H :  0.23
  218H :  0.23   56H :  0.23  626H :  0.22  450H :  0.22  728H :  0.22  342H :  0.22  689H :  0.21  257H :  0.21  159H :  0.21  407H :  0.21  500H :  0.21  719H :  0.21
   32H :  0.21  123H :  0.20  321H :  0.20  432H :  0.20  518H :  0.20  428H :  0.20  368H :  0.19  615H :  0.19   77H :  0.19   53H :  0.19  108H :  0.19  300H :  0.19
  294H :  0.19  477H :  0.18  111H :  0.18  345H :  0.18  293H :  0.18  365H :  0.18   68H :  0.18  146H :  0.18   95H :  0.18  446H :  0.18  197H :  0.18  494H :  0.18
  390H :  0.18  117H :  0.18  710H :  0.18  489H :  0.18  618H :  0.17  264H :  0.17  383H :  0.17  686H :  0.16  209H :  0.16  302H :  0.16  405H :  0.16   83H :  0.16
  314H :  0.16  290H :  0.16  318H :  0.16  506H :  0.15  691O :  0.15  537H :  0.15  242H :  0.15  647H :  0.15  366H :  0.15  103O :  0.15  458H :  0.15  207H :  0.14
  240H :  0.14   54H :  0.14  483H :  0.14  144H :  0.14  296H :  0.14  333H :  0.14   75H :  0.14  749H :  0.14  671H :  0.14  453H :  0.13  444H :  0.13  375H :  0.13
  560H :  0.13  188H :  0.13  422H :  0.13  120H :  0.13  524H :  0.13  198H :  0.13  577O :  0.13  504H :  0.13  155H :  0.13  371H :  0.13  161H :  0.12  587H :  0.12
  660H :  0.12  546H :  0.12  225H :  0.12  515H :  0.12   35H :  0.12  667O :  0.12  464H :  0.12  510H :  0.12  573H :  0.12  291H :  0.12  693H :  0.11  213H :  0.11
  644H :  0.11   19O :  0.11  447H :  0.11  683H :  0.11  612H :  0.11  389H :  0.11  635H :  0.11  675H :  0.11  567H :  0.11  575H :  0.11  392H :  0.11  273H :  0.10
   15H :  0.10  603H :  0.10  672H :  0.10  582H :  0.10  564H :  0.10  701H :  0.10   51H :  0.10  738H :  0.10  203H :  0.10  630H :  0.10  576H :  0.09  398H :  0.09
  381H :  0.09  129H :  0.09  178O :  0.09  276H :  0.09  270H :  0.09  387H :  0.09  374H :  0.09  261H :  0.09  608H :  0.09  617H :  0.09  224H :  0.09  269H :  0.09
  212H :  0.09  341H :  0.09  437H :  0.08  230H :  0.08   23H :  0.08  346O :  0.08   74H :  0.08  513H :  0.08  395H :  0.08  372H :  0.08  279H :  0.08   24H :  0.08
  327H :  0.08  462H :  0.08  602H :  0.08  624H :  0.08  105H :  0.08   99H :  0.07  492H :  0.07  434H :  0.07  272H :  0.07   80H :  0.07  266H :  0.07  210H :  0.07
  149H :  0.07
    3 LP   *******   0.00  68.85875  44.21900   6.87918   85O : 27.92  199O : 24.16  364O : 16.08  421O : 15.94  415O : 14.64   25O : 14.49  223O : 14.06   31O : 13.79  358O : 13.71  136O : 13.05   91O : 13.04  184O : 12.53
  100O : 12.47   97O : 11.87  403O : 11.27  235O : 11.18  115O : 11.13  481O : 10.98   61O : 10.42   70O : 10.13  496O : 10.13  388O : 10.12  547O : 10.06   40O :  9.96
  649O :  9.91  745O :  9.83  694O :  9.67  376O :  9.47  724O :  9.45   13O :  9.32  676O :  9.31  718O :  9.30  124O :  9.00  391O :  8.80  325O :  8.56   64O :  8.45
  736O :  8.19  658O :  8.00  502O :  7.99  412O :  7.59   58O :  7.52  619O :  7.49  451O :  7.31  409O :  7.25   43O :  7.24  433O :  7.14   37O :  7.06  586O :  7.03
  121O :  7.02  469O :  6.96  334O :  6.92  241O :  6.91  112O :  6.87  652O :  6.79  400O :  6.75  142O :  6.74  499O :  6.72    4O :  6.56   46O :  6.54  274O :  6.53
    7O :  6.43  232O :  6.41   16O :  6.40  154O :  6.37  436O :  6.35  304O :  6.20  397O :  6.04  187O :  6.02  370O :  5.98  607O :  5.92  478O :  5.83  190O :  5.82
  169O :  5.78  427O :  5.74  475O :  5.63   34O :  5.62  712O :  5.61  559O :  5.59  226O :  5.44  628O :  5.40  256O :  5.35  439O :  5.11  550O :  5.08  640O :  5.05
    1O :  5.05  262O :  5.03  700O :  4.98  394O :  4.96  721O :  4.94   79O :  4.93  286O :  4.89   22O :  4.88  319O :  4.77  709O :  4.75  265O :  4.68  238O :  4.63
  298O :  4.60  289O :  4.57  181O :  4.57  574O :  4.45  277O :  4.44   55O :  4.38  616O :  4.38  382O :  4.33  589O :  4.32   28O :  4.32   76O :  4.26  229O :  4.24
  739O :  4.15  484O :  4.08  730O :  4.06  685O :  4.02  631O :  3.97  664O :  3.95  109O :  3.92  148O :  3.88  682O :  3.86  454O :  3.77  133O :  3.76  472O :  3.75
  508O :  3.71  715O :  3.67  727O :  3.66  583O :  3.65  610O :  3.63  283O :  3.59  193O :  3.57  355O :  3.54  556O :  3.51  742O :  3.48  118O :  3.47  493O :  3.47
  361O :  3.46  541O :  3.45   10O :  3.45  595O :  3.36  634O :  3.33  622O :  3.32  544O :  3.27  220O :  3.26  307O :  3.26  349O :  3.22  688O :  3.19  613O :  3.19
  445O :  3.17  340O :  3.17   88O :  3.16  457O :  3.16  196O :  3.14  601O :  3.06  580O :  3.06  163O :  3.03  604O :  3.01  637O :  2.99  505O :  2.90  562O :  2.89
  127O :  2.88  214O :  2.82  538O :  2.81  172O :  2.81  511O :  2.80  352O :  2.79  523O :  2.77  139O :  2.74  424O :  2.71  442O :  2.66  568O :  2.63  322O :  2.59
  490O :  2.59  532O :  2.52  145O :  2.52  643O :  2.50  310O :  2.48  328O :  2.47  487O :  2.47  673O :  2.43   52O :  2.43   94O :  2.42  423H :  2.41  565O :  2.41
  175O :  2.40  661O :  2.38  526O :  2.35  529O :  2.34  166O :  2.31   82O :  2.29  406O :  2.25  385O :  2.21  253O :  2.20  208O :  2.17  514O :  2.16  646O :  2.13
  733O :  2.11  598O :  2.09  200H :  2.05  751O :  1.94   41H :  1.87  430O :  1.87   67O :  1.84  259O :  1.83  151O :  1.81  501H :  1.77  463O :  1.73  655O :  1.71
  211O :  1.70  271O :  1.66  301O :  1.65  331O :  1.62  592O :  1.59  438H :  1.59  677H :  1.56  292O :  1.56  244O :  1.55   73O :  1.53  228H :  1.52  520O :  1.52
  217O :  1.51  316O :  1.50  625O :  1.34  713H :  1.29  754O :  1.22   30H :  1.19  278H :  1.15  114H :  1.14  373O :  1.13  295O :  1.12  367O :  1.12  313O :  1.11
  571O :  1.11  202O :  1.10  416H :  1.09  106O :  1.09  280O :  1.07  360H :  1.04  134H :  1.03   49O :  1.01  205O :  0.98  466O :  0.97  160O :  0.95  503H :  0.94
  156H :  0.93  497H :  0.92  748O :  0.92  670O :  0.89  679O :  0.88  130O :  0.87  740H :  0.86   59H :  0.84  717H :  0.84  201H :  0.82  326H :  0.81  703O :  0.80
   65H :  0.80  448O :  0.79  656H :  0.78   48H :  0.77   17H :  0.74  396H :  0.72  413H :  0.70  426H :  0.70  356H :  0.70  411H :  0.70   36H :  0.68  695H :  0.68
  476H :  0.68  335H :  0.67  696H :  0.67  308H :  0.66  509H :  0.66    2H :  0.66  474H :  0.65  440H :  0.65  336H :  0.65  746H :  0.65  268O :  0.65  393H :  0.64
  250O :  0.64  337O :  0.63  563H :  0.63  402H :  0.63  517O :  0.62  697O :  0.62  399H :  0.61  417H :  0.61  620H :  0.61  674H :  0.60  531H :  0.57  590H :  0.56
  651H :  0.56   11H :  0.55  404H :  0.55  285H :  0.55  535O :  0.55   45H :  0.55  706O :  0.54   92H :  0.54  528H :  0.53  459H :  0.53  455H :  0.52  143H :  0.51
  498H :  0.51  551H :  0.51  561H :  0.51  236H :  0.50  596H :  0.50   93H :  0.50  636H :  0.49  482H :  0.48  654H :  0.47  460O :  0.47   71H :  0.47  441H :  0.47
  588H :  0.47   57H :  0.46  359H :  0.46  708H :  0.44   62H :  0.43  343O :  0.43  456H :  0.43   89H :  0.43  353H :  0.43   14H :  0.43  323H :  0.42   39H :  0.42
  488H :  0.42  245H :  0.42  312H :  0.41  247O :  0.41  219H :  0.40  711H :  0.40  194H :  0.40  378H :  0.40  650H :  0.40  379O :  0.39  243H :  0.39  189H :  0.38
  150H :  0.38  173H :  0.38  363H :  0.37  414H :  0.36  282H :  0.36  530H :  0.35  566H :  0.35  553O :  0.35    6H :  0.34    3H :  0.34  192H :  0.34  665H :  0.34
  645H :  0.34  522H :  0.34  584H :  0.33  684H :  0.33  752H :  0.33  621H :  0.32  140H :  0.32    9H :  0.32  468H :  0.32  157O :  0.31  418O :  0.31  122H :  0.31
  167H :  0.31  191H :  0.31   96H :  0.31   44H :  0.31  237H :  0.30  623H :  0.30   26H :  0.30  329H :  0.30  723H :  0.29  633H :  0.29  726H :  0.29  377H :  0.29
  470H :  0.28  599H :  0.28  222H :  0.28  581H :  0.28  158H :  0.28  659H :  0.27  485H :  0.27  165H :  0.27  491H :  0.27  299H :  0.27  164H :  0.26    5H :  0.26
  533H :  0.26  332H :  0.26  662H :  0.26  720H :  0.25  512H :  0.25    8H :  0.25  297H :  0.25  632H :  0.24  303H :  0.24  227H :  0.24  288H :  0.23  452H :  0.23
  218H :  0.22  626H :  0.22  450H :  0.22  728H :  0.22  342H :  0.22   56H :  0.21  257H :  0.21  407H :  0.21  689H :  0.21  500H :  0.21  719H :  0.20   32H :  0.20
  159H :  0.20  123H :  0.20  321H :  0.20  432H :  0.20  518H :  0.19  428H :  0.19  368H :  0.19  615H :  0.19   77H :  0.19   53H :  0.19  300H :  0.19  294H :  0.18
   68H :  0.18  345H :  0.18  477H :  0.18  111H :  0.18  293H :  0.18  365H :  0.18  146H :  0.18   95H :  0.18  446H :  0.18  494H :  0.18  197H :  0.17  390H :  0.17
  117H :  0.17  710H :  0.17  489H :  0.17  618H :  0.17  264H :  0.17  383H :  0.17  686H :  0.16  209H :  0.16  302H :  0.16  405H :  0.16   83H :  0.16  314H :  0.16
  290H :  0.16  318H :  0.15  506H :  0.15  537H :  0.15  691O :  0.15  242H :  0.15  647H :  0.15  103O :  0.14  366H :  0.14  458H :  0.14  207H :  0.14  240H :  0.14
   54H :  0.14  144H :  0.14  483H :  0.14  296H :  0.14  422H :  0.14  333H :  0.14   75H :  0.14  749H :  0.13  671H :  0.13  453H :  0.13  444H :  0.13  375H :  0.13
  560H :  0.13  188H :  0.13  120H :  0.13  524H :  0.13  198H :  0.13  577O :  0.13  504H :  0.13  155H :  0.13  371H :  0.12  161H :  0.12  587H :  0.12  660H :  0.12
  546H :  0.12  225H :  0.12  515H :  0.12   35H :  0.12  667O :  0.12  464H :  0.12  510H :  0.12  573H :  0.12  291H :  0.11  693H :  0.11  213H :  0.11   19O :  0.11
  644H :  0.11  447H :  0.11  683H :  0.11  612H :  0.11  389H :  0.11  635H :  0.11  675H :  0.11  567H :  0.11  575H :  0.10  392H :  0.10  273H :  0.10   15H :  0.10
  603H :  0.10  672H :  0.10  582H :  0.10  564H :  0.10  701H :  0.10   51H :  0.10  738H :  0.10  203H :  0.09  630H :  0.09  576H :  0.09  398H :  0.09  381H :  0.09
  178O :  0.09  276H :  0.09  270H :  0.09  387H :  0.09  374H :  0.09  261H :  0.09  129H :  0.09  608H :  0.09  617H :  0.09  224H :  0.09  269H :  0.09  212H :  0.09
  341H :  0.08  437H :  0.08  230H :  0.08  108H :  0.08  346O :  0.08   23H :  0.08   74H :  0.08  513H :  0.08  395H :  0.08  372H :  0.08  279H :  0.08   24H :  0.08
  327H :  0.08  462H :  0.08  602H :  0.08  624H :  0.08  105H :  0.07   99H :  0.07  492H :  0.07  434H :  0.07  272H :  0.07
    4 LP   *******   0.00  51.31543  40.17430  26.50612   85O : 27.80  199O : 20.78  364O : 18.64  421O : 15.82  415O : 14.54   25O : 14.42  223O : 13.99  358O : 13.63   31O : 13.30  136O : 13.01   91O : 12.98  184O : 12.47
  100O : 12.41   97O : 11.83  403O : 11.22  235O : 11.13  115O : 11.08  481O : 10.93   61O : 10.37   70O : 10.09  496O : 10.08  388O : 10.06  547O : 10.02   40O :  9.95
  649O :  9.87  745O :  9.79  694O :  9.62  376O :  9.43  724O :  9.40  676O :  9.30   13O :  9.27  718O :  9.25  124O :  8.97  391O :  8.77  325O :  8.52   64O :  8.41
  736O :  8.15  658O :  7.96  502O :  7.95  412O :  7.56   58O :  7.48  619O :  7.45  451O :  7.28   43O :  7.25  409O :  7.21  433O :  7.11   37O :  7.03  586O :  7.00
  121O :  6.99  334O :  6.89  241O :  6.88  112O :  6.85  469O :  6.77  652O :  6.76  400O :  6.72  142O :  6.71  499O :  6.69    4O :  6.53   46O :  6.51  274O :  6.51
  232O :  6.39   16O :  6.37    7O :  6.36  154O :  6.34  436O :  6.33  304O :  6.18  397O :  6.01  187O :  5.99  370O :  5.95  607O :  5.89  478O :  5.81  190O :  5.80
  169O :  5.75  427O :  5.72   34O :  5.60  475O :  5.60  712O :  5.59  559O :  5.56  226O :  5.42  628O :  5.37  256O :  5.33  439O :  5.08  550O :  5.06  640O :  5.03
    1O :  5.03  262O :  5.01  700O :  4.96  394O :  4.93  721O :  4.93   79O :  4.91  286O :  4.87   22O :  4.86  319O :  4.74  709O :  4.73  265O :  4.66  238O :  4.61
  298O :  4.57  289O :  4.56  181O :  4.55  574O :  4.43  277O :  4.42   55O :  4.37  616O :  4.36  382O :  4.31  589O :  4.31   28O :  4.28   76O :  4.24  229O :  4.23
  739O :  4.13  484O :  4.06  730O :  4.04  685O :  4.01  109O :  3.98  631O :  3.96  664O :  3.93  148O :  3.87  682O :  3.84  133O :  3.75  454O :  3.75  715O :  3.74
  472O :  3.74  508O :  3.70  727O :  3.64  583O :  3.64  610O :  3.61  283O :  3.57  193O :  3.56  688O :  3.55  355O :  3.53  556O :  3.50  742O :  3.46  118O :  3.45
  493O :  3.45  361O :  3.44   10O :  3.42  541O :  3.42  595O :  3.35  634O :  3.31  622O :  3.30  544O :  3.26  220O :  3.25  307O :  3.25  349O :  3.20  613O :  3.17
  445O :  3.16  340O :  3.15  457O :  3.14  196O :  3.13  580O :  3.05  601O :  3.04  163O :  3.02  604O :  3.00   88O :  2.99  637O :  2.98  505O :  2.88  562O :  2.88
  127O :  2.87  214O :  2.81  172O :  2.80  538O :  2.79  511O :  2.79  352O :  2.78  523O :  2.76  139O :  2.73  424O :  2.70  442O :  2.65  568O :  2.62  322O :  2.58
  490O :  2.57  532O :  2.51  145O :  2.50  643O :  2.49  310O :  2.47  328O :  2.46  487O :  2.46  673O :  2.42   52O :  2.42   94O :  2.41  565O :  2.40  175O :  2.39
  423H :  2.38  661O :  2.37  526O :  2.34  529O :  2.33   82O :  2.28  253O :  2.28  166O :  2.27  406O :  2.24  385O :  2.20  200H :  2.18  208O :  2.16  514O :  2.15
  733O :  2.10  598O :  2.09  646O :  1.99  751O :  1.93   41H :  1.89  430O :  1.86   67O :  1.83  259O :  1.82  151O :  1.80  501H :  1.77  463O :  1.72  655O :  1.70
  211O :  1.69  271O :  1.65  301O :  1.64  331O :  1.61  592O :  1.59  438H :  1.58  677H :  1.55  292O :  1.55  244O :  1.54   73O :  1.53  228H :  1.52  520O :  1.51
  217O :  1.51  316O :  1.49  625O :  1.34  713H :  1.28  754O :  1.22  278H :  1.15   30H :  1.15  114H :  1.13  373O :  1.13  295O :  1.12  367O :  1.11  313O :  1.11
  571O :  1.11  416H :  1.10  202O :  1.10  106O :  1.09  280O :  1.06  360H :  1.04  134H :  1.02   49O :  1.00  205O :  0.98  466O :  0.97  503H :  0.94  160O :  0.94
  156H :  0.93  497H :  0.92  748O :  0.91  201H :  0.89  670O :  0.89  679O :  0.88  130O :  0.87  740H :  0.85  717H :  0.85   59H :  0.84  326H :  0.81  703O :  0.80
   65H :  0.79  448O :  0.78  656H :  0.78   48H :  0.77   17H :  0.74  396H :  0.72  413H :  0.70  356H :  0.70  411H :  0.69  426H :  0.69   36H :  0.68  695H :  0.67
  476H :  0.67  335H :  0.67  696H :  0.66  308H :  0.66  509H :  0.66    2H :  0.65  474H :  0.65  440H :  0.65  336H :  0.65  746H :  0.65  268O :  0.65  393H :  0.64
  250O :  0.64  337O :  0.63  563H :  0.62  402H :  0.62  517O :  0.62  399H :  0.61  620H :  0.61  417H :  0.61  674H :  0.60  697O :  0.58  531H :  0.57  590H :  0.56
  651H :  0.55   45H :  0.55   11H :  0.55  404H :  0.55  285H :  0.55  535O :  0.55  706O :  0.54   92H :  0.53  528H :  0.53  459H :  0.53  455H :  0.52  143H :  0.51
  498H :  0.51  551H :  0.51  561H :  0.50  236H :  0.50  596H :  0.50   93H :  0.49  636H :  0.49  482H :  0.48  654H :  0.47  460O :  0.47   71H :  0.47  441H :  0.46
  588H :  0.46   57H :  0.46  359H :  0.46   89H :  0.45  708H :  0.44   62H :  0.43  343O :  0.43  456H :  0.42   14H :  0.42  353H :  0.42  323H :  0.42   39H :  0.42
  488H :  0.42  245H :  0.41  312H :  0.41  247O :  0.41  219H :  0.40  711H :  0.40  194H :  0.40  378H :  0.40  650H :  0.39  379O :  0.39  243H :  0.38  189H :  0.38
  150H :  0.38  173H :  0.37  363H :  0.37  414H :  0.36  282H :  0.36  530H :  0.35  553O :  0.35  566H :  0.35    6H :  0.34    3H :  0.34  192H :  0.34  665H :  0.34
  645H :  0.34  522H :  0.34  584H :  0.33  684H :  0.33  752H :  0.33  621H :  0.32  140H :  0.32    9H :  0.32  468H :  0.32  157O :  0.32  418O :  0.31  122H :  0.31
  167H :  0.31  191H :  0.31   96H :  0.31  237H :  0.30  623H :  0.30   26H :  0.29  329H :  0.29  723H :  0.29  633H :  0.29  726H :  0.29   44H :  0.29  581H :  0.29
  377H :  0.28  470H :  0.28  222H :  0.28  599H :  0.28  158H :  0.28  659H :  0.27  485H :  0.27  165H :  0.27  491H :  0.27  299H :  0.26  164H :  0.26    5H :  0.26
  533H :  0.26  332H :  0.26  662H :  0.26  720H :  0.25  512H :  0.25    8H :  0.25  297H :  0.25  632H :  0.24  303H :  0.24  227H :  0.24  288H :  0.23  452H :  0.23
  218H :  0.22  626H :  0.22  450H :  0.22  728H :  0.22  342H :  0.22   56H :  0.21  689H :  0.21  159H :  0.21  257H :  0.21  407H :  0.21  500H :  0.21  719H :  0.20
  123H :  0.20  321H :  0.20  432H :  0.20   32H :  0.19  518H :  0.19  428H :  0.19  368H :  0.19  615H :  0.19   77H :  0.19  111H :  0.19   53H :  0.19  300H :  0.19
  294H :  0.18   68H :  0.18  345H :  0.18  477H :  0.18  293H :  0.18  146H :  0.18   95H :  0.18  446H :  0.17  494H :  0.17  197H :  0.17  117H :  0.17  710H :  0.17
  489H :  0.17  618H :  0.17  390H :  0.17  264H :  0.17  383H :  0.17  686H :  0.16  209H :  0.16  302H :  0.16  405H :  0.16   83H :  0.16  314H :  0.16  290H :  0.16
  366H :  0.15  318H :  0.15  506H :  0.15  537H :  0.15  691O :  0.15  242H :  0.15  647H :  0.15  103O :  0.14  458H :  0.14  207H :  0.14  240H :  0.14   54H :  0.14
  144H :  0.14  483H :  0.14  296H :  0.14  333H :  0.14   75H :  0.14  749H :  0.13  671H :  0.13  453H :  0.13  444H :  0.13  375H :  0.13  560H :  0.13  188H :  0.13
  422H :  0.13  120H :  0.13  524H :  0.13  198H :  0.13  577O :  0.13  504H :  0.12  155H :  0.12  371H :  0.12  365H :  0.12  587H :  0.12  660H :  0.12  546H :  0.12
  225H :  0.12  161H :  0.12  515H :  0.12   35H :  0.12  667O :  0.12  464H :  0.12  510H :  0.12  573H :  0.12  291H :  0.11  693H :  0.11  213H :  0.11   19O :  0.11
  644H :  0.11  447H :  0.11  683H :  0.11  612H :  0.11  389H :  0.11  635H :  0.11  675H :  0.11  567H :  0.11  471H :  0.11  575H :  0.10  392H :  0.10  273H :  0.10
   15H :  0.10  603H :  0.10  672H :  0.10  582H :  0.10  564H :  0.10  701H :  0.10   51H :  0.10  738H :  0.10  203H :  0.09  630H :  0.09  576H :  0.09  398H :  0.09
  381H :  0.09  178O :  0.09  276H :  0.09  270H :  0.09  387H :  0.09  374H :  0.09  261H :  0.09  129H :  0.09  608H :  0.09  617H :  0.09  224H :  0.09  269H :  0.09
  212H :  0.09  341H :  0.08  437H :  0.08  230H :  0.08  108H :  0.08   23H :  0.08  346O :  0.08   74H :  0.08  513H :  0.08  395H :  0.08  372H :  0.08  279H :  0.08
   24H :  0.08  327H :  0.08  462H :  0.08  602H :  0.08  624H :  0.07  105H :  0.07   99H :  0.07  492H :  0.07  434H :  0.07  272H :  0.07
    5 LP   *******   0.00  60.80758  34.71252 -18.97588   85O : 23.01  199O : 17.22  358O : 14.59  364O : 13.26  421O : 13.11  415O : 12.04   25O : 11.94  223O : 11.58   31O : 11.37   91O : 10.75  136O : 10.72  184O : 10.32
  100O : 10.27   97O :  9.79  403O :  9.29  235O :  9.22  115O :  9.17  481O :  9.05   61O :  8.59   70O :  8.35  496O :  8.35  388O :  8.34  547O :  8.29   40O :  8.21
  649O :  8.17  745O :  8.10  694O :  7.97  376O :  7.81  724O :  7.78  676O :  7.70   13O :  7.68  718O :  7.66  124O :  7.36  391O :  7.22  325O :  7.05   64O :  6.98
  736O :  6.75  658O :  6.59  502O :  6.59  412O :  6.26   58O :  6.20  619O :  6.17  451O :  6.02  409O :  5.97   43O :  5.95  433O :  5.88   37O :  5.82  586O :  5.80
  121O :  5.79  469O :  5.74  334O :  5.71  241O :  5.69  112O :  5.67  652O :  5.60  400O :  5.56  142O :  5.56  499O :  5.54    4O :  5.41   46O :  5.39  274O :  5.39
    7O :  5.31  232O :  5.29   16O :  5.27  154O :  5.25  436O :  5.24  304O :  5.11  397O :  4.98  187O :  4.96  370O :  4.93  607O :  4.88  478O :  4.81  190O :  4.80
  169O :  4.76  427O :  4.73  475O :  4.64   34O :  4.63  712O :  4.62  559O :  4.61  226O :  4.48  628O :  4.45  256O :  4.41  439O :  4.21  550O :  4.18  640O :  4.16
    1O :  4.16  262O :  4.15  700O :  4.10  721O :  4.08  394O :  4.08   79O :  4.06  286O :  4.03   22O :  4.02  319O :  3.93  709O :  3.91  265O :  3.86  238O :  3.81
  298O :  3.79  289O :  3.77  181O :  3.77  574O :  3.67  277O :  3.66   55O :  3.61  616O :  3.61  382O :  3.57  589O :  3.56   28O :  3.56   76O :  3.51  229O :  3.50
  739O :  3.42  484O :  3.36  730O :  3.35  685O :  3.32  631O :  3.27  664O :  3.25  109O :  3.25  148O :  3.20  682O :  3.18  454O :  3.10  133O :  3.10  472O :  3.09
  508O :  3.06  715O :  3.02  727O :  3.01  583O :  3.01  610O :  2.99  283O :  2.96  688O :  2.95  193O :  2.94  355O :  2.92  556O :  2.89  742O :  2.86  493O :  2.86
  118O :  2.85  361O :  2.85  541O :  2.84   10O :  2.83  595O :  2.77  634O :  2.74  622O :  2.73  544O :  2.70  220O :  2.69  307O :  2.69  349O :  2.65  613O :  2.63
  445O :  2.61  340O :  2.61  457O :  2.60  196O :  2.59   88O :  2.58  601O :  2.52  580O :  2.52  163O :  2.49  604O :  2.48  637O :  2.46  505O :  2.39  562O :  2.38
  127O :  2.37  214O :  2.32  172O :  2.31  538O :  2.31  511O :  2.30  352O :  2.30  523O :  2.29  139O :  2.26  424O :  2.23  442O :  2.19  568O :  2.17  322O :  2.13
  490O :  2.13  532O :  2.08  145O :  2.08  643O :  2.06  310O :  2.04  328O :  2.04  487O :  2.03  673O :  2.00   52O :  2.00   94O :  2.00  565O :  1.99  423H :  1.98
  175O :  1.98  661O :  1.96  526O :  1.94  529O :  1.92  253O :  1.89   82O :  1.89  166O :  1.88  406O :  1.85  385O :  1.82  200H :  1.81  208O :  1.79  514O :  1.78
  733O :  1.74  598O :  1.73  646O :  1.67  751O :  1.60   41H :  1.54  430O :  1.54   67O :  1.52  259O :  1.50  151O :  1.49  501H :  1.46  463O :  1.42  655O :  1.41
  211O :  1.40  271O :  1.36  301O :  1.36  331O :  1.33  592O :  1.31  438H :  1.31  677H :  1.29  292O :  1.28  244O :  1.28   73O :  1.26  228H :  1.26  520O :  1.25
  217O :  1.24  316O :  1.23  625O :  1.11  713H :  1.06  754O :  1.01   30H :  0.98  278H :  0.95  114H :  0.94  373O :  0.93  295O :  0.92  367O :  0.92  313O :  0.92
  571O :  0.92  416H :  0.91  202O :  0.91  106O :  0.90  280O :  0.88  134H :  0.84   49O :  0.83  205O :  0.81  466O :  0.80  160O :  0.78  503H :  0.78  156H :  0.77
  497H :  0.76  360H :  0.75  748O :  0.75  201H :  0.74  670O :  0.74  679O :  0.73  130O :  0.72  740H :  0.70   59H :  0.70  717H :  0.69  326H :  0.67  703O :  0.66
   65H :  0.65  448O :  0.65  656H :  0.64   48H :  0.64   17H :  0.61  396H :  0.59  413H :  0.58  356H :  0.58  411H :  0.57  426H :  0.57   36H :  0.56  695H :  0.56
  476H :  0.56  335H :  0.55  696H :  0.55  308H :  0.54  509H :  0.54    2H :  0.54  474H :  0.54  440H :  0.54  336H :  0.54  746H :  0.54  268O :  0.54  250O :  0.53
  393H :  0.53  337O :  0.52  563H :  0.52  402H :  0.52  517O :  0.51  399H :  0.51  620H :  0.51  417H :  0.50  674H :  0.50  697O :  0.48   45H :  0.47  531H :  0.47
  590H :  0.46  651H :  0.46   11H :  0.46  404H :  0.45  285H :  0.45  535O :  0.45  706O :  0.44   92H :  0.44  528H :  0.44  459H :  0.44  455H :  0.43  143H :  0.42
  498H :  0.42  551H :  0.42  561H :  0.42  236H :  0.41  596H :  0.41   93H :  0.41  636H :  0.41  482H :  0.40  654H :  0.39  460O :  0.39   71H :  0.38  441H :  0.38
  588H :  0.38   57H :  0.38  708H :  0.37   62H :  0.35  343O :  0.35   14H :  0.35   89H :  0.35  456H :  0.35  353H :  0.35  323H :  0.35   39H :  0.35  488H :  0.35
  245H :  0.34  312H :  0.34  247O :  0.34  711H :  0.33  194H :  0.33  378H :  0.33  219H :  0.33  650H :  0.33  379O :  0.32  243H :  0.32  359H :  0.32  189H :  0.31
  150H :  0.31  173H :  0.31  363H :  0.31  414H :  0.30  282H :  0.30  530H :  0.29  566H :  0.29  553O :  0.29    6H :  0.28    3H :  0.28  192H :  0.28  665H :  0.28
  645H :  0.28  522H :  0.28  584H :  0.27  684H :  0.27  752H :  0.27    9H :  0.27  621H :  0.27  140H :  0.27  468H :  0.26  157O :  0.26  418O :  0.26  122H :  0.26
  167H :  0.25  191H :  0.25   96H :  0.25  237H :  0.25  623H :  0.25   26H :  0.24  329H :  0.24  723H :  0.24  633H :  0.24  726H :  0.24   44H :  0.24  377H :  0.24
  470H :  0.24  222H :  0.23  581H :  0.23  599H :  0.23  158H :  0.23  659H :  0.23  485H :  0.22  165H :  0.22  491H :  0.22  299H :  0.22  164H :  0.22    5H :  0.22
  533H :  0.21  332H :  0.21  662H :  0.21  720H :  0.21  512H :  0.21    8H :  0.21  297H :  0.20  632H :  0.20  303H :  0.20  227H :  0.20  218H :  0.19  288H :  0.19
  452H :  0.19  626H :  0.18  450H :  0.18  728H :  0.18  342H :  0.18   56H :  0.18  689H :  0.17  159H :  0.17  257H :  0.17  407H :  0.17  500H :  0.17  719H :  0.17
   32H :  0.17  123H :  0.17  321H :  0.17  432H :  0.16  518H :  0.16  428H :  0.16  368H :  0.16  615H :  0.16   77H :  0.16   53H :  0.16  300H :  0.15  294H :  0.15
   68H :  0.15  345H :  0.15  477H :  0.15  111H :  0.15  293H :  0.15  365H :  0.15  146H :  0.15   95H :  0.15  446H :  0.14  494H :  0.14  197H :  0.14  390H :  0.14
  117H :  0.14  710H :  0.14  489H :  0.14  618H :  0.14  264H :  0.14  383H :  0.14  686H :  0.13  209H :  0.13  302H :  0.13  405H :  0.13   83H :  0.13  314H :  0.13
  290H :  0.13  318H :  0.13  506H :  0.13  537H :  0.12  691O :  0.12  242H :  0.12  647H :  0.12  103O :  0.12  366H :  0.12  458H :  0.12  207H :  0.12  240H :  0.12
   54H :  0.11  144H :  0.11  483H :  0.11  296H :  0.11  333H :  0.11   75H :  0.11  749H :  0.11  671H :  0.11  453H :  0.11  444H :  0.11  120H :  0.11  375H :  0.11
  560H :  0.11  188H :  0.11  422H :  0.11  524H :  0.11  198H :  0.11  577O :  0.10  504H :  0.10  155H :  0.10  371H :  0.10  161H :  0.10  587H :  0.10  660H :  0.10
  546H :  0.10  225H :  0.10  515H :  0.10   35H :  0.10  667O :  0.10  464H :  0.10  510H :  0.10  573H :  0.10  291H :  0.09  693H :  0.09  213H :  0.09  644H :  0.09
   19O :  0.09  447H :  0.09  683H :  0.09  612H :  0.09  389H :  0.09  635H :  0.09  392H :  0.09  675H :  0.09  567H :  0.09  575H :  0.09  273H :  0.08   15H :  0.08
  603H :  0.08  672H :  0.08  582H :  0.08  564H :  0.08  701H :  0.08   51H :  0.08  738H :  0.08  630H :  0.08  203H :  0.08  576H :  0.08  398H :  0.08  381H :  0.08
  178O :  0.08  276H :  0.08  270H :  0.07  387H :  0.07  374H :  0.07  261H :  0.07  129H :  0.07  608H :  0.07  617H :  0.07  224H :  0.07  269H :  0.07  212H :  0.07
    6 LP   *******   0.00 -18.65493   5.17801 -30.09006   85O : 22.51  199O : 16.82   91O : 13.55  364O : 12.96  421O : 12.81  415O : 11.77   25O : 11.68  223O : 11.33   31O : 11.12  358O : 11.03  136O : 10.53  184O : 10.10
  100O : 10.05   97O :  9.58  403O :  9.08  235O :  9.02  115O :  8.97  481O :  8.85   61O :  8.40  496O :  8.17   70O :  8.16  388O :  8.16  547O :  8.11   40O :  8.03
  649O :  7.99  745O :  7.92  694O :  7.80  376O :  7.63  724O :  7.61  676O :  7.53   13O :  7.51  718O :  7.50  124O :  7.26  391O :  7.10  325O :  6.90   64O :  6.81
  736O :  6.60  658O :  6.45  502O :  6.44  412O :  6.12   58O :  6.06  619O :  6.04  451O :  5.89   43O :  5.85  409O :  5.84  433O :  5.76   37O :  5.69  586O :  5.67
  121O :  5.66  469O :  5.61  334O :  5.58  241O :  5.57  112O :  5.54  652O :  5.47  400O :  5.44  142O :  5.43  499O :  5.42    4O :  5.29   46O :  5.27  274O :  5.27
    7O :  5.18  232O :  5.17   16O :  5.16  154O :  5.13  436O :  5.12  304O :  5.00  397O :  4.87  187O :  4.85  370O :  4.82  607O :  4.77  478O :  4.70  190O :  4.69
  169O :  4.66  427O :  4.63  475O :  4.54   34O :  4.53  712O :  4.52  226O :  4.38  628O :  4.35  256O :  4.31  439O :  4.12  559O :  4.10  550O :  4.09  640O :  4.07
    1O :  4.07  262O :  4.06  700O :  4.01  394O :  4.00  721O :  3.99   79O :  3.97  286O :  3.94   22O :  3.93  319O :  3.84  709O :  3.83  265O :  3.77  238O :  3.74
  298O :  3.71  289O :  3.69  181O :  3.69  574O :  3.59  277O :  3.58   55O :  3.53  616O :  3.53  382O :  3.49  589O :  3.49   28O :  3.48   76O :  3.43  229O :  3.42
  739O :  3.34  484O :  3.29  730O :  3.27  685O :  3.24  631O :  3.20  664O :  3.18  109O :  3.18  148O :  3.13  682O :  3.11  133O :  3.04  454O :  3.04  472O :  3.02
  508O :  2.99  715O :  2.96  727O :  2.95  583O :  2.95  610O :  2.92  283O :  2.89  688O :  2.88  193O :  2.88  355O :  2.86  556O :  2.83  742O :  2.80  118O :  2.80
  493O :  2.79  361O :  2.79   10O :  2.77  541O :  2.77  595O :  2.71  634O :  2.68  622O :  2.67  544O :  2.64  220O :  2.63  307O :  2.63  349O :  2.59  613O :  2.57
  445O :  2.56  340O :  2.55  457O :  2.54  196O :  2.53   88O :  2.52  580O :  2.46  601O :  2.46  163O :  2.44  604O :  2.43  637O :  2.41  127O :  2.34  562O :  2.34
  505O :  2.33  214O :  2.27  172O :  2.26  538O :  2.26  511O :  2.26  352O :  2.25  523O :  2.24  139O :  2.21  424O :  2.19  442O :  2.15  568O :  2.12  322O :  2.09
  490O :  2.08  532O :  2.03  145O :  2.03  643O :  2.01  310O :  2.00   52O :  1.99  328O :  1.99  487O :  1.99  673O :  1.96   94O :  1.95  565O :  1.95  175O :  1.93
  423H :  1.93  661O :  1.92  526O :  1.90  529O :  1.88  253O :  1.85   82O :  1.85  166O :  1.84  406O :  1.81  385O :  1.78  200H :  1.77  208O :  1.75  514O :  1.74
  733O :  1.70  598O :  1.69  646O :  1.63  751O :  1.57   41H :  1.51  430O :  1.51   67O :  1.48  259O :  1.47  151O :  1.46  501H :  1.43  463O :  1.39  655O :  1.38
  211O :  1.37  271O :  1.34  301O :  1.33  331O :  1.30  592O :  1.29  438H :  1.28  244O :  1.28  677H :  1.26  292O :  1.25   73O :  1.24  228H :  1.23  520O :  1.22
  217O :  1.22  316O :  1.21  625O :  1.08  713H :  1.04  754O :  0.99   30H :  0.96  278H :  0.93  114H :  0.92  373O :  0.91  295O :  0.90  367O :  0.90  313O :  0.90
  571O :  0.90  416H :  0.89  202O :  0.89  106O :  0.88  280O :  0.84  360H :  0.84  134H :  0.83   49O :  0.81  205O :  0.79  466O :  0.78  160O :  0.77  503H :  0.76
  156H :  0.75  497H :  0.74  748O :  0.74  201H :  0.72  670O :  0.72  679O :  0.71  130O :  0.70  740H :  0.69   59H :  0.68  717H :  0.68  326H :  0.65  703O :  0.65
   65H :  0.64  448O :  0.63  656H :  0.63   48H :  0.62   17H :  0.60  396H :  0.58  413H :  0.57  356H :  0.56  411H :  0.56  426H :  0.56   36H :  0.55  695H :  0.55
  476H :  0.54  335H :  0.54  696H :  0.54  308H :  0.53  509H :  0.53    2H :  0.53  474H :  0.53  440H :  0.53  336H :  0.52  746H :  0.52  268O :  0.52  393H :  0.52
  250O :  0.51  337O :  0.51  402H :  0.50  563H :  0.50  517O :  0.50  399H :  0.50  620H :  0.49  417H :  0.49  674H :  0.49  697O :  0.47  531H :  0.46  590H :  0.45
  651H :  0.45   45H :  0.45   11H :  0.45  404H :  0.44  285H :  0.44  535O :  0.44  706O :  0.43  528H :  0.43  459H :  0.43  455H :  0.42  143H :  0.41  498H :  0.41
  551H :  0.41  561H :  0.41  236H :  0.41  596H :  0.40  636H :  0.40  482H :  0.39  654H :  0.38  460O :  0.38   71H :  0.38  441H :  0.38  588H :  0.38   57H :  0.37
  359H :  0.37  708H :  0.36   92H :  0.35   62H :  0.35  343O :  0.34  456H :  0.34   14H :  0.34   89H :  0.34  353H :  0.34  323H :  0.34   39H :  0.34  488H :  0.34
  245H :  0.34  312H :  0.33  247O :  0.33  219H :  0.33  711H :  0.33  194H :  0.32  378H :  0.32  650H :  0.32  379O :  0.31   93H :  0.31  243H :  0.31  189H :  0.31
  150H :  0.30  173H :  0.30  363H :  0.30  414H :  0.29  282H :  0.29  530H :  0.28  566H :  0.28  553O :  0.28    6H :  0.28    3H :  0.28  192H :  0.27  665H :  0.27
  645H :  0.27  522H :  0.27  584H :  0.27  684H :  0.27  752H :  0.26    9H :  0.26  621H :  0.26  140H :  0.26  468H :  0.26  157O :  0.26  122H :  0.25  167H :  0.25
  191H :  0.25  418O :  0.25   96H :  0.25  237H :  0.25  623H :  0.24   26H :  0.24  329H :  0.24  723H :  0.24  633H :  0.24  726H :  0.24   44H :  0.24  377H :  0.23
  470H :  0.23  222H :  0.23  581H :  0.23  599H :  0.23  158H :  0.22  659H :  0.22  485H :  0.22  165H :  0.22  491H :  0.22  299H :  0.21  164H :  0.21    5H :  0.21
  533H :  0.21  332H :  0.21  662H :  0.21  720H :  0.20  512H :  0.20    8H :  0.20  297H :  0.20  632H :  0.20  303H :  0.19  227H :  0.19  288H :  0.18  452H :  0.18
  218H :  0.18  626H :  0.18  342H :  0.18  450H :  0.18  728H :  0.18   56H :  0.17  689H :  0.17  257H :  0.17  159H :  0.17  407H :  0.17  500H :  0.17  719H :  0.16
   32H :  0.16   53H :  0.16  123H :  0.16  321H :  0.16  432H :  0.16  518H :  0.16  428H :  0.16  368H :  0.15  615H :  0.15   77H :  0.15  300H :  0.15  294H :  0.15
   68H :  0.15  345H :  0.15  477H :  0.15  111H :  0.15  293H :  0.14  365H :  0.14  146H :  0.14   95H :  0.14  446H :  0.14  494H :  0.14  197H :  0.14  390H :  0.14
  117H :  0.14  710H :  0.14  489H :  0.14  618H :  0.14  264H :  0.14  383H :  0.13  686H :  0.13  209H :  0.13  302H :  0.13  405H :  0.13   83H :  0.13  314H :  0.13
  290H :  0.13  318H :  0.12  506H :  0.12  537H :  0.12  691O :  0.12  242H :  0.12  647H :  0.12  366H :  0.12  103O :  0.12  458H :  0.12  207H :  0.11  240H :  0.11
  144H :  0.11  483H :  0.11  296H :  0.11  333H :  0.11   75H :  0.11  749H :  0.11  671H :  0.11   54H :  0.11  453H :  0.11  444H :  0.11  375H :  0.11  188H :  0.11
  422H :  0.11  120H :  0.11  524H :  0.10  198H :  0.10  577O :  0.10  504H :  0.10  155H :  0.10  371H :  0.10  161H :  0.10  587H :  0.10  660H :  0.10  546H :  0.10
  225H :  0.10  515H :  0.10   35H :  0.10  667O :  0.10  464H :  0.09  510H :  0.09  573H :  0.09  291H :  0.09  693H :  0.09  213H :  0.09  644H :  0.09   19O :  0.09
  447H :  0.09  683H :  0.09  612H :  0.09  389H :  0.09  635H :  0.09  675H :  0.09  567H :  0.09  575H :  0.08  392H :  0.08  273H :  0.08   15H :  0.08  603H :  0.08
  672H :  0.08  582H :  0.08  564H :  0.08  701H :  0.08   51H :  0.08  738H :  0.08  203H :  0.08  630H :  0.08  576H :  0.08  398H :  0.08  381H :  0.08  178O :  0.07
  276H :  0.07  270H :  0.07  387H :  0.07  374H :  0.07  129H :  0.07  261H :  0.07  608H :  0.07  617H :  0.07  224H :  0.07
    7 LP   *******   0.00  54.79148  49.99381  -6.29430   85O : 18.13  199O : 13.55  421O : 12.73  364O : 10.44  415O :  9.49   25O :  9.41  223O :  9.13   31O :  8.96  358O :  8.92   91O :  8.47  136O :  8.46  184O :  8.14
  100O :  8.10   97O :  7.70  403O :  7.32  235O :  7.26  115O :  7.22  481O :  7.13   61O :  6.77   70O :  6.58  496O :  6.58  388O :  6.57  547O :  6.53   40O :  6.47
  649O :  6.44  745O :  6.38  694O :  6.28  724O :  6.13  376O :  6.10  676O :  6.07   13O :  6.05  718O :  6.04  124O :  5.85  391O :  5.71  325O :  5.56   64O :  5.48
  736O :  5.32  658O :  5.21  502O :  5.19  412O :  4.93   58O :  4.89  619O :  4.86  451O :  4.75  409O :  4.71  433O :  4.64   43O :  4.63   37O :  4.59  586O :  4.57
  121O :  4.56  469O :  4.52  334O :  4.50  241O :  4.49  112O :  4.47  652O :  4.41  400O :  4.38  142O :  4.38  499O :  4.36    4O :  4.26   46O :  4.25  274O :  4.25
    7O :  4.17  232O :  4.17   16O :  4.16  154O :  4.14  436O :  4.13  304O :  4.02  397O :  3.92  187O :  3.91  370O :  3.88  607O :  3.84  478O :  3.79  190O :  3.78
  169O :  3.75  427O :  3.73  475O :  3.65   34O :  3.65  712O :  3.64  559O :  3.63  226O :  3.53  628O :  3.51  256O :  3.47  439O :  3.32  550O :  3.30  640O :  3.28
    1O :  3.28  262O :  3.27  700O :  3.23  394O :  3.22  721O :  3.22   79O :  3.20  286O :  3.18   22O :  3.17  319O :  3.09  709O :  3.08  265O :  3.04  289O :  3.01
  238O :  3.00  298O :  2.99  181O :  2.97  574O :  2.89  277O :  2.88   55O :  2.85  616O :  2.85  382O :  2.81  589O :  2.81   28O :  2.81   76O :  2.77  229O :  2.76
  739O :  2.69  484O :  2.65  730O :  2.64  685O :  2.61  631O :  2.58  109O :  2.57  664O :  2.56  148O :  2.52  682O :  2.51  133O :  2.45  454O :  2.45  472O :  2.44
  508O :  2.41  715O :  2.38  727O :  2.38  583O :  2.37  610O :  2.35  283O :  2.33  688O :  2.32  193O :  2.32  355O :  2.30  556O :  2.28  742O :  2.26  493O :  2.25
  118O :  2.25  361O :  2.24  541O :  2.24   10O :  2.23  595O :  2.18  634O :  2.16  622O :  2.15  544O :  2.12  220O :  2.12  307O :  2.12  349O :  2.09  613O :  2.07
  445O :  2.06  340O :  2.06  457O :  2.05  196O :  2.04   88O :  2.03  580O :  1.98  601O :  1.98  163O :  1.96  604O :  1.96  637O :  1.94  505O :  1.88  562O :  1.88
  127O :  1.87  214O :  1.83  538O :  1.82  172O :  1.82  511O :  1.82  352O :  1.81  523O :  1.80  139O :  1.78  442O :  1.73  568O :  1.71  322O :  1.68  490O :  1.68
  424O :  1.66  532O :  1.64  145O :  1.64  643O :  1.63  310O :  1.61  328O :  1.61  487O :  1.60   52O :  1.58  673O :  1.58   94O :  1.57  565O :  1.57  175O :  1.56
  661O :  1.54  526O :  1.53  529O :  1.52   82O :  1.49  166O :  1.48  253O :  1.47  406O :  1.46  385O :  1.43  208O :  1.41  423H :  1.40  514O :  1.40  200H :  1.40
  733O :  1.37  598O :  1.36  646O :  1.32  751O :  1.26   41H :  1.22  430O :  1.22   67O :  1.20  259O :  1.19  151O :  1.18  501H :  1.15  463O :  1.12  655O :  1.11
  211O :  1.10  271O :  1.08  301O :  1.07  331O :  1.05  592O :  1.04  438H :  1.03  677H :  1.01  292O :  1.01  244O :  1.01   73O :  1.00  217O :  0.99  228H :  0.99
  520O :  0.99  316O :  0.97  625O :  0.87  713H :  0.83  754O :  0.79   30H :  0.77  278H :  0.75  114H :  0.74  373O :  0.74  295O :  0.73  367O :  0.73  313O :  0.72
  571O :  0.72  416H :  0.72  202O :  0.71  360H :  0.71  106O :  0.71  280O :  0.69  134H :  0.67   49O :  0.65  205O :  0.64  466O :  0.63  160O :  0.62  503H :  0.61
  156H :  0.61  497H :  0.60  748O :  0.59  201H :  0.58  670O :  0.58  679O :  0.57  130O :  0.57  740H :  0.56   59H :  0.55  717H :  0.54  326H :  0.53  703O :  0.52
   65H :  0.52  448O :  0.51  656H :  0.51   48H :  0.50   17H :  0.48  396H :  0.47  413H :  0.46  356H :  0.45  411H :  0.45   36H :  0.44  426H :  0.44  695H :  0.44
  476H :  0.44  335H :  0.44  696H :  0.43  308H :  0.43  509H :  0.43    2H :  0.43  474H :  0.42  440H :  0.42  336H :  0.42  746H :  0.42  268O :  0.42  393H :  0.42
  337O :  0.41  563H :  0.41  402H :  0.41  517O :  0.40  399H :  0.40  250O :  0.40  620H :  0.40  417H :  0.40  674H :  0.39  697O :  0.39  531H :  0.37  590H :  0.36
  651H :  0.36   11H :  0.36  404H :  0.36  285H :  0.36  535O :  0.36   45H :  0.35  706O :  0.35   92H :  0.35  528H :  0.35  459H :  0.34  455H :  0.34  143H :  0.33
  498H :  0.33  551H :  0.33  561H :  0.33  236H :  0.33  596H :  0.32   93H :  0.32  636H :  0.32  482H :  0.31  359H :  0.31  654H :  0.31  460O :  0.31   71H :  0.30
  441H :  0.30  588H :  0.30   57H :  0.30  708H :  0.29   62H :  0.28  343O :  0.28  456H :  0.28   14H :  0.28  353H :  0.28   89H :  0.28  323H :  0.28   39H :  0.27
  488H :  0.27  245H :  0.27  219H :  0.27  312H :  0.27  247O :  0.26  711H :  0.26  194H :  0.26  378H :  0.26  650H :  0.26  379O :  0.25  243H :  0.25  157O :  0.25
  189H :  0.25  150H :  0.25  173H :  0.24  363H :  0.24  414H :  0.24  282H :  0.23  530H :  0.23  566H :  0.23  553O :  0.23  645H :  0.23    6H :  0.22    3H :  0.22
  192H :  0.22  665H :  0.22  522H :  0.22  584H :  0.21  684H :  0.21  159H :  0.21  752H :  0.21  621H :  0.21  140H :  0.21    9H :  0.21  468H :  0.21  418O :  0.20
  122H :  0.20  167H :  0.20  191H :  0.20   96H :  0.20  237H :  0.20  623H :  0.20   44H :  0.19   26H :  0.19  329H :  0.19  723H :  0.19  633H :  0.19  726H :  0.19
  470H :  0.19  377H :  0.19  222H :  0.18  581H :  0.18  599H :  0.18  659H :  0.18  158H :  0.18  485H :  0.18  165H :  0.18  491H :  0.18  299H :  0.17  164H :  0.17
    5H :  0.17  533H :  0.17  332H :  0.17  662H :  0.17  720H :  0.17  512H :  0.16    8H :  0.16  297H :  0.16  632H :  0.16  303H :  0.16  227H :  0.16  288H :  0.15
  452H :  0.15  218H :  0.15  626H :  0.14  450H :  0.14  728H :  0.14  342H :  0.14   56H :  0.14  689H :  0.14  257H :  0.14  407H :  0.14  500H :  0.13  719H :  0.13
   32H :  0.13  123H :  0.13  321H :  0.13  432H :  0.13  518H :  0.13  428H :  0.13  368H :  0.12  615H :  0.12   77H :  0.12   53H :  0.12  300H :  0.12  294H :  0.12
   68H :  0.12  345H :  0.12  477H :  0.12  111H :  0.12  293H :  0.12  365H :  0.12  146H :  0.11   95H :  0.11  446H :  0.11  494H :  0.11  197H :  0.11  390H :  0.11
  117H :  0.11  710H :  0.11  489H :  0.11  618H :  0.11  422H :  0.11  264H :  0.11  383H :  0.11  686H :  0.11  209H :  0.11  302H :  0.10  405H :  0.10   83H :  0.10
  314H :  0.10  318H :  0.10  506H :  0.10  537H :  0.10  691O :  0.10  290H :  0.10  242H :  0.10  647H :  0.10  366H :  0.09  103O :  0.09  458H :  0.09  207H :  0.09
  240H :  0.09   54H :  0.09  144H :  0.09  483H :  0.09  296H :  0.09  333H :  0.09   75H :  0.09  749H :  0.09  671H :  0.09  453H :  0.09  444H :  0.09  375H :  0.09
  560H :  0.09  188H :  0.09  120H :  0.09  524H :  0.08  198H :  0.08  577O :  0.08  504H :  0.08  155H :  0.08  371H :  0.08  161H :  0.08  587H :  0.08  660H :  0.08
  546H :  0.08  225H :  0.08  515H :  0.08  291H :  0.08   35H :  0.08  667O :  0.08  464H :  0.08  510H :  0.08  573H :  0.08  693H :  0.07  213H :  0.07   19O :  0.07
  447H :  0.07  683H :  0.07  612H :  0.07  389H :  0.07  635H :  0.07
    8 LP   *******   0.00  58.09521  50.42765  -8.44190   85O : 18.01  199O : 13.52  421O : 12.59  364O : 10.38  415O :  9.42   25O :  9.35  223O :  9.07   31O :  8.90  358O :  8.85  136O :  8.44   91O :  8.41  184O :  8.08
  100O :  8.05   97O :  7.67  403O :  7.27  235O :  7.22  115O :  7.18  481O :  7.08   61O :  6.72   70O :  6.54  496O :  6.54  388O :  6.53  547O :  6.49   40O :  6.43
  649O :  6.39  745O :  6.34  694O :  6.24  724O :  6.09  376O :  6.08  676O :  6.03   13O :  6.01  718O :  6.00  124O :  5.81  391O :  5.68  325O :  5.52   64O :  5.45
  736O :  5.29  658O :  5.16  502O :  5.16  412O :  4.90   58O :  4.85  619O :  4.83   43O :  4.75  451O :  4.72  409O :  4.68  433O :  4.61   37O :  4.56  586O :  4.54
  121O :  4.53  469O :  4.49  334O :  4.47  241O :  4.46  112O :  4.44  652O :  4.38  400O :  4.36  142O :  4.35  499O :  4.34    4O :  4.23   46O :  4.22  274O :  4.22
    7O :  4.15  232O :  4.14   16O :  4.13  154O :  4.11  436O :  4.10  304O :  4.00  397O :  3.90  187O :  3.88  370O :  3.86  607O :  3.82  478O :  3.76  190O :  3.76
  169O :  3.73  427O :  3.70  475O :  3.63   34O :  3.63  712O :  3.62  559O :  3.61  226O :  3.51  628O :  3.48  256O :  3.45  439O :  3.29  550O :  3.28  640O :  3.26
    1O :  3.26  262O :  3.25  700O :  3.21  394O :  3.20  721O :  3.20   79O :  3.18  286O :  3.16   22O :  3.15  319O :  3.08  709O :  3.06  265O :  3.02  238O :  2.99
  289O :  2.97  298O :  2.97  181O :  2.95  423H :  2.90  574O :  2.87  277O :  2.86   55O :  2.83  616O :  2.83  382O :  2.79  589O :  2.79   28O :  2.79   76O :  2.75
  229O :  2.74  739O :  2.68  484O :  2.63  730O :  2.62  685O :  2.60  631O :  2.56  109O :  2.55  664O :  2.55  148O :  2.51  682O :  2.49  133O :  2.43  454O :  2.43
  472O :  2.42  508O :  2.40  715O :  2.37  727O :  2.36  583O :  2.36  610O :  2.34  283O :  2.32  688O :  2.31  193O :  2.30  355O :  2.29  556O :  2.27  742O :  2.24
  118O :  2.24  493O :  2.24  361O :  2.23  541O :  2.22   10O :  2.22  595O :  2.17  634O :  2.15  622O :  2.14  544O :  2.11  220O :  2.11  307O :  2.10  349O :  2.08
  613O :  2.06  445O :  2.05  340O :  2.04  457O :  2.04  196O :  2.03   88O :  2.02  580O :  1.97  601O :  1.97  163O :  1.95  604O :  1.94  637O :  1.93  505O :  1.87
  562O :  1.86  127O :  1.86  214O :  1.82  172O :  1.81  538O :  1.81  511O :  1.81  352O :  1.80  523O :  1.79  139O :  1.77  442O :  1.72  568O :  1.70  322O :  1.67
  490O :  1.67  532O :  1.63  145O :  1.63  643O :  1.61  310O :  1.60  328O :  1.60  487O :  1.59   52O :  1.57  673O :  1.57   94O :  1.56  565O :  1.56  175O :  1.55
  661O :  1.54  526O :  1.52  529O :  1.51   82O :  1.48  166O :  1.47  253O :  1.47  406O :  1.45  200H :  1.42  385O :  1.42  424O :  1.42  208O :  1.40  514O :  1.39
  733O :  1.36  598O :  1.35  646O :  1.30  751O :  1.25   41H :  1.21  430O :  1.21   67O :  1.19  259O :  1.18  151O :  1.17  501H :  1.14  463O :  1.12  655O :  1.10
  211O :  1.10  271O :  1.07  301O :  1.06  331O :  1.04  592O :  1.03  438H :  1.03  677H :  1.01  292O :  1.00  244O :  1.00   73O :  0.99  228H :  0.98  520O :  0.98
  217O :  0.97  316O :  0.97  625O :  0.87  713H :  0.83  754O :  0.79   30H :  0.77  278H :  0.74  114H :  0.73  373O :  0.73  295O :  0.72  367O :  0.72  313O :  0.72
  571O :  0.72  416H :  0.71  202O :  0.71  106O :  0.70  280O :  0.69  360H :  0.69  134H :  0.66   49O :  0.65  205O :  0.63  466O :  0.63  160O :  0.61  503H :  0.61
  156H :  0.60  497H :  0.59  748O :  0.59  201H :  0.58  670O :  0.58  679O :  0.57  130O :  0.56  740H :  0.55   59H :  0.54  717H :  0.54  326H :  0.52  703O :  0.52
   65H :  0.51  448O :  0.51  656H :  0.50   48H :  0.50   17H :  0.48  396H :  0.46  413H :  0.45  356H :  0.45  411H :  0.45   36H :  0.44  426H :  0.44  695H :  0.44
  476H :  0.44  335H :  0.43  696H :  0.43  308H :  0.43  509H :  0.43    2H :  0.42  250O :  0.42  474H :  0.42  440H :  0.42  336H :  0.42  746H :  0.42  268O :  0.42
  393H :  0.41  337O :  0.41  563H :  0.40  402H :  0.40  517O :  0.40  399H :  0.40  620H :  0.40  417H :  0.39  674H :  0.39  697O :  0.39   45H :  0.37  531H :  0.37
  590H :  0.36  651H :  0.36   11H :  0.36  404H :  0.36  285H :  0.36  535O :  0.35  706O :  0.35   92H :  0.35  528H :  0.34  459H :  0.34  455H :  0.33  143H :  0.33
  498H :  0.33  551H :  0.33  561H :  0.33  236H :  0.32  596H :  0.32   93H :  0.32  636H :  0.32  482H :  0.31  359H :  0.31  654H :  0.31  460O :  0.30   71H :  0.30
  441H :  0.30  588H :  0.30   57H :  0.30  708H :  0.29   62H :  0.28  343O :  0.28  456H :  0.27   14H :  0.27  353H :  0.27   89H :  0.27  323H :  0.27   39H :  0.27
  488H :  0.27  245H :  0.27  312H :  0.26  247O :  0.26  711H :  0.26  194H :  0.26  378H :  0.26  650H :  0.26  219H :  0.25  379O :  0.25  243H :  0.25  189H :  0.24
  150H :  0.24  173H :  0.24  363H :  0.24  414H :  0.23  282H :  0.23  530H :  0.23  566H :  0.22  553O :  0.22    6H :  0.22    3H :  0.22  192H :  0.22  665H :  0.22
  522H :  0.22  645H :  0.22  584H :  0.21  684H :  0.21  752H :  0.21    9H :  0.21  621H :  0.21  140H :  0.21  157O :  0.21  468H :  0.21  418O :  0.20  122H :  0.20
  167H :  0.20  191H :  0.20   96H :  0.20  237H :  0.20  623H :  0.20   26H :  0.19  329H :  0.19  723H :  0.19  633H :  0.19  726H :  0.19   44H :  0.19  377H :  0.18
  470H :  0.18  158H :  0.18  581H :  0.18  599H :  0.18  222H :  0.18  659H :  0.18  485H :  0.18  165H :  0.18  491H :  0.17  299H :  0.17  164H :  0.17    5H :  0.17
  533H :  0.17  332H :  0.17  662H :  0.17  720H :  0.16  512H :  0.16    8H :  0.16  297H :  0.16  632H :  0.16  303H :  0.16  227H :  0.15  288H :  0.15  452H :  0.15
  218H :  0.14  626H :  0.14  450H :  0.14  728H :  0.14  342H :  0.14   56H :  0.14  689H :  0.14  257H :  0.14  407H :  0.13  500H :  0.13  719H :  0.13   32H :  0.13
  123H :  0.13  321H :  0.13  432H :  0.13  518H :  0.13  428H :  0.12  368H :  0.12  615H :  0.12   77H :  0.12   53H :  0.12  300H :  0.12  294H :  0.12  345H :  0.12
   68H :  0.12  477H :  0.12  111H :  0.12  293H :  0.12  365H :  0.12  146H :  0.11   95H :  0.11  446H :  0.11  494H :  0.11  197H :  0.11  390H :  0.11  117H :  0.11
  710H :  0.11  489H :  0.11  618H :  0.11  264H :  0.11  383H :  0.11  159H :  0.11  686H :  0.10  209H :  0.10  302H :  0.10  405H :  0.10   83H :  0.10  314H :  0.10
  318H :  0.10  506H :  0.10  537H :  0.10  691O :  0.10  242H :  0.10  647H :  0.09  366H :  0.09  103O :  0.09  458H :  0.09  207H :  0.09  240H :  0.09  290H :  0.09
   54H :  0.09  144H :  0.09  483H :  0.09  296H :  0.09  333H :  0.09   75H :  0.09  749H :  0.09  671H :  0.09  453H :  0.09  444H :  0.09  375H :  0.09  560H :  0.09
  188H :  0.08  120H :  0.08  524H :  0.08  198H :  0.08  577O :  0.08  504H :  0.08  155H :  0.08  371H :  0.08  161H :  0.08  587H :  0.08  660H :  0.08  546H :  0.08
  225H :  0.08  291H :  0.08  515H :  0.08   35H :  0.08  667O :  0.08  464H :  0.08  510H :  0.08  573H :  0.08  693H :  0.07  213H :  0.07   19O :  0.07  447H :  0.07
  683H :  0.07  612H :  0.07
    9 LP   *******   0.00  50.95209 -11.06129  19.90962   85O : 17.48  199O : 13.07   25O : 11.41  364O : 10.07  421O :  9.95  415O :  9.14  223O :  8.80   31O :  8.64  358O :  8.56  136O :  8.18   91O :  8.16  184O :  7.84
  100O :  7.58   97O :  7.44  403O :  7.05  235O :  7.00  115O :  6.97  481O :  6.87   61O :  6.52   70O :  6.34  388O :  6.34  496O :  6.33  547O :  6.30   40O :  6.24
  649O :  6.20  745O :  6.16  694O :  6.05  376O :  5.93  724O :  5.91  676O :  5.85   13O :  5.83  718O :  5.82  124O :  5.64  391O :  5.51  325O :  5.36   64O :  5.29
  736O :  5.13  658O :  5.01  502O :  5.00  412O :  4.75   58O :  4.71  619O :  4.68  451O :  4.58   43O :  4.55  409O :  4.54  433O :  4.47   37O :  4.42  586O :  4.40
  121O :  4.38  469O :  4.36  334O :  4.34  241O :  4.32  112O :  4.30  652O :  4.25  400O :  4.23  142O :  4.22  499O :  4.21    4O :  4.10   46O :  4.09  274O :  4.09
    7O :  4.02  232O :  4.01   16O :  4.01  154O :  3.99  436O :  3.98  304O :  3.88  397O :  3.78  187O :  3.77  370O :  3.74  607O :  3.70  478O :  3.65  190O :  3.64
  169O :  3.62  475O :  3.52   34O :  3.52  712O :  3.51  559O :  3.50  427O :  3.49  226O :  3.40  628O :  3.37  256O :  3.35  439O :  3.20  550O :  3.18  640O :  3.16
    1O :  3.16  262O :  3.15  700O :  3.12  721O :  3.10  394O :  3.10   79O :  3.08  286O :  3.06   22O :  3.06  319O :  2.99  709O :  2.98  265O :  2.93  238O :  2.90
  298O :  2.88  289O :  2.87  181O :  2.86  574O :  2.79  277O :  2.78   55O :  2.74  616O :  2.74  382O :  2.71  589O :  2.71   28O :  2.71   76O :  2.67  229O :  2.66
  739O :  2.60  484O :  2.55  730O :  2.54  685O :  2.52  631O :  2.49  664O :  2.47  109O :  2.47  148O :  2.43  682O :  2.41  133O :  2.36  454O :  2.36  472O :  2.35
  508O :  2.32  715O :  2.30  583O :  2.29  727O :  2.29  610O :  2.27  283O :  2.25  688O :  2.24  193O :  2.24  355O :  2.22  556O :  2.20  742O :  2.18  493O :  2.17
  118O :  2.17  361O :  2.16  541O :  2.15   10O :  2.15  595O :  2.10  634O :  2.08  622O :  2.08  220O :  2.05  544O :  2.05  307O :  2.04  349O :  2.01  613O :  1.99
  445O :  1.99  340O :  1.98  457O :  1.98  196O :  1.97   88O :  1.96  601O :  1.92  580O :  1.91  163O :  1.89  604O :  1.89  637O :  1.87  505O :  1.81  562O :  1.81
  127O :  1.80  214O :  1.76  172O :  1.76  538O :  1.76  511O :  1.75  352O :  1.75  523O :  1.74  139O :  1.72  424O :  1.70  442O :  1.67  568O :  1.64  322O :  1.62
  490O :  1.62  145O :  1.58  532O :  1.58  643O :  1.56  310O :  1.55  328O :  1.55  487O :  1.55  673O :  1.52   52O :  1.52   94O :  1.52  565O :  1.51  175O :  1.50
  423H :  1.50  661O :  1.49  526O :  1.47  529O :  1.46   82O :  1.45  253O :  1.44  166O :  1.43  406O :  1.40  385O :  1.38  200H :  1.37  208O :  1.36  514O :  1.35
  733O :  1.32  598O :  1.31  646O :  1.26  751O :  1.21  430O :  1.18   41H :  1.17   67O :  1.15  259O :  1.14  151O :  1.14  501H :  1.11  463O :  1.08  655O :  1.07
  211O :  1.06  271O :  1.04  301O :  1.03  331O :  1.01  592O :  1.00  438H :  0.99  677H :  0.98  292O :  0.97  244O :  0.97   73O :  0.96  228H :  0.95  520O :  0.95
  217O :  0.95  316O :  0.94  625O :  0.84  713H :  0.80  754O :  0.77   30H :  0.74  278H :  0.72  114H :  0.71  373O :  0.71  295O :  0.70  367O :  0.70  313O :  0.70
  571O :  0.70  416H :  0.69  202O :  0.69  106O :  0.68  280O :  0.67  360H :  0.65  134H :  0.64   49O :  0.63  205O :  0.61  466O :  0.61  160O :  0.60  503H :  0.59
  156H :  0.58  497H :  0.58  748O :  0.57  201H :  0.56  670O :  0.56  679O :  0.55  130O :  0.55  740H :  0.54   59H :  0.53  717H :  0.52  326H :  0.51  703O :  0.50
   65H :  0.50  448O :  0.49  656H :  0.49   48H :  0.48   17H :  0.46  396H :  0.45  413H :  0.44  356H :  0.44  411H :  0.44  426H :  0.44   36H :  0.43  695H :  0.42
  476H :  0.42  335H :  0.42  696H :  0.42  308H :  0.41  509H :  0.41    2H :  0.41  474H :  0.41  440H :  0.41  336H :  0.41  746H :  0.41  268O :  0.41  393H :  0.40
  250O :  0.40  337O :  0.39  563H :  0.39  402H :  0.39  517O :  0.39  399H :  0.38  417H :  0.38  620H :  0.38  674H :  0.38  697O :  0.37  531H :  0.36  590H :  0.35
   45H :  0.35  651H :  0.35   11H :  0.35  404H :  0.35  285H :  0.34  535O :  0.34  706O :  0.34   92H :  0.34  528H :  0.33  459H :  0.33  455H :  0.32  143H :  0.32
  498H :  0.32  551H :  0.32  561H :  0.32  236H :  0.31  596H :  0.31   93H :  0.31  636H :  0.31  482H :  0.30  654H :  0.30  460O :  0.30   71H :  0.29  441H :  0.29
  588H :  0.29   57H :  0.29  359H :  0.29  708H :  0.28   62H :  0.27  343O :  0.27  456H :  0.27  353H :  0.27   14H :  0.27   89H :  0.27  323H :  0.27   39H :  0.26
[...]
   369   1 h    0.886 --   367 o    0.825
   370   8 o    1.843 --   372 h    0.830   371 h    0.823
   371   1 h    0.885 --   370 o    0.823
   372   1 h    0.891 --   370 o    0.830
   373   8 o    1.841 --   374 h    0.869   375 h    0.848
   374   1 h    0.897 --   373 o    0.869
   375   1 h    0.891 --   373 o    0.848
   376   8 o    1.855 --   377 h    0.817   378 h    0.803
   377   1 h    0.874 --   376 o    0.817
   378   1 h    0.874 --   376 o    0.803
   379   8 o    1.829 --   381 h    0.883   380 h    0.842
   380   1 h    0.896 --   379 o    0.842
   381   1 h    0.903 --   379 o    0.883
   382   8 o    1.857 --   384 h    0.839   383 h    0.832
   383   1 h    0.890 --   382 o    0.832
   384   1 h    0.892 --   382 o    0.839
   385   8 o    1.854 --   386 h    0.913   387 h    0.782
   386   1 h    0.920 --   385 o    0.913
   387   1 h    0.874 --   385 o    0.782
   388   8 o    1.806 --   389 h    0.873   390 h    0.842
   389   1 h    0.899 --   388 o    0.873
   390   1 h    0.895 --   388 o    0.842
   391   8 o    1.842 --   393 h    0.863   392 h    0.825
   392   1 h    0.882 --   391 o    0.825
   393   1 h    0.898 --   391 o    0.863
   394   8 o    1.866 --   396 h    0.822   395 h    0.806
   395   1 h    0.877 --   394 o    0.806
   396   1 h    0.885 --   394 o    0.822
   397   8 o    1.859 --   399 h    0.833   398 h    0.830
   398   1 h    0.882 --   397 o    0.830
   399   1 h    0.888 --   397 o    0.833
   400   8 o    1.800 --   402 h    0.841   401 h    0.823
   401   1 h    0.889 --   400 o    0.823
   402   1 h    0.894 --   400 o    0.841
   403   8 o    1.862 --   404 h    0.836   405 h    0.802
   404   1 h    0.887 --   403 o    0.836
   405   1 h    0.878 --   403 o    0.802
   406   8 o    1.869 --   408 h    0.859   407 h    0.792
   407   1 h    0.873 --   406 o    0.792
   408   1 h    0.894 --   406 o    0.859
   409   8 o    1.817 --   410 h    0.848   411 h    0.840
   410   1 h    0.893 --   409 o    0.848
   411   1 h    0.887 --   409 o    0.840
   412   8 o    1.869 --   414 h    0.844   413 h    0.830
   413   1 h    0.887 --   412 o    0.830
   414   1 h    0.882 --   412 o    0.844
   415   8 o    1.829 --   417 h    0.873   416 h    0.859
   416   1 h    0.892 --   415 o    0.859
   417   1 h    0.900 --   415 o    0.873
   418   8 o    1.867 --   419 h    0.859   420 h    0.847
   419   1 h    0.891 --   418 o    0.859
   420   1 h    0.893 --   418 o    0.847
   421   8 o    1.849 --   422 h    0.861   423 h    0.813
   422   1 h    0.894 --   421 o    0.861
   423   1 h    0.887 --   421 o    0.813
   424   8 o    1.861 --   426 h    0.910   425 h    0.819
   425   1 h    0.886 --   424 o    0.819
   426   1 h    0.913 --   424 o    0.910
   427   8 o    1.863 --   428 h    0.799   429 h    0.787
   428   1 h    0.875 --   427 o    0.799
   429   1 h    0.874 --   427 o    0.787
   430   8 o    1.875 --   431 h    0.857   432 h    0.789
   431   1 h    0.887 --   430 o    0.857
   432   1 h    0.864 --   430 o    0.789
   433   8 o    1.826 --   435 h    0.871   434 h    0.834
   434   1 h    0.892 --   433 o    0.834
   435   1 h    0.900 --   433 o    0.871
   436   8 o    1.864 --   438 h    0.812   437 h    0.797
   437   1 h    0.877 --   436 o    0.797
   438   1 h    0.874 --   436 o    0.812
   439   8 o    1.824 --   441 h    0.836   440 h    0.808
   440   1 h    0.879 --   439 o    0.808
   441   1 h    0.897 --   439 o    0.836
   442   8 o    1.851 --   444 h    0.857   443 h    0.853
   443   1 h    0.895 --   442 o    0.853
   444   1 h    0.893 --   442 o    0.857
   445   8 o    1.866 --   447 h    0.878   446 h    0.836
   446   1 h    0.887 --   445 o    0.836
   447   1 h    0.899 --   445 o    0.878
   448   8 o    1.841 --   450 h    0.913   449 h    0.801
   449   1 h    0.880 --   448 o    0.801
   450   1 h    0.921 --   448 o    0.913
   451   8 o    1.846 --   453 h    0.808   452 h    0.804
   452   1 h    0.875 --   451 o    0.804
   453   1 h    0.878 --   451 o    0.808
   454   8 o    1.870 --   456 h    0.850   455 h    0.804
   455   1 h    0.880 --   454 o    0.804
   456   1 h    0.896 --   454 o    0.850
   457   8 o    1.850 --   459 h    0.814   458 h    0.794
   458   1 h    0.887 --   457 o    0.794
   459   1 h    0.885 --   457 o    0.814
   460   8 o    1.867 --   461 h    0.840   462 h    0.822
   461   1 h    0.890 --   460 o    0.840
   462   1 h    0.890 --   460 o    0.822
   463   8 o    1.845 --   465 h    0.870   464 h    0.804
   464   1 h    0.884 --   463 o    0.804
   465   1 h    0.893 --   463 o    0.870
   466   8 o    1.860 --   468 h    0.825   467 h    0.805
   467   1 h    0.875 --   466 o    0.805
   468   1 h    0.889 --   466 o    0.825
   469   8 o    1.847 --   470 h    0.862   471 h    0.823
   470   1 h    0.893 --   469 o    0.862
   471   1 h    0.878 --   469 o    0.823
   472   8 o    1.855 --   473 h    0.854   474 h    0.846
   473   1 h    0.898 --   472 o    0.854
   474   1 h    0.887 --   472 o    0.846
   475   8 o    1.847 --   477 h    0.870   476 h    0.812
   476   1 h    0.885 --   475 o    0.812
   477   1 h    0.894 --   475 o    0.870
   478   8 o    1.860 --   480 h    0.868   479 h    0.850
   479   1 h    0.889 --   478 o    0.850
   480   1 h    0.892 --   478 o    0.868
   481   8 o    1.830 --   482 h    0.836   483 h    0.801
   482   1 h    0.894 --   481 o    0.836
   483   1 h    0.879 --   481 o    0.801
   484   8 o    1.876 --   485 h    0.828   486 h    0.816
   485   1 h    0.884 --   484 o    0.828
   486   1 h    0.884 --   484 o    0.816
   487   8 o    1.823 --   489 h    0.880   488 h    0.873
   488   1 h    0.894 --   487 o    0.873
   489   1 h    0.895 --   487 o    0.880
   490   8 o    1.865 --   492 h    0.860   491 h    0.815
   491   1 h    0.874 --   490 o    0.815
   492   1 h    0.888 --   490 o    0.860
   493   8 o    1.877 --   494 h    0.825   495 h    0.821
   494   1 h    0.886 --   493 o    0.825
   495   1 h    0.878 --   493 o    0.821
   496   8 o    1.895 --   497 h    0.813   498 h    0.800
   497   1 h    0.874 --   496 o    0.813
   498   1 h    0.875 --   496 o    0.800
   499   8 o    1.864 --   500 h    0.837   501 h    0.820
   500   1 h    0.887 --   499 o    0.837
   501   1 h    0.888 --   499 o    0.820
   502   8 o    1.830 --   504 h    0.847   503 h    0.845
   503   1 h    0.893 --   502 o    0.845
   504   1 h    0.894 --   502 o    0.847
   505   8 o    1.830 --   506 h    0.857   507 h    0.855
   506   1 h    0.895 --   505 o    0.857
   507   1 h    0.897 --   505 o    0.855
   508   8 o    1.827 --   509 h    0.887   510 h    0.853
   509   1 h    0.904 --   508 o    0.887
   510   1 h    0.891 --   508 o    0.853
   511   8 o    1.851 --   512 h    0.841   513 h    0.826
   512   1 h    0.884 --   511 o    0.841
   513   1 h    0.883 --   511 o    0.826
   514   8 o    1.832 --   515 h    0.873   516 h    0.852
   515   1 h    0.896 --   514 o    0.873
   516   1 h    0.893 --   514 o    0.852
   517   8 o    1.806 --   518 h    0.857   519 h    0.851
   518   1 h    0.900 --   517 o    0.857
   519   1 h    0.895 --   517 o    0.851
   520   8 o    1.847 --   522 h    0.889   521 h    0.803
   521   1 h    0.882 --   520 o    0.803
   522   1 h    0.905 --   520 o    0.889
   523   8 o    1.829 --   524 h    0.837   525 h    0.811
   524   1 h    0.890 --   523 o    0.837
   525   1 h    0.887 --   523 o    0.811
   526   8 o    1.849 --   528 h    0.854   527 h    0.820
   527   1 h    0.887 --   526 o    0.820
   528   1 h    0.894 --   526 o    0.854
   529   8 o    1.874 --   530 h    0.802   531 h    0.799
   530   1 h    0.878 --   529 o    0.802
   531   1 h    0.881 --   529 o    0.799
   532   8 o    1.838 --   533 h    0.832   534 h    0.830
   533   1 h    0.892 --   532 o    0.832
   534   1 h    0.884 --   532 o    0.830
   535   8 o    1.819 --   536 h    0.890   537 h    0.779
   536   1 h    0.906 --   535 o    0.890
   537   1 h    0.877 --   535 o    0.779
   538   8 o    1.856 --   539 h    0.867   540 h    0.804
   539   1 h    0.895 --   538 o    0.867
   540   1 h    0.877 --   538 o    0.804
   541   8 o    1.840 --   542 h    0.853   543 h    0.842
   542   1 h    0.894 --   541 o    0.853
   543   1 h    0.897 --   541 o    0.842
   544   8 o    1.845 --   545 h    0.910   546 h    0.777
   545   1 h    0.918 --   544 o    0.910
   546   1 h    0.869 --   544 o    0.777
   547   8 o    1.880 --   549 h    0.873   548 h    0.861
   548   1 h    0.888 --   547 o    0.861
   549   1 h    0.889 --   547 o    0.873
   550   8 o    1.851 --   551 h    0.852   552 h    0.826
   551   1 h    0.895 --   550 o    0.852
   552   1 h    0.888 --   550 o    0.826
   553   8 o    1.839 --   554 h    0.868   555 h    0.828
   554   1 h    0.902 --   553 o    0.868
   555   1 h    0.886 --   553 o    0.828
   556   8 o    1.860 --   557 h    0.834   558 h    0.826
   557   1 h    0.886 --   556 o    0.834
   558   1 h    0.889 --   556 o    0.826
   559   8 o    1.842 --   561 h    0.879   560 h    0.813
   560   1 h    0.884 --   559 o    0.813
   561   1 h    0.902 --   559 o    0.879
   562   8 o    1.835 --   564 h    0.880   563 h    0.849
   563   1 h    0.891 --   562 o    0.849
   564   1 h    0.902 --   562 o    0.880
   565   8 o    1.826 --   566 h    0.881   567 h    0.821
   566   1 h    0.901 --   565 o    0.881
   567   1 h    0.884 --   565 o    0.821
   568   8 o    1.834 --   570 h    0.867   569 h    0.864
   569   1 h    0.893 --   568 o    0.864
   570   1 h    0.888 --   568 o    0.867
   571   8 o    1.842 --   572 h    0.856   573 h    0.833
   572   1 h    0.893 --   571 o    0.856
   573   1 h    0.879 --   571 o    0.833
   574   8 o    1.834 --   576 h    0.901   575 h    0.814
   575   1 h    0.875 --   574 o    0.814
   576   1 h    0.912 --   574 o    0.901
   577   8 o    1.838 --   579 h    0.821   578 h    0.810
   578   1 h    0.880 --   577 o    0.810
   579   1 h    0.881 --   577 o    0.821
   580   8 o    1.855 --   582 h    0.880   581 h    0.811
   581   1 h    0.883 --   580 o    0.811
   582   1 h    0.904 --   580 o    0.880
   583   8 o    1.816 --   584 h    0.891   585 h    0.811
   584   1 h    0.909 --   583 o    0.891
   585   1 h    0.879 --   583 o    0.811
   586   8 o    1.869 --   587 h    0.909   588 h    0.824
   587   1 h    0.915 --   586 o    0.909
   588   1 h    0.876 --   586 o    0.824
   589   8 o    1.823 --   591 h    0.890   590 h    0.840
   590   1 h    0.888 --   589 o    0.840
   591   1 h    0.906 --   589 o    0.890
   592   8 o    1.853 --   594 h    0.886   593 h    0.828
   593   1 h    0.880 --   592 o    0.828
   594   1 h    0.904 --   592 o    0.886
   595   8 o    1.835 --   596 h    0.847   597 h    0.780
   596   1 h    0.897 --   595 o    0.847
   597   1 h    0.876 --   595 o    0.780
   598   8 o    1.863 --   600 h    0.831   599 h    0.791
   599   1 h    0.876 --   598 o    0.791
   600   1 h    0.877 --   598 o    0.831
   601   8 o    1.821 --   603 h    0.892   602 h    0.822
   602   1 h    0.882 --   601 o    0.822
   603   1 h    0.908 --   601 o    0.892
   604   8 o    1.846 --   606 h    0.882   605 h    0.793
   605   1 h    0.878 --   604 o    0.793
   606   1 h    0.903 --   604 o    0.882
   607   8 o    1.855 --   608 h    0.851   609 h    0.837
   608   1 h    0.894 --   607 o    0.851
   609   1 h    0.886 --   607 o    0.837
   610   8 o    1.855 --   611 h    0.874   612 h    0.842
   611   1 h    0.899 --   610 o    0.874
   612   1 h    0.892 --   610 o    0.842
   613   8 o    1.827 --   614 h    0.912   615 h    0.821
   614   1 h    0.918 --   613 o    0.912
   615   1 h    0.879 --   613 o    0.821
   616   8 o    1.862 --   618 h    0.868   617 h    0.838
   617   1 h    0.893 --   616 o    0.838
   618   1 h    0.895 --   616 o    0.868
   619   8 o    1.876 --   621 h    0.822   620 h    0.802
   620   1 h    0.873 --   619 o    0.802
   621   1 h    0.883 --   619 o    0.822
   622   8 o    1.836 --   624 h    0.858   623 h    0.844
   623   1 h    0.890 --   622 o    0.844
   624   1 h    0.894 --   622 o    0.858
   625   8 o    1.833 --   627 h    0.877   626 h    0.841
   626   1 h    0.884 --   625 o    0.841
   627   1 h    0.902 --   625 o    0.877
   628   8 o    1.855 --   630 h    0.819   629 h    0.794
   629   1 h    0.873 --   628 o    0.794
   630   1 h    0.888 --   628 o    0.819
   631   8 o    1.859 --   633 h    0.837   632 h    0.800
   632   1 h    0.874 --   631 o    0.800
   633   1 h    0.885 --   631 o    0.837
   634   8 o    1.831 --   635 h    0.914   636 h    0.796
   635   1 h    0.921 --   634 o    0.914
   636   1 h    0.879 --   634 o    0.796
   637   8 o    1.802 --   639 h    0.855   638 h    0.853
   638   1 h    0.895 --   637 o    0.853
   639   1 h    0.900 --   637 o    0.855
   640   8 o    1.845 --   642 h    0.842   641 h    0.822
   641   1 h    0.884 --   640 o    0.822
   642   1 h    0.891 --   640 o    0.842
   643   8 o    1.831 --   645 h    0.875   644 h    0.809
   644   1 h    0.877 --   643 o    0.809
   645   1 h    0.904 --   643 o    0.875
   646   8 o    1.849 --   647 h    0.854   648 h    0.833
   647   1 h    0.892 --   646 o    0.854
   648   1 h    0.891 --   646 o    0.833
   649   8 o    1.838 --   651 h    0.844   650 h    0.788
   650   1 h    0.880 --   649 o    0.788
   651   1 h    0.893 --   649 o    0.844
   652   8 o    1.855 --   653 h    0.861   654 h    0.846
   653   1 h    0.898 --   652 o    0.861
   654   1 h    0.894 --   652 o    0.846
   655   8 o    1.858 --   657 h    0.862   656 h    0.798
   656   1 h    0.884 --   655 o    0.798
   657   1 h    0.897 --   655 o    0.862
   658   8 o    1.845 --   659 h    0.861   660 h    0.823
   659   1 h    0.896 --   658 o    0.861
   660   1 h    0.878 --   658 o    0.823
   661   8 o    1.823 --   663 h    0.886   662 h    0.859
   662   1 h    0.891 --   661 o    0.859
   663   1 h    0.906 --   661 o    0.886
   664   8 o    1.843 --   666 h    0.819   665 h    0.798
   665   1 h    0.875 --   664 o    0.798
   666   1 h    0.877 --   664 o    0.819
   667   8 o    1.854 --   668 h    0.882   669 h    0.863
   668   1 h    0.904 --   667 o    0.882
   669   1 h    0.892 --   667 o    0.863
   670   8 o    1.826 --   672 h    0.845   671 h    0.834
   671   1 h    0.883 --   670 o    0.834
   672   1 h    0.896 --   670 o    0.845
   673   8 o    1.844 --   675 h    0.820   674 h    0.781
   674   1 h    0.876 --   673 o    0.781
   675   1 h    0.882 --   673 o    0.820
   676   8 o    1.899 --   677 h    0.804   678 h    0.795
   677   1 h    0.879 --   676 o    0.804
   678   1 h    0.876 --   676 o    0.795
   679   8 o    1.857 --   681 h    0.806   680 h    0.801
   680   1 h    0.879 --   679 o    0.801
   681   1 h    0.882 --   679 o    0.806
   682   8 o    1.849 --   683 h    0.875   684 h    0.845
   683   1 h    0.898 --   682 o    0.875
   684   1 h    0.890 --   682 o    0.845
   685   8 o    1.869 --   686 h    0.830   687 h    0.814
   686   1 h    0.884 --   685 o    0.830
   687   1 h    0.886 --   685 o    0.814
   688   8 o    1.865 --   689 h    0.825   690 h    0.798
   689   1 h    0.884 --   688 o    0.825
   690   1 h    0.878 --   688 o    0.798
   691   8 o    1.866 --   692 h    0.853   693 h    0.845
   692   1 h    0.896 --   691 o    0.853
   693   1 h    0.890 --   691 o    0.845
   694   8 o    1.852 --   695 h    0.850   696 h    0.830
   695   1 h    0.892 --   694 o    0.850
   696   1 h    0.885 --   694 o    0.830
   697   8 o    1.880 --   699 h    0.821   698 h    0.817
   698   1 h    0.885 --   697 o    0.817
   699   1 h    0.878 --   697 o    0.821
   700   8 o    1.832 --   701 h    0.830   702 h    0.826
   701   1 h    0.890 --   700 o    0.830
   702   1 h    0.888 --   700 o    0.826
   703   8 o    1.843 --   705 h    0.873   704 h    0.822
   704   1 h    0.887 --   703 o    0.822
   705   1 h    0.900 --   703 o    0.873
   706   8 o    1.863 --   707 h    0.886   708 h    0.800
   707   1 h    0.900 --   706 o    0.886
   708   1 h    0.874 --   706 o    0.800
   709   8 o    1.825 --   711 h    0.873   710 h    0.842
   710   1 h    0.888 --   709 o    0.842
   711   1 h    0.899 --   709 o    0.873
   712   8 o    1.863 --   713 h    0.844   714 h    0.821
   713   1 h    0.890 --   712 o    0.844
   714   1 h    0.876 --   712 o    0.821
   715   8 o    1.849 --   716 h    0.824   717 h    0.812
   716   1 h    0.884 --   715 o    0.824
   717   1 h    0.878 --   715 o    0.812
   718   8 o    1.831 --   720 h    0.872   719 h    0.836
   719   1 h    0.893 --   718 o    0.836
   720   1 h    0.903 --   718 o    0.872
   721   8 o    1.829 --   722 h    0.886   723 h    0.785
   722   1 h    0.906 --   721 o    0.886
   723   1 h    0.877 --   721 o    0.785
   724   8 o    1.879 --   725 h    0.821   726 h    0.778
   725   1 h    0.888 --   724 o    0.821
   726   1 h    0.874 --   724 o    0.778
   727   8 o    1.856 --   729 h    0.851   728 h    0.799
   728   1 h    0.872 --   727 o    0.799
   729   1 h    0.892 --   727 o    0.851
   730   8 o    1.851 --   731 h    0.913   732 h    0.806
   731   1 h    0.920 --   730 o    0.913
   732   1 h    0.881 --   730 o    0.806
   733   8 o    1.849 --   735 h    0.888   734 h    0.789
   734   1 h    0.872 --   733 o    0.789
   735   1 h    0.905 --   733 o    0.888
   736   8 o    1.812 --   738 h    0.837   737 h    0.835
   737   1 h    0.893 --   736 o    0.835
   738   1 h    0.896 --   736 o    0.837
   739   8 o    1.855 --   740 h    0.815   741 h    0.813
   740   1 h    0.879 --   739 o    0.815
   741   1 h    0.889 --   739 o    0.813
   742   8 o    1.861 --   744 h    0.873   743 h    0.808
   743   1 h    0.878 --   742 o    0.808
   744   1 h    0.900 --   742 o    0.873
   745   8 o    1.876 --   746 h    0.821   747 h    0.798
   746   1 h    0.892 --   745 o    0.821
   747   1 h    0.880 --   745 o    0.798
   748   8 o    1.872 --   749 h    0.815   750 h    0.807
   749   1 h    0.870 --   748 o    0.815
   750   1 h    0.874 --   748 o    0.807
   751   8 o    1.809 --   753 h    0.891   752 h    0.858
   752   1 h    0.890 --   751 o    0.858
   753   1 h    0.899 --   751 o    0.891
   754   8 o    1.838 --   755 h    0.907   756 h    0.868
   755   1 h    0.913 --   754 o    0.907
   756   1 h    0.894 --   754 o    0.868
 ---------------------------------------------------------------------------

Topologies differ in total number of bonds
Writing topology from bond orders to xtbtopo.mol

molecular dipole:
                 x           y           z       tot (Debye)
 q only:       -1.626      -1.345       0.306
   full:       -2.525      -1.575       1.010       7.987
molecular quadrupole (traceless):
                xx          xy          yy          xz          yz          zz
 q only:       39.616      -0.490     -31.589      80.780       1.042      -8.026
  q+dip:       45.870       3.793     -35.279      83.848       5.036     -10.591
   full:       48.006       3.690     -36.586      82.563       5.462     -11.420


           -------------------------------------------------
          | TOTAL ENERGY            -1283.320575811885 Eh   |
          | GRADIENT NORM               0.066516122048 Eh/α |
          | HOMO-LUMO GAP               7.861700757989 eV   |
           -------------------------------------------------

------------------------------------------------------------------------
 * finished run on 2022/11/24 at 09:29:10.170     
------------------------------------------------------------------------
 total:
 * wall-time:     0 d,  0 h,  1 min,  0.094 sec
 *  cpu-time:     0 d,  0 h,  1 min, 15.028 sec
 * ratio c/w:     1.249 speedup
 SCF:
 * wall-time:     0 d,  0 h,  0 min, 59.073 sec
 *  cpu-time:     0 d,  0 h,  1 min, 13.305 sec
 * ratio c/w:     1.241 speedup

