756
 energy: -1283.315563449490 gnorm: 0.009721227915 xtb: 6.5.1 (579679a)
o           -2.57845605417858       -6.23501942593325       -5.85057110540113
h           -2.92856365569670       -5.65324176780894       -6.53568770993822
h           -3.31697154096125       -6.53313504827516       -5.29989751109126
o            1.86984323032139       -1.97532107843551       -2.47090554395646
h            1.15986801059081       -1.96670755693473       -3.13563840468479
h            2.53924856621580       -1.35732577277154       -2.77080016013309
o            3.17095202440860        1.44372764875544       -1.37217233179375
h            3.81483744667072        2.08037975768824       -1.74994080664583
h            3.69163109950136        0.86712232475070       -0.77742317437299
o            4.74672561931251        0.46157792207598        0.55439808086446
h            5.66337935606811        0.32325001690956        0.24830388486334
h            4.75784287488108        1.40316668041809        0.82981826661203
o            1.49308194517643        0.73239584465023       -3.37958117335217
h            0.64711980416190        0.50066041835032       -2.95040338857032
h            2.10000355536762        0.97245358907874       -2.66169146335598
o           -3.86984766896676       -7.17795742395024        0.03579491147882
h           -4.79323660629781       -7.44430406833930        0.15574179825085
h           -3.90218585316648       -6.19229912079685        0.07121243059336
o            4.10952764603009       -1.46843963506265        2.41158511355996
h            3.25210683107922       -1.24732414707683        2.78112924457485
h            4.36305612300832       -0.76146067155367        1.79126282311194
o           -1.65457585299352       -3.52287387875803        0.21832141954479
h           -1.08125577438445       -4.30738419757355        0.17545349822192
h           -2.55934372715169       -3.87509904877980        0.25201039171941
o            3.69142249142061       -3.92231178109936        1.52110312797647
h            2.81992581957575       -3.87921336649796        1.08369044255835
h            3.91675120351508       -2.99507228222598        1.76372027706736
o            2.69542238462681        1.17762396584372        2.33166562307488
h            3.56319941241668        1.24123869804156        2.78429606998094
h            2.63233187078002        1.93873691192943        1.73754332169562
o            2.07019874093330        2.80142601749198        4.57411758372666
h            1.37445174298243        2.73951106193645        3.89849819170898
h            2.36868270604083        1.88261316253675        4.75649812300625
o           -1.10569700601651        1.22323748881140        4.07284260593364
h           -0.60758061173050        1.57081900556422        3.31463016767845
h           -1.20366423252780        0.25424018091219        3.95868842222444
o           -0.07036868067150       -4.44110500206725       -6.71287708459920
h           -0.99817583979206       -4.20018617841896       -6.75833329698143
h            0.04113642808352       -4.96136497319903       -5.89429557604451
o            0.23746710866853        2.79993187693044        2.45741843280795
h            0.91124377625772        2.91650302071523        1.77462850385506
h           -0.34204304706632        3.58108801035718        2.39989488314499
o            5.02631818357318        3.22729254568143       -1.86723928226305
h            5.19534659789124        3.29122704544936       -0.91378173012178
h            4.81105890054416        4.12235500584016       -2.18701562229506
o           -2.94280079897555       -1.50990516351522       -6.21824036248967
h           -2.15144409879532       -1.25557169581151       -6.74337717576906
h           -2.72977478283956       -1.45879616135735       -5.26981961268182
o           -0.80897156524576        0.23295650178696       -2.18104290214903
h           -1.46259275670496        0.69874530347259       -2.71547633996629
h           -0.98291363160790        0.51021937376331       -1.23633572019663
o           -7.39988333586048        0.12427542747030       -4.09935030347424
h           -7.43422025497463        0.57574813398398       -4.95612614858523
h           -6.80190034243969       -0.63089122376792       -4.18438155038536
o           -6.03956448366685       -0.38334534673457       -1.51071798093991
h           -6.96781343144669       -0.63122508613654       -1.66831497681878
h           -6.07752102334553        0.42256729979557       -0.97802329846195
o           -3.12143077700308        3.04349270593387        1.42877532854254
h           -2.62595413267185        3.63338099000567        2.00905486830562
h           -3.14264722313442        2.15780258620546        1.81815857871685
o           -2.25269931050143        1.76246537728368       -3.94753482085946
h           -3.16697478427730        1.45547614426532       -3.78615062493200
h           -2.32151951541611        2.65896463190889       -4.31809387087982
o            2.69398457575990       -0.90477322475785       -5.03199863504609
h            2.05911514146134       -1.31374079891479       -5.64726808366290
h            2.19369278347551       -0.27823662148588       -4.46288119124719
o           -3.87738176226817       -1.85169084760567       -0.51486562853251
h           -4.75600365075187       -1.52573736374635       -0.77422571056950
h           -3.30708678127802       -1.08493411744297       -0.68379990375883
o           -3.38692211697107        0.61349499228194       -1.34529962778687
h           -4.19095423197566        0.85108536423871       -0.87193097850460
h           -2.88565636317711        1.45996595534876       -1.36878163880839
o           -3.29353639053548       -2.37365150857982        2.23237821348653
h           -3.48255344779913       -2.19325015361656        1.29488958456374
h           -2.87331312132259       -3.25204588248487        2.26740183703690
o           -5.40996624107920        1.93818642278053        0.05355355073123
h           -4.73654095785748        2.64066038470749        0.08972558877549
h           -6.23990781177956        2.44409006404443       -0.03983127290475
o           -0.94720110872125       -1.03666185672142       -7.93012817256625
h           -0.08715345681432       -1.39163994408778       -7.63444348889854
h           -0.80416942579139       -0.10905363438228       -8.12114379684435
o            4.29522504170190       -1.78260408751538       -0.80219230147516
h            4.00920966973705       -2.67800070624280       -1.08447270218568
h            3.53596910134325       -1.38363825863029       -0.34036584042208
o           -6.90572065260734       -3.27887885879523       -2.19714148035549
h           -7.79545459166039       -3.27387420275974       -2.55946124564080
h           -6.34463413716322       -2.75246321033463       -2.82519428418673
o            5.14215374832623        3.01696747549443        0.94568014276246
h            4.57631909452275        3.42719771233455        1.62490275184651
h            6.02254550384592        2.91804246897236        1.35005030534646
o           -7.60097117130400       -1.58231664169726       -6.58807104597793
h           -6.75069659299032       -1.15070099684141       -6.39694889470982
h           -7.62926931227866       -2.40553176952192       -6.08080072724138
o           -5.22992003608357       -1.52754951627861        3.87539691235202
h           -4.53268409657110       -1.96269316970731        3.34199958813899
h           -5.54443454170347       -0.80247133094886        3.31140100927793
o            3.33101150935844        3.63032043018928       -7.28359924594923
h            4.23014723203956        3.30728195635985       -7.44509296716626
h            2.80399950215341        2.84324366631232       -7.08542346553543
o            4.22047816943628       -4.49259892008965        4.02539412113587
h            3.95635859144069       -4.53864980321722        3.08232210923100
h            3.67316167581489       -3.74856071211949        4.37368757072196
o            6.23488382344585       -2.30065066665215        0.89882967210932
h            6.57235828243609       -1.47416453423140        1.26302007192095
h            5.52692272192818       -2.07267278250371        0.25637831561402
o           -6.31678080584751       -3.14381371652639        0.36067146473773
h           -6.97940049607194       -3.79096364898532        0.66725671819363
h           -6.54108582873708       -2.99682164526379       -0.57683471018317
o            2.21154315631976        3.10131742906879        0.44188616620291
h            1.44706002304606        3.60591860115320        0.11080655491973
h            2.50437969145109        2.51380784307628       -0.29554271648024
o           -1.69653396030069       -1.33619253893215        4.12506278478883
h           -2.15389879436764       -1.78671284413405        3.39438753797848
h           -0.90809168874970       -1.90022423130296        4.36558082137431
o           -2.32568127573023        2.97882611283349       -1.17486619649921
h           -2.59451497498865        3.11813980440818       -0.24934045736688
h           -2.76194950435441        3.66380181108341       -1.70613654080989
o            4.96758375062233       -0.43679213447546       -2.97543356284782
h            5.71081437596763        0.17038044919269       -2.79772216293560
h            4.78611785335805       -0.93183199644747       -2.14684936622171
o            5.66852515699096       -7.04140118571924       -1.52078530940627
h            5.59056815752333       -6.27446930007306       -0.89977411452176
h            6.44974540741138       -6.85137978514929       -2.05228612609511
o            3.88840621124497        1.56905196242791       -4.45268025249323
h            4.61283130113515        2.21122604514889       -4.53655243261184
h            4.21545825140192        0.81401932897762       -3.93660945117281
o           -5.52796316993193       -2.04625911115383       -4.01636503597337
h           -5.37557074217056       -2.84370945196906       -4.54662076587776
h           -4.62791562643532       -1.72879405480738       -3.76684161792373
o           -4.77267773210497        2.45315735220315       -6.97645704694482
h           -4.82998060358840        3.32303220449857       -7.38351947987886
h           -3.82774055227334        2.17786533204415       -7.06717119872882
o            7.58876689713669       -1.39483317539171       -1.73755869989441
h            7.55634834204405       -0.62489379692424       -1.14645629653511
h            8.07081747721319       -1.15069618844199       -2.55107185111879
o            6.78787704184087        1.51732566862720       -3.05097862033898
h            7.64903656194480        1.58767935109995       -2.59037877417248
h            6.23668870037831        2.24322773438000       -2.70496099124189
o            1.82956278885832       -4.20065014767597       -4.51539535657468
h            2.71890066404833       -3.81034873578691       -4.37419970657455
h            1.48359869955606       -4.46289582624569       -3.64462537326215
o           -8.71847626072544       -0.80485098052846       -1.83200492953197
h           -8.90674836975789       -1.62337771168781       -2.31387930782523
h           -8.87713751900551       -0.10024164690005       -2.49169450102816
o            0.84648358326596        5.32019877550739        4.69867137607119
h            1.71342816573293        5.34316165777729        5.14094964633793
h            1.04029786698422        5.39079910815761        3.74010918090345
o           -5.08633130850512        3.41677381940194       -4.38598306738112
h           -5.11937358163957        2.56657372778088       -3.89230976158271
h           -4.90020229737360        3.15573451112012       -5.30288903131334
o            3.24677721357339       -4.08997008064456       -1.49652354195718
h            3.55601795478311       -4.68650538809999       -2.20908477194783
h            2.53298331649747       -3.54857637047374       -1.88121566316655
o           -0.56318669404899        0.24890021760771       -5.48320509748427
h           -0.32506242574192       -0.63998911882372       -5.15101873890383
h           -1.09033978444144        0.67433137853770       -4.78839733424677
o            4.30144620052425        8.16752189694105       -1.15098787411476
h            3.66145442040113        8.09069043976936       -0.42148083029649
h            4.31773709841305        7.30432814992565       -1.60080499158184
o            5.14192889024682        3.48244049630938        5.11117640600010
h            5.27851091697508        3.06110924299936        5.96504121768073
h            4.99045755560011        2.73625035223851        4.48089230397593
o            2.85671226206247        2.94867900842996        7.27721722794097
h            2.06737662979480        2.59229748119449        7.72025413503732
h            2.60601237512189        2.98431997352353        6.33830335205096
o            7.33379100209223        0.59861114446264        0.11693715005098
h            7.52574205408388        1.55260893435355        0.09233104293356
h            7.57435082507414        0.31843057645714        1.01938431172449
o           -8.28686839386864        2.81425078230221        2.67168080052926
h           -7.39294753460429        2.48478718846898        2.85795399564726
h           -8.76082051129671        2.85119260197464        3.52252076079067
o           -3.38381884205912        0.40853045499758        2.07218107424933
h           -3.12408831385647       -0.13487222238682        2.81688699765749
h           -4.18648295389048       -0.00369148805751        1.69452774918650
o           -4.46606247565167       -6.76577723999080       -3.90576958853414
h           -3.87379275400097       -7.40476130520794       -3.48082184045965
h           -5.01070601522158       -6.42852960347998       -3.16855560463062
o          -10.97536161713793       -2.06737070399537        2.67021544606550
h          -10.76780500189466       -1.34632712239188        3.30317203554126
h          -11.75448094645383       -1.75361871580444        2.15783912780220
o            6.40283986946323       -3.03364453584746        3.45044750187737
h            5.66490980552654       -3.61606200251241        3.71511051522300
h            6.18399193096735       -2.74119943047961        2.54418463505799
o           -7.07037320933139        2.29976160093511       -2.47596015408782
h           -7.90292185029015        2.33878973631415       -1.99409369099391
h           -7.14935458840397        1.54197294474048       -3.08424534235280
o           -4.17408366424066        5.22048950085848       -6.63788697695624
h           -3.71254408726086        6.04581310588736       -6.81242757056276
h           -3.50472479554213        4.66534893606277       -6.20479397023740
o            2.05355777417717       -3.67403329313422        7.19523701784724
h            1.16736455579513       -3.38632113422696        7.46184595081164
h            1.90271678397164       -4.41382316099869        6.56894758465241
o           -9.62458382205945        2.48929386705062        4.98662597695564
h          -10.00977738282224        1.60546592334980        4.85083675825362
h           -8.81536120803693        2.31812349063114        5.49041687581524
o           -7.86583830763072        0.57901495588085        0.68516556123235
h           -8.35666504289337        1.12305662000586        0.05022941953986
h           -8.28710539924692       -0.30367814592565        0.70219811315226
o            6.47587026008754        5.27027952603893       -0.53165118907471
h            5.52359384293718        5.18670274019293       -0.32255189757480
h            6.69842300414006        6.17092962647920       -0.23199601927610
o           -2.01401957364506       -4.65100715779348        2.83682122980797
h           -1.04426227501637       -4.46356452708362        2.85411330610371
h           -2.11015007522634       -5.55736801170347        2.50863595235589
o           -9.40441517918610        2.20080363051568       -0.91338262425921
h          -10.15129784429266        2.72718203547994       -0.57116142080948
h           -9.77040951093030        1.67907873922011       -1.64101294555149
o            1.36093169483676       -2.16954937451557       -7.02525965451713
h            2.27475810155475       -2.41669584158619       -7.27040485077305
h            0.89021765170807       -3.01696920289448       -6.89172641330596
o           -2.23163051135573       -3.71806976794864       -4.59222734824657
h           -2.76631663874943       -3.71021859087663       -3.78359347536940
h           -2.18130165162528       -4.63850585325299       -4.87957608118747
o           -1.20315532287498       -2.38155950064613       -2.07424363165763
h           -0.92108864514407       -1.44820052314019       -2.02257801065098
h           -1.44454638147911       -2.69612101816200       -1.17194268897077
o            2.45372993605004        3.53707293104102       -3.42782273467647
h            2.92413331100764        2.72011489843558       -3.68869232327413
h            2.57047710571851        4.14960863641128       -4.17638719232724
o            2.99515604231848       -2.37674492869284        4.97582403645746
h            2.28988197345165       -1.91951105791352        4.47507171261579
h            2.57274432410808       -2.70868864069607        5.78723681077733
o           -4.64212494071751        4.53261931967702       -0.14637488061957
h           -5.04297599802729        4.80340799045374        0.68224462280319
h           -5.29607078924634        4.70762639694036       -0.85340181262399
o           -1.63215877707332       -5.70480505012509       -2.42514431240214
h           -2.29991418832078       -5.00777179249387       -2.28157049262257
h           -2.09398195702660       -6.56122208846924       -2.37272705226510
o           -2.91817062286082        4.65197587530347        4.50024263618047
h           -3.39887729396188        5.11924721305108        5.18400726354283
h           -2.05816181624953        4.40491491352480        4.87954789338962
o            0.31967492694124       -0.18780839577549        6.16320324969593
h           -0.59137319873400       -0.10069893175723        5.86913659657888
h            0.35173654636674       -0.97956049371906        6.72811050788575
o           -4.13154212318791       -4.61525651810987        0.59046425161853
h           -4.32054333005260       -4.72595907703916        1.53817700119261
h           -4.86737471611949       -4.03084897642982        0.30650817556292
o           -9.87381353153632        1.06549680974613       -3.38753323421444
h           -9.78564622131645        2.02167214323522       -3.56136325288711
h           -9.75861657892409        0.63463023512091       -4.25286829333124
o           -5.54477438637230        6.28226300855024       -4.46086435113404
h           -5.09127834764598        5.85211503505791       -5.21060483847559
h           -5.00034730278226        7.02945093942811       -4.20515712715783
o           -7.89303878940705       -4.07883943147749       -5.34412923648733
h           -8.25789289835709       -4.69494182011693       -5.97785265539256
h           -6.93482991540702       -4.27670324581995       -5.27120349835336
o          -10.18718408836288       -0.17296990155261        4.41690090011296
h          -10.01307974091566       -0.84557947254973        5.09473354482558
h           -9.31069782638104       -0.09158174770313        3.95036330719691
o            3.11372297761817        5.39893163220317       -5.24671189962537
h            2.28354646903913        5.91572602765619       -5.28111151283390
h            3.17336148348506        4.87863617917423       -6.07463266281334
o            3.81922119306395        5.27134204334016        0.01143578223926
h            3.40287225159127        4.45998784801519        0.35158631928076
h            3.27748288962455        5.48820915251997       -0.77782302393593
o           -0.01634383808352        3.04425149606347       -2.70557601848465
h           -0.61968386970742        2.46869480586189       -3.18097142107900
h            0.87161187533449        3.01002298013871       -3.11715775709940
o            0.58687531975130        3.91893228331299       -5.63123491245081
h            0.82825340435687        4.49863326712991       -6.35225279525680
h            1.00450553930468        3.04037762352256       -5.81427709886842
o            8.73611824028885       -1.14460812830666       -4.07972290979546
h            7.93868366997213       -1.00296603974752       -4.62688068523166
h            9.40245818286753       -0.49429897164046       -4.35736647773649
o            6.88143188396092       -3.65241554053940       -5.87354916836923
h            6.62415667293019       -2.73750103082268       -5.64511083626346
h            7.76371574250517       -3.78188569722793       -5.51451323027991
o           -5.46195868045542        4.09421536405070        5.79745372672904
h           -6.11012746362024        3.40365968611822        5.95373462373009
h           -4.69737872729094        3.88898334749174        6.36357981920600
o            9.51485063933984       -1.78894430082720        1.53215059405158
h           10.44596493675393       -2.02926594563073        1.67635782777268
h            9.11428869940316       -2.52501569963658        1.02647784166640
o            7.38132825368208       -0.47085554121538        2.59872291229787
h            7.41511554694756        0.01098521518094        3.43531296578170
h            8.19971354555480       -0.98576498314387        2.53372579292817
o            5.02284663239519        1.34131467055688        3.54922371821321
h            5.15942689732371        0.45816345049307        3.95507214935984
h            5.85910632550941        1.57783264751334        3.09923585616214
o           -5.23641555058066       -0.18409904831997       -6.09555788047203
h           -5.12721899391166        0.60870319622641       -6.62830636304498
h           -4.41339965743774       -0.70800205601366       -6.20125685706586
o           -8.82237095378655       -1.89486591009965        1.11398498754777
h           -9.62525822599683       -1.87679623397616        1.67389488260070
h           -9.07294757813846       -2.44022423160298        0.34935433678814
o           -5.66886070605955       -0.72387195504150        1.39332044353192
h           -6.34929136813142       -0.13662716412404        1.03386632748087
h           -5.87212144200198       -1.61542478972563        1.06125230914020
o            1.88324126027829        5.54646709711505       -1.75045605869761
h            2.10090176088475        4.81374321489528       -2.35456879094991
h            1.11195866973584        5.23764992766611       -1.22994020298991
o           -4.60188106425088        1.20601102740999        6.50799524050723
h           -3.87575440161895        1.22613703694253        7.14832836009886
h           -4.20960777554514        1.51843660982373        5.65633074672231
o            9.55131420535729        1.16757486197592        2.27336653708372
h           10.38851077578454        1.55776533177487        2.02366023065067
h            9.72357365027521        0.48611055939998        2.94024662721271
o            1.32215066643471       -0.73753527827369        3.65431640136320
h            1.77260035754324        0.06166830007835        3.34409956254443
h            0.98864343477669       -0.52413005267255        4.54161645714233
o           11.34256984356989       -1.12749148659463       -2.43709621949319
h           10.74036835114009       -0.74496121168445       -1.75260809059843
h           11.19806325817681       -0.63219940794646       -3.24996584687771
o            5.88866874546654        2.30294471503965       -7.04027624802361
h            5.40381048915015        1.46717003838050       -6.96725060989909
h            5.73971452268596        2.79985386953769       -6.21509677998181
o            4.19750825116746       -3.02119443400229       -4.37634790357523
h            3.83750872216711       -2.11800273709816       -4.39284733654478
h            4.80271409081827       -3.10692685794840       -3.61573634974242
o          -12.60589249896235        0.29633054500714       -2.54252023361218
h          -13.56064926538287        0.23400043868993       -2.52606419283894
h          -12.40371444681961        1.25585579658516       -2.71225174056503
o          -12.26181647008457        2.89279303941516       -2.72272315079384
h          -11.49243810536517        3.23726964635563       -3.20073048324549
h          -12.16580402719238        3.20934817004614       -1.81251903823998
o           -3.86232734406473        6.86908684240645        2.90164688949376
h           -4.27173486628089        5.98924529993534        2.92595343893845
h           -3.07847695078802        6.82906196421983        3.46826465202433
o           -2.26826966285654        5.69141111696767       -0.13736238475569
h           -3.15736575706885        5.27377038571487       -0.18805758205273
h           -2.35943660049815        6.62410596493513       -0.33864526028159
o            3.91408844146219       -3.01241661701660       -7.15849490565575
h            3.64311658720217       -3.93928332192486       -7.25620918849030
h            4.21920844585426       -2.96140286824951       -6.23664576168209
o           -6.77711295003942        6.43837153516663        0.23875433874928
h           -7.00835367658532        5.49152798941241        0.21365699947769
h           -7.02624644652562        6.73472192817212        1.11942425684298
o           -0.60160548988460        7.79298029129004       -1.79443065161789
h           -0.64265156927643        6.87993631919988       -2.16247652557155
h            0.23139943853125        8.15351450494063       -2.13683162285120
o            5.28815690598032       -5.73051706783970       -5.44694885014803
h            5.77558620685798       -4.90706594253679       -5.67546593254680
h            4.56045042349455       -5.79916968616980       -6.07602902058372
o           -4.79731924841906        0.94519838120710       -3.65370326082029
h           -5.00492124685828        0.45784987062227       -4.47304631800377
h           -5.22017601118753        0.46959484273217       -2.91532010542509
o           -2.26885074900267        0.98045660733623        7.94885037902890
h           -2.23156719216178        0.06546990612613        7.61679356063622
h           -1.35194177197087        1.29690368067714        8.02939310825670
o           -5.25154552767707       -4.44838649239155       -5.28243795481104
h           -4.93099986201631       -5.20771748204340       -4.77383731099762
h           -4.61357109526658       -4.28579214717673       -6.00316768734388
o           -3.64196144750941       -3.92619116483941       -2.25043600841110
h           -4.37033253313350       -4.52911329510199       -2.04175597177182
h           -3.67913586886060       -3.18996799534418       -1.60788799332511
o           -7.39499301771406        3.74068671435011        0.33552671067103
h           -7.77261785727928        3.54436968356370        1.21077372636819
h           -8.11496410981730        3.60644881390411       -0.29066497973315
o           -5.74249537632794       -5.63840078368558       -1.82412613816267
h           -6.33665531530350       -4.86876923008988       -1.93321529504217
h           -6.05859423310116       -6.16601223653526       -1.07955649234185
o            8.03118394249024       -1.37247058956595        6.35260769552371
h            7.31821514843729       -1.35191428417339        7.01018831501511
h            7.95362009518648       -2.24826892941238        5.93840259975237
o           -1.98756054400020        4.08531916477612       -5.32135704450018
h           -2.07405280767562        5.05075743250576       -5.16536534197280
h           -1.00593254517229        3.97922178161947       -5.37638748919432
o            5.47143898227619        3.70985940961001       -4.77491397949762
h            6.16714398853051        3.99960127472868       -4.15111020977211
h            4.89563050519777        4.46417334522717       -4.92794678129956
o          -12.56515985484152       -2.73508295134679       -0.79732456972654
h          -12.86024186586468       -2.21636110077234       -0.03618967574242
h          -12.58007387855787       -2.14545731975067       -1.55544216999084
o            3.54046449592626        4.18220146108759        2.77961032451569
h            2.76757743353231        4.64791698687986        2.41312100831750
h            3.17763316218857        3.66912618138920        3.52987055030887
o            0.32066911474948        1.99108191997332        7.70391341935334
h           -0.01460162274549        2.63347954357331        7.05106026122346
h            0.52173768389482        1.18328948971806        7.18688944012130
o           -2.44413110574089       -1.50055286468326        6.72617787226495
h           -2.27851932900585       -1.49535234256582        5.76257577566497
h           -3.39908437034290       -1.68337514452151        6.81932650302294
o            1.81543406726944       -5.55410013150668        5.31766586034279
h            1.02077497619526       -6.08952138923217        5.23638457098354
h            2.55753324521972       -6.08792900218000        4.99831131187127
o           -0.00774597738121        4.28166080716016       -0.37875813965993
h           -0.26956423169062        3.63112961011439       -1.05905531864411
h           -0.79332823369742        4.84722714968859       -0.27841794176904
o            2.80707369686782       -0.85552759352667        7.73795986809465
h            3.76217311275673       -1.04864963290912        7.75016757566213
h            2.36952564486263       -1.70911324693345        7.78654119928752
o           -2.74731850961195       -8.13715957805819       -2.21025979403863
h           -3.20934308074676       -7.92109546030408       -1.37598641904010