      -----------------------------------------------------------      
     |                   =====================                   |     
     |                           x T B                           |     
     |                   =====================                   |     
     |                         S. Grimme                         |     
     |          Mulliken Center for Theoretical Chemistry        |     
     |                    University of Bonn                     |     
      -----------------------------------------------------------      

   * xtb version 6.5.1 (579679a) compiled by 'ehlert@majestix' on 2022-07-11

   xtb is free software: you can redistribute it and/or modify it under
   the terms of the GNU Lesser General Public License as published by
   the Free Software Foundation, either version 3 of the License, or
   (at your option) any later version.
   
   xtb is distributed in the hope that it will be useful,
   but WITHOUT ANY WARRANTY; without even the implied warranty of
   MERCHANTABILITY or FITNESS FOR A PARTICULAR PURPOSE.  See the
   GNU Lesser General Public License for more details.
   
   Cite this work as:
   * C. Bannwarth, E. Caldeweyher, S. Ehlert, A. Hansen, P. Pracht,
     J. Seibert, S. Spicher, S. Grimme, WIREs Comput. Mol. Sci., 2020, 11,
     e01493. DOI: 10.1002/wcms.1493
   
   for GFN2-xTB:
   * C. Bannwarth, S. Ehlert and S. Grimme., J. Chem. Theory Comput., 2019,
     15, 1652-1671. DOI: 10.1021/acs.jctc.8b01176
   for GFN1-xTB:
   * S. Grimme, C. Bannwarth, P. Shushkov, J. Chem. Theory Comput., 2017,
     13, 1989-2009. DOI: 10.1021/acs.jctc.7b00118
   for GFN0-xTB:
   * P. Pracht, E. Caldeweyher, S. Ehlert, S. Grimme, ChemRxiv, 2019, preprint.
     DOI: 10.26434/chemrxiv.8326202.v1
   for GFN-FF:
   * S. Spicher and S. Grimme, Angew. Chem. Int. Ed., 2020, 59, 15665-15673.
     DOI: 10.1002/anie.202004239
   
   for ALPB and GBSA implicit solvation:
   * S. Ehlert, M. Stahn, S. Spicher, S. Grimme, J. Chem. Theory Comput.,
     2021, 17, 4250-4261. DOI: 10.1021/acs.jctc.1c00471
   
   for DFT-D4:
   * E. Caldeweyher, C. Bannwarth and S. Grimme, J. Chem. Phys., 2017,
     147, 034112. DOI: 10.1063/1.4993215
   * E. Caldeweyher, S. Ehlert, A. Hansen, H. Neugebauer, S. Spicher,
     C. Bannwarth and S. Grimme, J. Chem. Phys., 2019, 150, 154122.
     DOI: 10.1063/1.5090222
   * E. Caldeweyher, J.-M. Mewes, S. Ehlert and S. Grimme, Phys. Chem. Chem. Phys.
     2020, 22, 8499-8512. DOI: 10.1039/D0CP00502A
   
   for sTDA-xTB:
   * S. Grimme and C. Bannwarth, J. Chem. Phys., 2016, 145, 054103.
     DOI: 10.1063/1.4959605
   
   in the mass-spec context:
   * V. Asgeirsson, C. Bauer and S. Grimme, Chem. Sci., 2017, 8, 4879.
     DOI: 10.1039/c7sc00601b
   * J. Koopman and S. Grimme, ACS Omega 2019, 4, 12, 15120-15133.
     DOI: 10.1021/acsomega.9b02011
   
   for metadynamics refer to:
   * S. Grimme, J. Chem. Theory Comput., 2019, 155, 2847-2862
     DOI: 10.1021/acs.jctc.9b00143
   
   for SPH calculations refer to:
   * S. Spicher and S. Grimme, J. Chem. Theory Comput., 2021, 17, 1701-1714
     DOI: 10.1021/acs.jctc.0c01306
   
   with help from (in alphabetical order)
   P. Atkinson, C. Bannwarth, F. Bohle, G. Brandenburg, E. Caldeweyher
   M. Checinski, S. Dohm, S. Ehlert, S. Ehrlich, I. Gerasimov, C. Hölzer
   A. Katbashev, J. Koopman, C. Lavigne, S. Lehtola, F. März, M. Müller,
   F. Musil, H. Neugebauer, J. Pisarek, C. Plett, P. Pracht, F. Pultar,
   J. Seibert, P. Shushkov, S. Spicher, M. Stahn, M. Steiner, T. Strunk,
   J. Stückrath, T. Rose, and J. Unsleber
   
 * started run on 2022/11/24 at 12:04:43.997     

           -------------------------------------------------
          |                Calculation Setup                |
           -------------------------------------------------

          program call               : xtb solvent_cluster.coord --gfn2 --input xcontrol --opt 1
          hostname                   : cn0430
          coordinate file            : solvent_cluster.coord
          omp threads                :                     2

   ID    Z sym.   atoms
    1    8 o      1, 4, 7, 10, 13, 16, 19, 22, 25, 28, 31, 34, 37, 40, 43,
                  46, 49, 52, 55, 58, 61, 64, 67, 70, 73, 76, 79, 82, 85, 88,
                  91, 94, 97, 100, 103, 106, 109, 112, 115, 118, 121, 124,
                  127, 130, 133, 136, 139, 142, 145, 148, 151, 154, 157, 160,
                  163, 166, 169, 172, 175, 178, 181, 184, 187, 190, 193, 196,
                  199, 202, 205, 208, 211, 214, 217, 220, 223, 226, 229, 232,
                  235, 238, 241, 244, 247, 250, 253, 256, 259, 262, 265, 268,
                  271, 274, 277, 280, 283, 286, 289, 292, 295, 298, 301, 304,
                  307, 310, 313, 316, 319, 322, 325, 328, 331, 334, 337, 340,
                  343, 346, 349, 352, 355, 358, 361, 364, 367, 370, 373, 376,
                  379, 382, 385, 388, 391, 394, 397, 400, 403, 406, 409, 412,
                  415, 418, 421, 424, 427, 430, 433, 436, 439, 442, 445, 448,
                  451, 454, 457, 460, 463, 466, 469, 472, 475, 478, 481, 484,
                  487, 490, 493, 496, 499, 502, 505, 508, 511, 514, 517, 520,
                  523, 526, 529, 532, 535, 538, 541, 544, 547, 550, 553, 556,
                  559, 562, 565, 568, 571, 574, 577, 580, 583, 586, 589, 592,
                  595, 598, 601, 604, 607, 610, 613, 616, 619, 622, 625, 628,
                  631, 634, 637, 640, 643, 646, 649, 652, 655, 658, 661, 664,
                  667, 670, 673, 676, 679, 682, 685, 688, 691, 694, 697, 700,
                  703, 706, 709, 712, 715, 718, 721, 724, 727, 730, 733, 736,
                  739, 742, 745, 748, 751, 754
    2    1 h      2, 3, 5, 6, 8, 9, 11, 12, 14, 15, 17, 18, 20, 21, 23, 24,
                  26, 27, 29, 30, 32, 33, 35, 36, 38, 39, 41, 42, 44, 45, 47,
                  48, 50, 51, 53, 54, 56, 57, 59, 60, 62, 63, 65, 66, 68, 69,
                  71, 72, 74, 75, 77, 78, 80, 81, 83, 84, 86, 87, 89, 90, 92,
                  93, 95, 96, 98, 99, 101, 102, 104, 105, 107, 108, 110, 111,
                  113, 114, 116, 117, 119, 120, 122, 123, 125, 126, 128, 129,
                  131, 132, 134, 135, 137, 138, 140, 141, 143, 144, 146, 147,
                  149, 150, 152, 153, 155, 156, 158, 159, 161, 162, 164, 165,
                  167, 168, 170, 171, 173, 174, 176, 177, 179, 180, 182, 183,
                  185, 186, 188, 189, 191, 192, 194, 195, 197, 198, 200, 201,
                  203, 204, 206, 207, 209, 210, 212, 213, 215, 216, 218, 219,
                  221, 222, 224, 225, 227, 228, 230, 231, 233, 234, 236, 237,
                  239, 240, 242, 243, 245, 246, 248, 249, 251, 252, 254, 255,
                  257, 258, 260, 261, 263, 264, 266, 267, 269, 270, 272, 273,
                  275, 276, 278, 279, 281, 282, 284, 285, 287, 288, 290, 291,
                  293, 294, 296, 297, 299, 300, 302, 303, 305, 306, 308, 309,
                  311, 312, 314, 315, 317, 318, 320, 321, 323, 324, 326, 327,
                  329, 330, 332, 333, 335, 336, 338, 339, 341, 342, 344, 345,
                  347, 348, 350, 351, 353, 354, 356, 357, 359, 360, 362, 363,
                  365, 366, 368, 369, 371, 372, 374, 375, 377, 378, 380, 381,
                  383, 384, 386, 387, 389, 390, 392, 393, 395, 396, 398, 399,
                  401, 402, 404, 405, 407, 408, 410, 411, 413, 414, 416, 417,
                  419, 420, 422, 423, 425, 426, 428, 429, 431, 432, 434, 435,
                  437, 438, 440, 441, 443, 444, 446, 447, 449, 450, 452, 453,
                  455, 456, 458, 459, 461, 462, 464, 465, 467, 468, 470, 471,
                  473, 474, 476, 477, 479, 480, 482, 483, 485, 486, 488, 489,
                  491, 492, 494, 495, 497, 498, 500, 501, 503, 504, 506, 507,
                  509, 510, 512, 513, 515, 516, 518, 519, 521, 522, 524, 525,
                  527, 528, 530, 531, 533, 534, 536, 537, 539, 540, 542, 543,
                  545, 546, 548, 549, 551, 552, 554, 555, 557, 558, 560, 561,
                  563, 564, 566, 567, 569, 570, 572, 573, 575, 576, 578, 579,
                  581, 582, 584, 585, 587, 588, 590, 591, 593, 594, 596, 597,
                  599, 600, 602, 603, 605, 606, 608, 609, 611, 612, 614, 615,
                  617, 618, 620, 621, 623, 624, 626, 627, 629, 630, 632, 633,
                  635, 636, 638, 639, 641, 642, 644, 645, 647, 648, 650, 651,
                  653, 654, 656, 657, 659, 660, 662, 663, 665, 666, 668, 669,
                  671, 672, 674, 675, 677, 678, 680, 681, 683, 684, 686, 687,
                  689, 690, 692, 693, 695, 696, 698, 699, 701, 702, 704, 705,
                  707, 708, 710, 711, 713, 714, 716, 717, 719, 720, 722, 723,
                  725, 726, 728, 729, 731, 732, 734, 735, 737, 738, 740, 741,
                  743, 744, 746, 747, 749, 750, 752, 753, 755, 756

molecular fragmentation (1/2 indicates fragments):
111222222222222222222222222222222222222222222222222222222222222222222222
222222222222222222222222222222222222222222222222222222222222222222222222
222222222222222222222222222222222222222222222222222222222222222222222222
222222222222222222222222222222222222222222222222222222222222222222222222
222222222222222222222222222222222222222222222222222222222222222222222222
222222222222222222222222222222222222222222222222222222222222222222222222
222222222222222222222222222222222222222222222222222222222222222222222222
222222222222222222222222222222222222222222222222222222222222222222222222
222222222222222222222222222222222222222222222222222222222222222222222222
222222222222222222222222222222222222222222222222222222222222222222222222
222222222222222222222222222222222222
# atoms in fragment 1/2:     3   753
 fragment masses (1/2) :       18.02     4521.84
CMA distance (Bohr)    :  18.630
constraining FC (au)   :  0.0500

           -------------------------------------------------
          |                 G F N 2 - x T B                 |
           -------------------------------------------------

        Reference                      10.1021/acs.jctc.8b01176
      * Hamiltonian:
        H0-scaling (s, p, d)           1.850000    2.230000    2.230000
        zeta-weighting                 0.500000
      * Dispersion:
        s8                             2.700000
        a1                             0.520000
        a2                             5.000000
        s9                             5.000000
      * Repulsion:
        kExp                           1.500000    1.000000
        rExp                           1.000000
      * Coulomb:
        alpha                          2.000000
        third order                    shell-resolved
        anisotropic                    true
        a3                             3.000000
        a5                             4.000000
        cn-shift                       1.200000
        cn-exp                         4.000000
        max-rad                        5.000000


          ...................................................
          :                      SETUP                      :
          :.................................................:
          :  # basis functions                1512          :
          :  # atomic orbitals                1512          :
          :  # shells                         1008          :
          :  # electrons                      2016          :
          :  max. iterations                   250          :
          :  Hamiltonian                  GFN2-xTB          :
          :  restarted?                      false          :
          :  GBSA solvation                  false          :
          :  PC potential                    false          :
          :  electronic temp.          300.0000000     K    :
          :  accuracy                    1.0000000          :
          :  -> integral cutoff          0.2500000E+02      :
          :  -> integral neglect         0.1000000E-07      :
          :  -> SCF convergence          0.1000000E-05 Eh   :
          :  -> wf. convergence          0.1000000E-03 e    :
          :  Broyden damping             0.4000000          :
          ...................................................

 iter      E             dE          RMSdq      gap      omega  full diag
   1  -1290.9840581 -0.129098E+04  0.407E+00    8.42       0.0  T
   2  -1291.0653420 -0.812839E-01  0.242E+00    6.91       1.0  T
   3  -1291.0976477 -0.323056E-01  0.214E-01    4.94       1.0  T
   4  -1291.1032735 -0.562583E-02  0.465E-02    5.54       1.0  T
   5  -1291.1033699 -0.964172E-04  0.312E-02    5.44       1.0  T
   6  -1291.1034122 -0.423232E-04  0.452E-03    5.48       1.0  T
   7  -1291.1034150 -0.273711E-05  0.737E-04    5.48       4.9  T
   8  -1291.1034150 -0.273417E-07  0.389E-04    5.48       9.3  T
   9  -1291.1034150 -0.145772E-07  0.699E-05    5.48      52.0  T

   *** convergence criteria satisfied after 9 iterations ***

         #    Occupation            Energy/Eh            Energy/eV
      -------------------------------------------------------------
         1        2.0000           -0.6838829             -18.6094
       ...           ...                  ...                  ...
      1002        2.0000           -0.3453713              -9.3980
      1003        2.0000           -0.3436857              -9.3522
      1004        2.0000           -0.3383509              -9.2070
      1005        2.0000           -0.3344483              -9.1008
      1006        2.0000           -0.3312291              -9.0132
      1007        2.0000           -0.3240962              -8.8191
      1008        2.0000           -0.2901991              -7.8967 (HOMO)
      1009                         -0.0889608              -2.4207 (LUMO)
      1010                         -0.0711222              -1.9353
      1011                         -0.0683091              -1.8588
      1012                         -0.0652374              -1.7752
      1013                         -0.0563285              -1.5328
       ...                                ...                  ...
      1512                          0.5116302              13.9222
      -------------------------------------------------------------
                  HL-Gap            0.2012384 Eh            5.4760 eV
             Fermi-level           -0.1895799 Eh           -5.1587 eV

 SCC (total)                   0 d,  0 h,  0 min, 21.078 sec
 SCC setup                      ...        0 min,  0.042 sec (  0.198%)
 Dispersion                     ...        0 min,  0.111 sec (  0.527%)
 classical contributions        ...        0 min,  0.023 sec (  0.110%)
 integral evaluation            ...        0 min,  0.610 sec (  2.896%)
 iterations                     ...        0 min,  7.772 sec ( 36.872%)
 molecular gradient             ...        0 min, 12.453 sec ( 59.081%)
 printout                       ...        0 min,  0.067 sec (  0.316%)

         :::::::::::::::::::::::::::::::::::::::::::::::::::::
         ::                     SUMMARY                     ::
         :::::::::::::::::::::::::::::::::::::::::::::::::::::
         :: total energy           -1283.290535216079 Eh    ::
         :: gradient norm              0.113467061948 Eh/a0 ::
         :: HOMO-LUMO gap              5.475974867402 eV    ::
         ::.................................................::
         :: SCC energy             -1291.103414998193 Eh    ::
         :: -> isotropic ES            7.152661688737 Eh    ::
         :: -> anisotropic ES         -1.604231377607 Eh    ::
         :: -> anisotropic XC         -0.128341367829 Eh    ::
         :: -> dispersion             -0.801368020186 Eh    ::
         :: repulsion energy           7.652711641819 Eh    ::
         :: add. restraining           0.000000000000 Eh    ::
         :: total charge              -0.000000000000 e     ::
         :::::::::::::::::::::::::::::::::::::::::::::::::::::

      ----------------------------------------------------------- 
     |                       L-ANC optimizer                     |
      ----------------------------------------------------------- 
          low memory version by Sebastian Ehlert

          ...................................................
          :                      SETUP                      :
          :.................................................:
          :   energy convergence        0.1000000E-05 Eh    :
          :   grad. convergence         0.8000000E-03 Eh/a0 :
          :   optimization log               true           :
          :   writing optlog all                1     steps :
          :   Hessian reset                    20     steps :
          :   maximium step len.        1.0000000     a0    :
          :   LBFGS images                     20           :
          ...................................................
 * calculating model hessian...
Using Lindh-Hessian (1995)
 Shifting diagonal of input Hessian by   1.696965912356973E-002
 Lowest  eigenvalues of input Hessian
    0.010000    0.016072    0.016970   -0.000000   -0.000000   -0.000000
   -0.000000   -0.000000   -0.000000   -0.000000   -0.000000   -0.000000
   -0.000000   -0.000000   -0.000000   -0.000000   -0.000000   -0.000000
 Highest eigenvalues
    0.311035    0.319932    1.225382    1.232519    1.410287    1.450744
 

........................................................................
.............................. CYCLE    1 ..............................
........................................................................
   1  -1291.0990352 -0.129110E+04  0.459E-02    5.59       0.0  T
   2  -1291.0990613 -0.260979E-04  0.283E-02    5.63       1.0  T
   3  -1291.0990727 -0.114621E-04  0.238E-03    5.66       1.5  T
   4  -1291.0990732 -0.488217E-06  0.639E-04    5.65       5.7  T
   5  -1291.0990732 -0.898285E-08  0.843E-05    5.65      43.1  T
     SCC iter.                  ...        0 min,  3.759 sec
     gradient                   ...        0 min, 12.495 sec
 * total energy  : -1283.2947419 Eh     change       -0.4206649E-02 Eh
   gradient norm :     0.0482078 Eh/a0  converged?    E=F G=F D=F
   step length   :     0.4573701 a0

........................................................................
.............................. CYCLE    2 ..............................
........................................................................
   1  -1291.1053224 -0.129111E+04  0.202E-02    5.75       0.0  T
   2  -1291.1053313 -0.898176E-05  0.122E-02    5.74       1.0  T
   3  -1291.1053343 -0.301594E-05  0.173E-03    5.75       2.1  T
   4  -1291.1053346 -0.298272E-06  0.503E-04    5.75       7.2  T
   5  -1291.1053347 -0.896944E-08  0.655E-05    5.75      55.6  T
     SCC iter.                  ...        0 min,  3.692 sec
     gradient                   ...        0 min, 12.445 sec
 * total energy  : -1283.2982067 Eh     change       -0.3464874E-02 Eh
   gradient norm :     0.0420659 Eh/a0  converged?    E=F G=F D=F
   step length   :     0.4213213 a0

........................................................................
.............................. CYCLE    3 ..............................
........................................................................
   1  -1291.1060664 -0.129111E+04  0.388E-02    5.85       0.0  T
   2  -1291.1061163 -0.498309E-04  0.234E-02    5.85       1.0  T
   3  -1291.1061263 -0.999695E-05  0.391E-03    5.86       1.0  T
   4  -1291.1061279 -0.166568E-05  0.765E-04    5.87       4.8  T
   5  -1291.1061280 -0.254272E-07  0.169E-04    5.87      21.5  T
   6  -1291.1061280 -0.156729E-08  0.564E-05    5.87      64.5  T
     SCC iter.                  ...        0 min,  4.161 sec
     gradient                   ...        0 min, 12.427 sec
 * total energy  : -1283.3030972 Eh     change       -0.4890465E-02 Eh
   gradient norm :     0.0501702 Eh/a0  converged?    E=F G=F D=F
   step length   :     1.1608361 a0

........................................................................
.............................. CYCLE    4 ..............................
........................................................................
   1  -1291.1193037 -0.129112E+04  0.391E-02    5.88       0.0  T
   2  -1291.1194102 -0.106583E-03  0.225E-02    5.83       1.0  T
   3  -1291.1194296 -0.193774E-04  0.580E-03    5.80       1.0  T
   4  -1291.1194317 -0.210018E-05  0.102E-03    5.82       3.6  T
   5  -1291.1194318 -0.343555E-07  0.211E-04    5.82      17.2  T
   6  -1291.1194318 -0.191881E-08  0.632E-05    5.82      57.5  T
     SCC iter.                  ...        0 min,  3.994 sec
     gradient                   ...        0 min, 12.495 sec
 * total energy  : -1283.2992414 Eh     change        0.3855793E-02 Eh
   gradient norm :     0.0914251 Eh/a0  converged?    E=F G=F D=F
   step length   :     0.6164040 a0

........................................................................
.............................. CYCLE    5 ..............................
........................................................................
   1  -1291.1116255 -0.129111E+04  0.321E-02    5.82       0.0  T
   2  -1291.1116979 -0.723549E-04  0.187E-02    5.85       1.0  T
   3  -1291.1117130 -0.150935E-04  0.494E-03    5.87       1.0  T
   4  -1291.1117147 -0.173278E-05  0.105E-03    5.86       3.5  T
   5  -1291.1117147 -0.366674E-07  0.167E-04    5.86      21.7  T
   6  -1291.1117147 -0.209025E-08  0.595E-05    5.86      61.1  T
     SCC iter.                  ...        0 min,  3.923 sec
     gradient                   ...        0 min, 12.539 sec
 * total energy  : -1283.3052793 Eh     change       -0.6037863E-02 Eh
   gradient norm :     0.0298708 Eh/a0  converged?    E=F G=F D=F
   step length   :     0.3514688 a0

........................................................................
.............................. CYCLE    6 ..............................
........................................................................
   1  -1291.1132697 -0.129111E+04  0.203E-02    5.92       0.0  T
   2  -1291.1132885 -0.187521E-04  0.121E-02    5.93       1.0  T
   3  -1291.1132922 -0.370684E-05  0.241E-03    5.94       1.5  T
   4  -1291.1132927 -0.494279E-06  0.509E-04    5.94       7.2  T
   5  -1291.1132927 -0.711475E-08  0.789E-05    5.94      46.1  T
     SCC iter.                  ...        0 min,  3.343 sec
     gradient                   ...        0 min, 13.180 sec
 * total energy  : -1283.3052509 Eh     change        0.2833753E-04 Eh
   gradient norm :     0.0390295 Eh/a0  converged?    E=F G=F D=F
   step length   :     0.3224710 a0

........................................................................
.............................. CYCLE    7 ..............................
........................................................................
   1  -1291.1164426 -0.129112E+04  0.158E-02    5.92       0.0  T
   2  -1291.1164486 -0.601779E-05  0.937E-03    5.91       1.0  T
   3  -1291.1164499 -0.129597E-05  0.138E-03    5.90       2.6  T
   4  -1291.1164501 -0.192366E-06  0.321E-04    5.90      11.3  T
   5  -1291.1164501 -0.239947E-08  0.416E-05    5.90      87.3  T
     SCC iter.                  ...        0 min,  3.115 sec
     gradient                   ...        0 min, 12.643 sec
 * total energy  : -1283.3071032 Eh     change       -0.1852302E-02 Eh
   gradient norm :     0.0190506 Eh/a0  converged?    E=F G=F D=F
   step length   :     0.2210684 a0

........................................................................
.............................. CYCLE    8 ..............................
........................................................................
   1  -1291.1082165 -0.129111E+04  0.270E-02    5.86       0.0  T
   2  -1291.1082276 -0.110530E-04  0.163E-02    5.86       1.0  T
   3  -1291.1082300 -0.245114E-05  0.171E-03    5.84       2.1  T
   4  -1291.1082305 -0.409121E-06  0.433E-04    5.84       8.4  T
   5  -1291.1082305 -0.691830E-08  0.776E-05    5.84      46.9  T
     SCC iter.                  ...        0 min,  3.072 sec
     gradient                   ...        0 min, 12.677 sec
 * total energy  : -1283.3072416 Eh     change       -0.1383829E-03 Eh
   gradient norm :     0.0432432 Eh/a0  converged?    E=F G=F D=F
   step length   :     0.5077040 a0

........................................................................
.............................. CYCLE    9 ..............................
........................................................................
   1  -1291.1199133 -0.129112E+04  0.167E-02    5.91       0.0  T
   2  -1291.1199166 -0.324441E-05  0.100E-02    5.92       1.0  T
   3  -1291.1199178 -0.121996E-05  0.980E-04    5.94       3.7  T
   4  -1291.1199179 -0.824846E-07  0.311E-04    5.94      11.7  T
   5  -1291.1199179 -0.295677E-08  0.419E-05    5.94      86.8  T
     SCC iter.                  ...        0 min,  3.033 sec
     gradient                   ...        0 min, 12.728 sec
 * total energy  : -1283.3088871 Eh     change       -0.1645447E-02 Eh
   gradient norm :     0.0317235 Eh/a0  converged?    E=F G=F D=F
   step length   :     0.2316752 a0

........................................................................
.............................. CYCLE   10 ..............................
........................................................................
   1  -1291.1204469 -0.129112E+04  0.967E-03    5.97       0.0  T
   2  -1291.1204492 -0.229748E-05  0.588E-03    5.98       1.0  T
   3  -1291.1204501 -0.892259E-06  0.847E-04    5.98       4.3  T
   4  -1291.1204502 -0.683415E-07  0.283E-04    5.98      12.9  T
     SCC iter.                  ...        0 min,  2.457 sec
     gradient                   ...        0 min, 12.705 sec
 * total energy  : -1283.3097690 Eh     change       -0.8819673E-03 Eh
   gradient norm :     0.0138744 Eh/a0  converged?    E=F G=F D=F
   step length   :     0.1457344 a0

........................................................................
.............................. CYCLE   11 ..............................
........................................................................
   1  -1291.1096019 -0.129111E+04  0.348E-02    5.99       0.0  T
   2  -1291.1096340 -0.321699E-04  0.210E-02    6.03       1.0  T
   3  -1291.1096405 -0.647798E-05  0.284E-03    6.05       1.3  T
   4  -1291.1096417 -0.114305E-05  0.718E-04    6.04       5.1  T
   5  -1291.1096417 -0.198086E-07  0.117E-04    6.04      31.1  T
   6  -1291.1096417 -0.778073E-09  0.417E-05    6.04      87.1  T
     SCC iter.                  ...        0 min,  3.662 sec
     gradient                   ...        0 min, 12.750 sec
 * total energy  : -1283.3098435 Eh     change       -0.7445378E-04 Eh
   gradient norm :     0.0340807 Eh/a0  converged?    E=F G=F D=F
   step length   :     0.6207095 a0

........................................................................
.............................. CYCLE   12 ..............................
........................................................................
   1  -1291.1207149 -0.129112E+04  0.192E-02    6.10       0.0  T
   2  -1291.1207310 -0.160997E-04  0.114E-02    6.10       1.0  T
   3  -1291.1207338 -0.278746E-05  0.210E-03    6.10       1.7  T
   4  -1291.1207342 -0.453872E-06  0.426E-04    6.10       8.5  T
   5  -1291.1207343 -0.665250E-08  0.691E-05    6.10      52.6  T
     SCC iter.                  ...        0 min,  3.050 sec
     gradient                   ...        0 min, 12.759 sec
 * total energy  : -1283.3110869 Eh     change       -0.1243434E-02 Eh
   gradient norm :     0.0076782 Eh/a0  converged?    E=F G=F D=F
   step length   :     0.3047879 a0

........................................................................
.............................. CYCLE   13 ..............................
........................................................................
   1  -1291.1201791 -0.129112E+04  0.102E-02    6.11       0.0  T
   2  -1291.1201803 -0.112555E-05  0.613E-03    6.10       1.0  T
   3  -1291.1201806 -0.296378E-06  0.551E-04    6.09       6.6  T
   4  -1291.1201806 -0.383773E-07  0.152E-04    6.09      23.8  T
     SCC iter.                  ...        0 min,  2.454 sec
     gradient                   ...        0 min, 12.770 sec
 * total energy  : -1283.3114838 Eh     change       -0.3968993E-03 Eh
   gradient norm :     0.0156886 Eh/a0  converged?    E=F G=F D=F
   step length   :     0.1836506 a0

........................................................................
.............................. CYCLE   14 ..............................
........................................................................
   1  -1291.1168291 -0.129112E+04  0.179E-02    6.13       0.0  T
   2  -1291.1168336 -0.452693E-05  0.108E-02    6.15       1.0  T
   3  -1291.1168344 -0.837675E-06  0.108E-03    6.16       3.4  T
   4  -1291.1168346 -0.169520E-06  0.245E-04    6.16      14.8  T
   5  -1291.1168346 -0.184991E-08  0.435E-05    6.16      83.6  T
     SCC iter.                  ...        0 min,  3.068 sec
     gradient                   ...        0 min, 12.715 sec
 * total energy  : -1283.3119401 Eh     change       -0.4562520E-03 Eh
   gradient norm :     0.0208874 Eh/a0  converged?    E=F G=F D=F
   step length   :     0.3676321 a0

........................................................................
.............................. CYCLE   15 ..............................
........................................................................
   1  -1291.1200829 -0.129112E+04  0.685E-03    6.19       0.0  T
   2  -1291.1200844 -0.144056E-05  0.408E-03    6.19       1.0  T
   3  -1291.1200847 -0.289873E-06  0.637E-04    6.19       5.7  T
   4  -1291.1200847 -0.429793E-07  0.153E-04    6.19      23.8  T
     SCC iter.                  ...        0 min,  2.464 sec
     gradient                   ...        0 min, 12.698 sec
 * total energy  : -1283.3124171 Eh     change       -0.4770491E-03 Eh
   gradient norm :     0.0082486 Eh/a0  converged?    E=F G=F D=F
   step length   :     0.1005674 a0

........................................................................
.............................. CYCLE   16 ..............................
........................................................................
   1  -1291.1212388 -0.129112E+04  0.117E-02    6.24       0.0  T
   2  -1291.1212416 -0.272866E-05  0.700E-03    6.22       1.0  T
   3  -1291.1212421 -0.568819E-06  0.894E-04    6.21       4.1  T
   4  -1291.1212422 -0.988307E-07  0.209E-04    6.22      17.4  T
     SCC iter.                  ...        0 min,  2.431 sec
     gradient                   ...        0 min, 12.706 sec
 * total energy  : -1283.3128534 Eh     change       -0.4362485E-03 Eh
   gradient norm :     0.0071139 Eh/a0  converged?    E=F G=F D=F
   step length   :     0.2561031 a0

........................................................................
.............................. CYCLE   17 ..............................
........................................................................
   1  -1291.1205785 -0.129112E+04  0.124E-02    6.26       0.0  T
   2  -1291.1205796 -0.112721E-05  0.746E-03    6.26       1.0  T
   3  -1291.1205800 -0.377819E-06  0.535E-04    6.25       6.8  T
   4  -1291.1205801 -0.370076E-07  0.173E-04    6.25      21.1  T
     SCC iter.                  ...        0 min,  2.436 sec
     gradient                   ...        0 min, 12.622 sec
 * total energy  : -1283.3131809 Eh     change       -0.3275617E-03 Eh
   gradient norm :     0.0083343 Eh/a0  converged?    E=F G=F D=F
   step length   :     0.3182038 a0

........................................................................
.............................. CYCLE   18 ..............................
........................................................................
   1  -1291.1210223 -0.129112E+04  0.411E-03    6.27       0.0  T
   2  -1291.1210228 -0.476134E-06  0.249E-03    6.27       1.5  T
   3  -1291.1210229 -0.113032E-06  0.377E-04    6.26       9.6  T
   4  -1291.1210229 -0.162549E-07  0.948E-05    6.26      38.4  T
     SCC iter.                  ...        0 min,  2.404 sec
     gradient                   ...        0 min, 12.605 sec
 * total energy  : -1283.3132862 Eh     change       -0.1052803E-03 Eh
   gradient norm :     0.0061184 Eh/a0  converged?    E=F G=F D=F
   step length   :     0.1139369 a0

........................................................................
.............................. CYCLE   19 ..............................
........................................................................
   1  -1291.1217275 -0.129112E+04  0.406E-03    6.27       0.0  T
   2  -1291.1217286 -0.111060E-05  0.237E-03    6.27       1.5  T
   3  -1291.1217288 -0.153897E-06  0.599E-04    6.27       6.1  T
   4  -1291.1217288 -0.211946E-07  0.758E-05    6.27      48.0  T
     SCC iter.                  ...        0 min,  2.399 sec
     gradient                   ...        0 min, 12.616 sec
 * total energy  : -1283.3133753 Eh     change       -0.8904180E-04 Eh
   gradient norm :     0.0052045 Eh/a0  converged?    E=F G=F D=F
   step length   :     0.1206698 a0

........................................................................
.............................. CYCLE   20 ..............................
........................................................................
   1  -1291.1215334 -0.129112E+04  0.463E-03    6.28       0.0  T
   2  -1291.1215341 -0.751131E-06  0.279E-03    6.29       1.3  T
   3  -1291.1215343 -0.130546E-06  0.479E-04    6.29       7.6  T
   4  -1291.1215343 -0.247014E-07  0.917E-05    6.29      39.7  T
     SCC iter.                  ...        0 min,  2.393 sec
     gradient                   ...        0 min, 12.531 sec
 * total energy  : -1283.3134418 Eh     change       -0.6651395E-04 Eh
   gradient norm :     0.0036796 Eh/a0  converged?    E=F G=F D=F
   step length   :     0.1094380 a0
 * RMSD in coord.:     0.1118285 a0     energy gain  -0.2290655E-01 Eh
 * calculating model hessian...
Using Lindh-Hessian (1995)
 Shifting diagonal of input Hessian by   1.000027256913882E-002
 Lowest  eigenvalues of input Hessian
    0.010000   -0.000000   -0.000000   -0.000000   -0.000000   -0.000000
   -0.000000   -0.000000   -0.000000   -0.000000   -0.000000   -0.000000
   -0.000000   -0.000000   -0.000000   -0.000000   -0.000000   -0.000000
 Highest eigenvalues
    0.290657    0.317383    1.213635    1.237327    1.338826    1.432708
 

........................................................................
.............................. CYCLE   21 ..............................
........................................................................
   1  -1291.1223705 -0.129112E+04  0.112E-02    6.33       0.0  T
   2  -1291.1223732 -0.273391E-05  0.686E-03    6.32       1.0  T
   3  -1291.1223740 -0.810237E-06  0.865E-04    6.31       4.2  T
   4  -1291.1223741 -0.821833E-07  0.206E-04    6.32      17.7  T
     SCC iter.                  ...        0 min,  2.447 sec
     gradient                   ...        0 min, 12.539 sec
 * total energy  : -1283.3146251 Eh     change       -0.1183379E-02 Eh
   gradient norm :     0.0041572 Eh/a0  converged?    E=F G=F D=F
   step length   :     0.2819646 a0

........................................................................
.............................. CYCLE   22 ..............................
........................................................................
   1  -1291.1208112 -0.129112E+04  0.175E-02    6.37       0.0  T
   2  -1291.1208166 -0.534892E-05  0.108E-02    6.37       1.0  T
   3  -1291.1208185 -0.189801E-05  0.119E-03    6.36       3.1  T
   4  -1291.1208186 -0.139229E-06  0.297E-04    6.36      12.3  T
   5  -1291.1208186 -0.237924E-08  0.430E-05    6.36      84.5  T
     SCC iter.                  ...        0 min,  3.011 sec
     gradient                   ...        0 min, 12.503 sec
 * total energy  : -1283.3153709 Eh     change       -0.7457956E-03 Eh
   gradient norm :     0.0141305 Eh/a0  converged?    E=F G=F D=F
   step length   :     0.5273873 a0

........................................................................
.............................. CYCLE   23 ..............................
........................................................................
   1  -1291.1235482 -0.129112E+04  0.612E-03    6.40       0.0  T
   2  -1291.1235492 -0.945708E-06  0.370E-03    6.40       1.0  T
   3  -1291.1235494 -0.231393E-06  0.539E-04    6.40       6.7  T
   4  -1291.1235495 -0.302721E-07  0.135E-04    6.40      26.9  T
     SCC iter.                  ...        0 min,  2.461 sec
     gradient                   ...        0 min, 12.480 sec
 * total energy  : -1283.3155999 Eh     change       -0.2289892E-03 Eh
   gradient norm :     0.0035488 Eh/a0  converged?    E=F G=F D=F
   step length   :     0.0973970 a0

........................................................................
.............................. CYCLE   24 ..............................
........................................................................
   1  -1291.1241463 -0.129112E+04  0.427E-03    6.42       0.0  T
   2  -1291.1241476 -0.130918E-05  0.250E-03    6.42       1.5  T
   3  -1291.1241478 -0.181598E-06  0.647E-04    6.42       5.6  T
   4  -1291.1241478 -0.250484E-07  0.812E-05    6.42      44.8  T
     SCC iter.                  ...        0 min,  2.395 sec
     gradient                   ...        0 min, 12.501 sec
 * total energy  : -1283.3157162 Eh     change       -0.1162498E-03 Eh
   gradient norm :     0.0034182 Eh/a0  converged?    E=F G=F D=F
   step length   :     0.1165693 a0

........................................................................
.............................. CYCLE   25 ..............................
........................................................................
   1  -1291.1241371 -0.129112E+04  0.367E-03    6.43       0.0  T
   2  -1291.1241379 -0.718074E-06  0.219E-03    6.43       1.7  T
   3  -1291.1241380 -0.122317E-06  0.476E-04    6.43       7.6  T
   4  -1291.1241380 -0.186644E-07  0.809E-05    6.43      45.0  T
     SCC iter.                  ...        0 min,  2.392 sec
     gradient                   ...        0 min, 12.450 sec
 * total energy  : -1283.3157624 Eh     change       -0.4621593E-04 Eh
   gradient norm :     0.0019752 Eh/a0  converged?    E=F G=F D=F
   step length   :     0.1218965 a0

........................................................................
.............................. CYCLE   26 ..............................
........................................................................
   1  -1291.1238182 -0.129112E+04  0.162E-03    6.43       0.0  T
   2  -1291.1238183 -0.704977E-07  0.975E-04    6.43       3.7  T
   3  -1291.1238183 -0.169580E-07  0.145E-04    6.43      25.1  T
     SCC iter.                  ...        0 min,  1.811 sec
     gradient                   ...        0 min, 12.423 sec
 * total energy  : -1283.3157702 Eh     change       -0.7839583E-05 Eh
   gradient norm :     0.0010533 Eh/a0  converged?    E=F G=F D=F
   step length   :     0.0387634 a0

........................................................................
.............................. CYCLE   27 ..............................
........................................................................
   1  -1291.1238878 -0.129112E+04  0.883E-04    6.43       0.0  T
   2  -1291.1238879 -0.795712E-07  0.502E-04    6.43       7.2  T
   3  -1291.1238879 -0.110822E-07  0.159E-04    6.43      22.9  T
     SCC iter.                  ...        0 min,  1.833 sec
     gradient                   ...        0 min, 12.357 sec
 * total energy  : -1283.3157738 Eh     change       -0.3561130E-05 Eh
   gradient norm :     0.0004639 Eh/a0  converged?    E=F G=T D=F
   step length   :     0.0222583 a0

........................................................................
.............................. CYCLE   28 ..............................
........................................................................
   1  -1291.1238869 -0.129112E+04  0.611E-04    6.43       0.0  T
   2  -1291.1238869 -0.192217E-07  0.364E-04    6.43      10.0  T
   3  -1291.1238869 -0.335649E-08  0.787E-05    6.43      46.2  T
     SCC iter.                  ...        0 min,  1.809 sec
     gradient                   ...        0 min, 12.259 sec
 * total energy  : -1283.3157748 Eh     change       -0.9981550E-06 Eh
   gradient norm :     0.0005547 Eh/a0  converged?    E=T G=T D=F
   step length   :     0.0181249 a0

   *** GEOMETRY OPTIMIZATION CONVERGED AFTER 28 CYCLES ***

------------------------------------------------------------------------
 total energy gain   :        -0.0252396 Eh      -15.8381 kcal/mol
 total RMSD          :         0.1195164 a0        0.0632 Å
 total power (kW/mol):        -2.3666612 (step)   -0.1392 (real)
------------------------------------------------------------------------

 L-ANCopt (total)              0 d,  0 h,  7 min, 55.964 sec
 setup                          ...        0 min,  0.029 sec (  0.006%)
 model hessian                  ...        0 min, 15.311 sec (  3.217%)
 ANC generation                 ...        0 min,  4.992 sec (  1.049%)
 coordinate transformation      ...        0 min,  0.002 sec (  0.000%)
 Rational function              ...        0 min,  0.000 sec (  0.000%)
 singlepoint calculation        ...        7 min, 35.433 sec ( 95.686%)
 optimization log               ...        0 min,  0.191 sec (  0.040%)
 hessian update                 ...        0 min,  0.001 sec (  0.000%)

================
 final structure:
================
$coord
       12.71155404958939      -13.13653778585078       -2.37824664007584      o
       12.08405345459898      -14.79373968262117       -2.74819876953974      h
       14.43750468190122      -13.31109552704949       -1.77166966660995      h
       -1.03101152513605        5.71840270328009        8.12075148108250      o
       -2.38395677660011        6.30068829299335        6.99005078959393      h
        0.17882157464744        7.10650213710610        8.15126769600817      h
        1.09900516908184       -3.16736705617541       -3.57370620555968      o
        0.12736061126221       -3.75729013128766       -2.10397504628034      h
        0.62286245860422       -4.32414158424173       -4.90191355386894      h
      -10.90444571616910        4.71212882256175       -2.40066508318874      o
       -9.59846870139422        3.92937366620749       -3.42537889307359      h
      -10.61829507809825        6.52269098600030       -2.49184194404212      h
       -7.79111601223421        3.62595491335782        2.09939869009925      o
       -8.92256110022474        4.96531301930708        2.60444167442293      h
       -6.83691294841530        3.09860788329593        3.55824233244720      h
       -4.87061880058795      -10.28390120788181        2.29904181142599      o
       -5.75887822881886       -8.96246508154854        1.35444939338290      h
       -5.28060982476539      -10.01840426098473        4.05197034297762      h
        0.33887277556776       -7.37873249934108       -6.58645262327799      o
       -1.46007741867279       -7.17991789274134       -6.19084148325399      h
        1.16149435557740       -8.03483178529330       -5.06192316332517      h
        0.26068039903749       -8.92607742592698        2.53594694526214      o
       -0.31859238584791       -9.85145009349120        3.99387300221739      h
        2.07572419211927       -9.11541978523272        2.46848586502109      h
       -1.83309692747772       -5.05455337838563       -0.00368186210123      o
       -1.11262723269624       -6.47605440830985        0.92491639625702      h
       -3.48249635670682       -5.57731274261143       -0.58162702947716      h
        2.51510850730663        3.99109940797661       -9.21954173654249      o
        3.71779747489481        4.51035398932275      -10.52083277312461      h
        2.01211387390336        5.51793109722879       -8.31919166292162      h
       -4.26089991906032       -0.95155409909365       -6.80117946999413      o
       -5.44273555840052        0.25843587950249       -6.05168645455480      h
       -3.04359886023950        0.09503508786625       -7.72045089049984      h
       -2.81260751624154        5.64774931768450       -4.75619927904740      o
       -1.68424872168541        6.83534398587156       -5.63050923843445      h
       -1.92137093060383        4.03678650250409       -4.89832610248545      h
       -6.96410772659583       -7.17421247862076       -0.98609822973265      o
       -7.18440451050391       -8.34144969929385       -2.39522318249591      h
       -8.57412402244928       -6.32790536237222       -0.77878013692252      h
       -7.05581783371252        2.95835213459508       -5.34533435468996      o
       -7.18167611586292        3.49951465790555       -7.10826848908857      h
       -5.67370771790052        3.97964597949966       -4.70651739305669      h
       -3.00346419571929        5.54370020491550        0.35692782339058      o
       -2.69607102920467        5.80871329675135       -1.43989071582635      h
       -1.56832437886564        6.30353134958828        1.23385130343823      h
        0.09806530197800        1.67314098984503       -4.72006262363056      o
        1.43296147759446        2.77122560311873       -4.14945334140071      h
        0.57540357063087       -0.06018335273982       -4.31633754443590      h
       -5.09181991909479        1.42294455207806        5.82668408899450      o
       -3.90988472936367        0.49861249196514        6.87419026471104      h
       -6.77343210458468        1.11628445598667        6.55423960148953      h
       -7.92055214919114       -2.47985987624781       14.05633140509176      o
       -9.73725722681431       -2.19693689142964       13.96321162496823      h
       -7.67983209368989       -4.13489763070660       13.28667607693564      h
       -0.37441413752540      -11.69111210844657        7.31893934935628      o
       -1.86299638536810      -12.55688620841197        7.89582320487402      h
        0.28683938969740      -10.76477910350591        8.78127181277867      h
       -6.79457872528173        2.02901359518133       12.06375021840139      o
       -5.54114544434380        2.85312943870447       13.12246659881173      h
       -7.03846730356596        0.31810809708446       12.72544997738548      h
       -5.04537023416302       -4.32832921788478        4.11000047129322      o
       -3.64035168215342       -5.39426558030763        4.54204246021554      h
       -5.64334023404636       -3.63163787744786        5.71679898112227      h
        6.85092100537857        0.35865829268110        3.09176333276214      o
        6.19931830668577       -0.53496051663306        4.56185564001649      h
        5.61079791996178        1.64129702228534        2.74424117279578      h
        0.83846033898172       -2.79648106647668        3.94205430237148      o
        1.84244197284576       -3.65917275318924        2.65673116490363      h
       -0.03147273014005       -4.08365120980152        4.93276695241980      h
       -0.60287123089963        9.81483638544948       -1.85613353491116      o
       -0.13245708611875        9.75614875363337       -0.09143221044764      h
       -1.44292921940753       11.42267729096813       -2.12298504455744      h
       -2.70835370854336       -1.58367410817909       15.17897853698650      o
       -2.40594009311843        0.00341856205036       14.31096679211395      h
       -4.49969248830324       -1.69672501819070       15.48499855813881      h
       -9.74421717025370        0.77301268917346        7.56579655142680      o
      -10.69397010729377        2.34674880001883        7.56635695116596      h
      -10.49771232913572       -0.28433024049540        6.24971412017782      h
      -15.06480638321508        0.52191355822959       -3.20401626441773      o
      -13.54332163082570       -0.28394364470578       -3.88522406612863      h
      -14.61610551235567        1.08738179886837       -1.50635906463300      h
        5.48431223518664        5.80739540471038        2.97074527333774      o
        6.00799794779533        7.55199776006902        3.17007610606719      h
        6.40156010370104        5.20025780321786        1.49319080094459      h
       -4.16015201352595       -5.75738721803617       -5.11136455447900      o
       -5.87053875330574       -6.15957256458747       -5.64760248616862      h
       -3.95408314049690       -4.00604934648653       -5.61961393144561      h
        6.12969509687762       -4.53466742882827       -4.35170752915309      o
        5.96347875379499       -6.22284871160292       -5.09264093982211      h
        4.41683015555095       -3.98537188861746       -3.97069782307306      h
       -7.32246879995976      -10.54879572961527       -4.82080290902108      o
       -6.30408474014812      -10.27677058968849       -6.33122215096395      h
       -9.06973732222870      -10.56376635779911       -5.38461332371205      h
      -10.78808985065621       -1.13176865591548       -5.33344388607044      o
      -10.59394122869049       -0.00603435567292       -6.78474865718796      h
       -9.79367325082402       -0.43207280809918       -3.95660057688910      h
        3.30999718392253        1.52338377711268       10.90793739587250      o
        3.16992033576852        1.88138958597653        9.12169244725360      h
        1.64265851578474        1.86537510020699       11.61095853778946      h
        7.96771155000496       -5.11150773787709        4.64449382084269      o
        8.49013448083570       -6.81255029401186        5.12658067412043      h
        9.35322296313248       -3.99288698894620        5.12402515444421      h
        4.62759624875129       -2.28417165790378        6.94851124120562      o
        5.69705293307799       -3.67446020110498        6.36038565829497      h
        3.08903095703471       -2.27576895991302        5.86697501306035      h
        5.85251966931089        5.46661397695124        8.12384303664223      o
        5.50606695816697        5.40383746591849        6.32173140414405      h
        7.35771029465450        6.46795267827763        8.36210914580835      h
       -6.81421234918905        8.95655912500651       -4.98998254328018      o
       -5.26685387595827        8.02379061961262       -5.22911304352045      h
       -8.15165002725895        8.05733643789063       -5.88336896789873      h
      -11.24303797161805        9.82401588042538       -2.69274508262581      o
      -12.82322692078926        9.39160370459282       -1.85670173525964      h
      -11.64453262749895       10.52105872179743       -4.34751606881192      h
        1.88471505294768       -3.85315736771691       10.96402690111972      o
        2.18986642320809       -2.89631820857220       12.50458937993706      h
        3.17954202076203       -3.31992175211904        9.76259934638937      h
       -5.53442189768457       -8.69809749912611        7.34694164598329      o
       -6.43048436699400       -7.85149809517685        8.71320534238221      h
       -3.81729993310658       -8.02465425933479        7.33607151562069      h
       -1.06548110607985       -6.31805864277096        7.03588931183734      o
       -1.48017401994808       -5.64616449675030        8.70361041893860      h
        0.59880509283385       -7.10845998673418        7.16253671217833      h
        1.79462171673779        2.26018983412180        5.97697141710081      o
        1.75675846822964        2.36468197745263        4.15034213337170      h
        0.71042430054423        3.62843199101328        6.61613754132262      h
        0.13241785975787       -5.83628597116910      -14.53157379892185      o
        0.67168886376948       -7.38087786519658      -13.69342444798398      h
        1.59895391366485       -5.16751828356846      -15.38052525935496      h
        7.30123276329825       -5.89157480765880       10.00802105422551      o
        8.99175715770409       -5.71873972532351        9.37134107576709      h
        7.12096297448882       -4.54062213009705       11.27877603810684      h
      -16.56596181305991        4.69148431831790        4.41160608016952      o
      -15.26068093288357        4.55517307168440        5.71342798385038      h
      -16.87907138186720        6.49719044806221        4.26613109584408      h
      -17.02575218952745        9.78778453690089        5.08913409696410      o
      -15.35413238052773       10.49463610662134        5.47880676448949      h
      -17.74880702413790       10.88326363759498        3.83334669520790      h
      -16.08740406834334       -4.72402959151987        0.93619584919755      o
      -15.89315136784214       -5.29813625399783        2.69168076686217      h
      -16.87015163425420       -3.06097466698176        1.04428120286313      h
        5.69676106925465      -12.59998726608572        8.15368176799140      o
        4.54269428432775      -11.17616125928117        7.86328049394983      h
        4.85066270724591      -14.07990218040917        7.53101374991574      h
       13.04293095402021       -7.14370924951909        8.72809173187133      o
       12.60469439295363       -6.56933955098643       10.44214109728913      h
       11.73843207528460       -8.31672088573647        8.15889948709996      h
        2.54746071647216        5.93532364995893       -2.65168805704124      o
        4.01417227017982        6.89629993567810       -2.04628666488640      h
        1.21910372735708        7.20929277327649       -2.71258738215612      h
        7.66655336324194      -10.28318106451427       -2.66995024011303      o
        5.94118622179588       -9.58909903649162       -2.62354623269331      h
        7.53027216078731      -12.10811307557608       -2.84135618375016      h
      -16.59115110332070       10.80599055050689       -4.67390038169954      o
      -15.38333392670906       11.72482122021052       -5.68830941300326      h
      -16.11046214835547        9.01733351278652       -4.81766913623420      h
       10.45850704033895        3.64295786765083        4.55372680168174      o
       10.25924543904085        5.13745430802939        3.46889473633182      h
        9.24323600167146        2.36977790429142        4.00317753204027      h
        0.73466393264684        4.54740392416775      -14.78658999387033      o
        1.25962778105793        2.91741328265121      -14.12788705527645      h
       -1.05161756459602        4.37360743411048      -15.17611262528537      h
      -14.20599524193226       -5.36933585638025       -5.16003429587841      o
      -15.89851436699832       -4.78406772864233       -4.75613928364611      h
      -13.14771365232210       -4.96367768826443       -3.70588980732298      h
       -7.59436732031926        5.66810115706705        8.43827666688016      o
       -7.11574871150098        4.16302633507164        9.35260632268902      h
       -7.37336937399594        7.08280363559381        9.59911160959766      h
        5.49285307460199       -9.47922422043709        2.47272181763478      o
        5.74729858025364      -11.28071923082783        2.26771016029685      h
        7.05838029926351       -8.68528096634496        1.90980252590863      h
       -5.10267722123104      -15.93775191303458        4.73214730938750      o
       -5.05357134923081      -15.11330857868007        6.36727362094368      h
       -6.82063987444942      -15.78400000351287        4.13161014250480      h
        4.55420708496791        0.13766512869032       -6.82872385937362      o
        3.64086983140364        1.55858685896647       -7.59973158861634      h
        3.93458453031181       -1.38528257449515       -7.65089812495069      h
        4.90553546273344       -3.65872254148494      -15.83313570881459      o
        5.39860384646923       -4.95496928194110      -14.61601846742086      h
        6.48433365579551       -2.85106873337847      -16.29067984383770      h
       -1.36843757591163       -0.97246763721786        8.29745791400834      o
       -0.13519134212417       -0.08084149005387        7.24057269826658      h
       -0.39406557076793       -2.17078868052701        9.31216705929362      h
       -1.41124285934103      -13.29224098177827       -8.47019160196416      o
       -2.63296225181307      -11.95370915409688       -8.78121290038086      h
       -2.09763115501824      -14.24966723400010       -7.05396256181058      h
        1.69710237511074        2.39999264027397        0.85622562069030      o
        1.75118269159845        3.90799511226137       -0.21329243380711      h
        2.75251106670839        1.17196528342960       -0.04673312851791      h
       -2.04426294791725      -10.12617897489296       -2.32228003334804      o
       -2.29598685835202      -10.19996363997240       -0.51272853220977      h
       -3.22837011722119       -8.91680248353469       -2.98885559519351      h
        9.46234223160633       -9.73483639829772        6.24269104666102      o
       10.02583198907443      -10.69051850432874        4.77051876737837      h
        8.25876087173260      -10.83334291480781        7.09975251072574      h
       -6.76096461420159       -1.79021662570815      -11.11505649562215      o
       -7.26183455483271       -3.57617376359051      -11.31194977104529      h
       -5.80392584216432       -1.71956358857881       -9.52018641126138      h
      -11.66704221379611       -9.67995883364078        0.80217292481311      o
      -12.23033972945145       -8.46501925611659       -0.42460697139810      h
      -10.71872894972651       -8.68592966504394        2.05350997055596      h
       -1.84869071867591        1.75699877579962      -10.20588791287165      o
       -0.21596392596029        2.58052060192470       -9.92158229210470      h
       -1.77996300351213        0.86923499698362      -11.80651837836156      h
      -21.25506203969758        8.27745347200416       -0.11094169863643      o
      -20.42235236128360        9.79315393692640        0.45082317992870      h
      -21.63174644579449        8.59775448987046       -1.92295760876550      h
        5.92928143869679      -10.12781323106217       12.75743531458440      o
        6.25960783348707      -11.47421411967041       11.57063912723593      h
        6.66715504763152       -8.61401922883410       12.02285282855905      h
        1.50416360104902        3.72526650426896       15.91852401991484      o
       -0.32085428424562        3.77023831012736       15.91048114558196      h
        2.01207199530823        4.84708016270301       14.54883850224288      h
        5.03664897089750       -0.04337018449861       -1.80528377353191      o
        6.28871119216184        1.28159405130036       -1.47312228250284      h
        4.77443431582780       -0.05882631653526       -3.63262095370461      h
       10.06816689874641        8.01447476729157        2.14156060711488      o
       11.58072686343507        8.34054284040812        1.15941824768267      h
       10.06453404044643        9.26732603986173        3.48481308795797      h
      -10.27538981927966        1.55413340399794       -9.53572620524032      o
       -9.02723960908554        0.39769513603041      -10.26763119110335      h
      -11.79401190746365        1.39803900057950      -10.51106618357191      h
       10.87738735465845      -12.99755236799338        2.55601521331230      o
       11.22937891057799      -12.68291928152763        0.78052162105669      h
       12.53447472117754      -13.01225312799733        3.37847359730061      h
       -4.30480556250104        3.62138076001191      -15.18363527185564      o
       -4.03148157689375        1.80947438330849      -15.24485082428087      h
       -5.81737679015571        3.96263104049473      -16.11426700723946      h
        8.41616309684438       -3.37915818265807       -8.58118834074198      o
        7.52080069956090       -3.52748204977472       -6.95382102700356      h
        7.95479008565801       -4.85005153339348       -9.54257011176615      h
      -15.52576393664382       -6.21212570281798        5.68606668906766      o
      -15.41228007718576       -8.07210781562675        5.42139748314172      h
      -17.13045578999800       -5.86208327508079        6.48441273251453      h
      -18.49575120084030       -3.03377999800045       -3.88705318932020      o
      -19.88363324871260       -3.26179980844555       -2.69160780755979      h
      -17.45604913787350       -1.60438918009937       -3.32060115508295      h
      -17.46580313731118       -8.91185902999409       -1.88549678307282      o
      -17.33376663313314       -8.62829031542347       -3.70146973510326      h
      -16.96038071250367       -7.35394228845983       -1.04517394359939      h
      -17.46407485555934       12.07357534770921        0.24868548301544      o
      -16.24114850513721       13.38649309911638        0.70014651083321      h
      -17.39144614415225       11.96531725437550       -1.59295806115900      h
       -9.20051994958053       13.87171711290870       -0.47306617766277      o
       -8.37819661449191       14.63727846090940       -1.90941176232645      h
       -9.80407585163339       12.24151204474586       -1.11960863133038      h
       -6.71585320067755        8.93386269829223        0.11182965798297      o
       -7.02048031655850        9.17810045994788       -1.68872459826233      h
       -5.48524340482797        7.55177772018919        0.22601922331311      h
       -1.93255026226558        8.92887732554100       12.88154713998644      o
       -0.39047297042939        8.03183167300175       12.42186628616642      h
       -1.64902781461574       10.62502649717627       12.25699485140520      h
        1.81764871358675        9.69849239118702        7.34083336309990      o
        3.57910816764588       10.14070171855068        7.61751588891016      h
        0.81660458973393       10.93987254781109        8.27105926584761      h
        0.09621937967297        9.02756375510681      -12.31485971487236      o
        0.34403820563870        7.43061721378684      -13.20984293977495      h
        1.71122763930935        9.87899674524818      -12.27100878011997      h
        5.51153302637870        5.71105204008990      -13.02821696269114      o
        4.28966146239779        5.44967009391156      -14.34945631375073      h
        5.36818413379916        7.48389528888544      -12.49443033909116      h
        8.07929009156327        3.87618173161916       -1.08842182692366      o
        9.84176767667465        3.67740697909101       -0.54035388463222      h
        8.19827601019666        4.14968898096543       -2.91066420635610      h
        4.97609487169319       10.23249517978605      -10.87824269470840      o
        6.51084555806568       11.20075206065951      -10.94580075436504      h
        5.06677862518029        9.33124257437205       -9.24701697101982      h
       -2.51210970345923       13.66874393279853       -7.51948577042072      o
       -3.21775971571412       12.15491764291294       -8.28843539686832      h
       -0.70056206743396       13.43647084305946       -7.44320788501070      h
       -9.56862712581669       -6.61060028088875        4.14419025923030      o
       -7.82202103884492       -6.00660031007340        4.03135911527913      h
      -10.60191637655869       -5.10438565859936        3.98614856012471      h
        2.09599487703804      -13.01067156438465       -0.89948308001429      o
        3.56392667137784      -13.59156819512473        0.00694393859399      h
        0.65827749249975      -13.84389987789995       -0.10367862330596      h
       14.21981873447077       -4.86886445272064       -1.34014655938940      o
       13.47882368887235       -4.68002783452859       -3.02376651766623      h
       15.74348533438661       -3.80297697732439       -1.36606140312927      h
        3.72452453758447       -8.05410476972942        7.01645539530577      o
        4.92864896499743       -7.18629815763499        8.10053208824803      h
        4.49747924013104       -8.27231272145131        5.35853029171958      h
        7.87051962928082       14.60359000441322       -0.00635383802749      o
        7.89225912863336       14.12997560250303       -1.77260599198897      h
        9.61205517220792       14.53680031073191        0.53160001036118      h
      -12.88260180662376       -1.82186801657923       12.87536394949475      o
      -12.68236440658840       -3.02525902548716       11.48669563843791      h
      -14.10363977242585       -0.61049734998756       12.28978140557313      h
      -12.28101686493257       -3.89549382053838      -14.14836699464395      o
      -12.83386951983009       -3.50233259399535      -12.41714419663798      h
      -13.70818128390763       -4.62939944414961      -14.98070723844294      h
       -7.59440837820509       13.99825772218368       -5.52641229953371      o
       -6.25444474050123       14.68918046365316       -6.53429504812937      h
       -7.17119799119892       12.21009466336422       -5.30382603156595      h
      -12.13243313609630       12.29849982386414       -7.14120052061171      o
      -10.71898147759256       13.36694535834292       -6.62876262842438      h
      -11.63081967259416       11.61605940757959       -8.75791601343670      h
        8.02815469678072        0.85794086332459        8.95136131019713      o
        6.58819035629417       -0.17874985558084        8.47799314883722      h
        7.43612334683717        2.59221926788556        8.82052609989356      h
       -9.13985899148759       -5.80570042049616       -6.56217409323193      o
       -9.78844312754161       -4.12404943099894       -6.13586615872421      h
      -10.45874253799235       -6.99829544470580       -6.13143917295181      h
        1.54745691113475       -9.57952493064671      -11.13536456385430      o
        1.06328910505032       -8.86610620173318       -9.49711237195091      h
        0.90122817239067      -11.27565960884004      -11.10187567111416      h
        3.03134279485399       -8.29299987001489       -2.37944123618933      o
        3.32633348568212       -6.99427007048413       -1.10670133803515      h
        2.10829296349576       -9.66654327304414       -1.57878307129107      h
      -10.56670182785748        7.84634533578514        3.01923252975482      o
       -9.17878271790967        8.49244450167898        1.93955858175168      h
      -12.07729476678638        7.79044523700858        1.94830422758317      h
      -13.74364090890290       -3.03084026703527       -9.48246302174257      o
      -13.66715303734047       -3.97171771648084       -7.86831958067118      h
      -14.43997221895259       -1.37305546840939       -9.03648104890583      h
      -21.58767216943133        9.19883079743094       -4.96842131897102      o
      -20.03756746690578       10.15457454237363       -5.15542406244124      h
      -21.27201286351257        7.58469826330011       -5.81772998427953      h
       10.74025089211023       11.63609838790453        5.73744507293515      o
       12.19695707068046       11.08354265922056        6.69024644501272      h
       11.39557964074452       12.59972004900752        4.31794931929492      h
      -10.58649587172366        6.57038532759513       -7.64010118707296      o
      -10.42564743126002        7.77466677631144       -9.02876882256790      h
      -10.46851895374299        4.90350620640504       -8.38495690272490      h
        2.77616707698882        6.98584180185721       12.01889650757847      o
        3.96524395378611        8.19284411994283       12.66838237928323      h
        3.61362299619536        6.23115927657233       10.55254149771415      h
        7.55778833579969        0.68194931770512      -11.42156235076885      o
        5.78073678638940        0.86540931105002      -11.86885000103668      h
        7.66880394085542       -0.76401991650056      -10.26284351617782      h
       -3.58279044946078       -9.94719609588213       13.09149553951499      o
       -4.16584339073896      -11.29599633872863       12.00461648786951      h
       -1.75518672420372       -9.88642502778542       12.87932996251631      h
       10.35241775203200        7.60427699198807       -4.35123516362779      o
       11.22916258949574        6.24963882726427       -5.20864194523314      h
       11.59288214009246        8.22547173417651       -3.13634474277550      h
      -11.52843663254918       -4.58964090711617       -0.93006149489072      o
      -10.78805914885103       -2.91947707762363       -0.75940359814080      h
      -13.14473923123387       -4.53114005749229       -0.00846474090905      h
       18.43193196529434        5.21523395524160        8.31833516902288      o
       17.17625195761283        4.41324123432344        7.18588358709457      h
       19.96529987550499        5.29119261833254        7.34475260727977      h
      -18.00654727567060       -0.14016943547035        2.00802218296250      o
      -18.05734682646701        1.53931800111190        1.24610137914623      h
      -17.17250857624120        0.03829267890155        3.64867578682266      h
      -12.39181690403596        5.12723678640786        7.05492065965880      o
      -11.44433281506006        5.91532060239836        5.70219872070069      h
      -12.17457829385596        6.21878443774109        8.51422796512175      h
      -14.76077318156650        7.83623327728844        0.26026838625335      o
      -15.87418339990372        9.29424263828238        0.49503005590304      h
      -15.83383235270111        6.41232511049513       -0.19127683396829      h
      -11.32612319942799        3.81436338514757       13.18748866230976      o
      -11.79314147550612        2.74741089554584       14.57298906721477      h
       -9.67000846540407        3.18443606439052       12.58780802372133      h
       -3.23187455125880       -5.08636817519326       11.47536469386188      o
       -2.78342116533845       -3.97934357023798       12.87664021504286      h
       -3.64073441118905       -6.73645512847272       12.19409979578307      h
        1.18862065784213       -9.06668957902846       11.50302593633273      o
        2.81903780068003       -9.61534507359429       12.20209114390167      h
        1.32246498215122       -7.23309125603646       11.40297266175038      h
       -4.54690164824029        9.61184348680661      -10.10287376842574      o
       -3.22185498390904        9.62471740660307      -11.35854855365445      h
       -4.94147907470449        7.81228615076416       -9.82397526870496      h
        6.26015971340707        9.01429645900562       -1.54851639996301      o
        7.86054375844827        8.15454702910130       -1.34045741024468      h
        5.91122384869682        9.86376188803256        0.05948141064227      h
        8.66703564548139        2.92741517615826       -6.09465404787104      o
       10.03471614709875        1.79318693570015       -5.58342373460863      h
        7.25534090882879        1.85673237811176       -6.57433696546324      h
        3.05684755123940       15.45848534534942        7.43207824633701      o
        4.27289292419608       14.15199551110019        7.90453429707244      h
        3.98378837122270       17.00454787135147        7.30630456456158      h
        8.00667942308769        8.41394865909163       12.40678660228202      o
        7.58670893019920        6.74700271606174       13.08828591519762      h
        9.58345094137380        8.13395637390247       11.53633188602866      h
       11.07384025590303        6.45788450092556        8.63765229878265      o
       10.89392507966129        5.25354726278235        7.24235269180291      h
       12.59505069756560        7.42360863295861        8.27423370044343      h
       10.06506959671775       -7.61815353894835        0.81681976432751      o
        9.99247103418588       -5.87617768571052        0.20429865127233      h
        9.73479861795243       -8.69062373957827       -0.63350468989210      h
       14.24448219789548       -6.99674746699219        3.58502998919519      o
       12.76582608236094       -7.17492173019814        2.48230146756598      h
       13.65623581859247       -6.55792409088074        5.25715528761049      h
       22.16106417063666        1.01915717561814       -4.89475585834172      o
       22.42531876785008        0.68731441199832       -3.05774743023740      h
       23.64931091993977        1.86347193679878       -5.47267690584202      h
       -4.54551545431339        7.46728235261355        5.07763549817231      o
       -4.42337086555682        6.50182073148908        3.53969390899568      h
       -5.87907667082848        6.69926830717874        6.12643748959111      h
        9.99086596011143       10.60669861379845       -9.21489690940076      o
       11.75889536616145       10.75475530977593       -8.79506849518911      h
        9.76337036516153        8.78425448326761       -9.51659154193334      h
      -18.17264928352391       -5.36673092093291      -10.46684293708057      o
      -16.51857536169922       -4.55770327280787      -10.29499049713427      h
      -19.36678548111211       -4.09880947168903       -9.91863982779335      h
        6.82106428892674        3.58970536621295       13.86185621637663      o
        5.56535637699569        2.85472912819086       12.68887986323961      h
        6.11461363607840        3.41410053807341       15.51844868767876      h
      -14.43611553755233        5.19045166019691      -11.21680030621243      o
      -15.82226299842200        6.29956866929339      -11.54757300644734      h
      -15.08053051409006        3.89089340120221      -10.06763888834041      h
       -6.91511773824424       -3.22247368794011        8.55432437006283      o
       -5.60258001203416       -3.75677799646830        9.73826481072929      h
       -7.61822320445543       -1.64017281639341        9.11618373226934      h
      -15.03558312880364        5.98131270020084       -5.27735448212318      o
      -14.19051779530280        5.13753600126354       -3.88283986182416      h
      -13.65509004034509        6.30283150961402       -6.46498142248339      h
       -2.57331158410901       -4.89519845070499      -10.22307577653421      o
       -1.71705670099208       -5.26728513995426      -11.79626942340185      h
       -1.62107682763991       -3.59082839538892       -9.40248437244347      h
        4.33715803150359       -4.48385749909382        0.86251121353876      o
        5.75445742150757       -4.72464745537347        2.00300019392636      h
        4.61137634485690       -2.92070604772675       -0.06381643137746      h
      -19.95997497472806        4.66836696459584       -6.64384024268150      o
      -20.73061255579269        3.52969688513674       -5.43679527026524      h
      -18.22761345281211        4.95886121240489       -6.10283919702211      h
       18.30447477713280       -5.40551332231708        8.46951442622218      o
       18.76039593008983       -3.69723240828106        8.92598186758726      h
       16.50267278549009       -5.54007388279954        8.72625108021737      h
       11.38467585644563       -1.95431546151812        6.56053065677059      o
       10.20077260538507       -0.65583921463137        7.14697840436372      h
       12.61600974388654       -1.97354701408830        7.95700482385527      h
       18.26660655504919       -2.05771521607038       -1.90801389577028      o
       17.81633359698664       -1.66306577609883       -3.66711610245860      h
       19.52634606974899       -3.39884725810568       -2.02183332802326      h
       19.18750860156429       -5.85432816425085        3.53192352351179      o
       17.43435728946491       -6.20169869582218        3.07613698366413      h
       19.16090502566288       -5.87962915999203        5.38833132927889      h
        9.87193154011138        5.66222677218328      -10.19707136622215      o
        9.39200874088877        4.74649853189444       -8.65367557007366      h
        8.52823187129361        5.32555096056082      -11.38644893660360      h
        2.48777215539285       15.02209816272852       -1.17457086327889      o
        4.22534342443000       15.46347027912797       -0.88564743768194      h
        1.87700517478570       14.28452442419728        0.41286220047661      h
        2.62796116427798       -1.25663146845308       15.41320758662668      o
        1.20659130439535       -2.04015714639721       16.22658417445913      h
        2.31936466658022        0.56575453166694       15.56743438351986      h
       15.36767925080721      -11.84701942597145        4.38061368357782      o
       16.05699910159109      -11.89682327128605        6.09497101538637      h
       15.06818472244977      -10.03937876488074        4.05045698902316      h
       12.79967730056241       -4.71287514963999       -6.16199580704091      o
       11.41961742648710       -3.97576784818874       -7.11894617390952      h
       12.54169937120908       -6.52707412520890       -6.24017679161079      h
        7.39872444196779       -2.11753565583073       13.21701475701223      o
        7.73437169201327       -0.71980620444196       12.06373358277124      h
        5.86710418830583       -1.72078563806691       14.13175759120605      h
        6.38500538421552       11.58459404340268        8.58530098817760      o
        7.83541356707558       11.64472117528642        7.45905443140283      h
        6.93100892335851       10.69542192818615       10.09832741471837      h
        0.85578501255804       13.11419106198535        3.21227279324180      o
        1.15169175731238       14.14634334910660        4.68807336959385      h
       -0.98775094020354       12.89369184212495        3.00914603662506      h
        0.81259416589533        7.74339117065998        2.71848020435113      o
        0.80360904397119        8.69142928420528        4.28695938956556      h
        2.38697125477359        6.79718494422595        2.73079728955204      h
        5.55888755140933       11.06991271959802        2.96726992293613      o
        6.45126998465541       12.55591221266720        2.36455387349715      h
        3.80345803029775       11.56051435109033        3.20803786050668      h
       12.99683935794897        3.10208656244661       -0.33314518052015      o
       13.30514288463690        1.76834484156965        0.90982102707996      h
       12.91752893047588        2.19900831472025       -1.94753698599847      h
       -0.99711661871528       13.08310476984417        9.85946287506935      o
       -0.04066700674152       14.53778219570007        9.32971744798587      h
       -2.54545462572235       13.00823956229382        8.82981303051160      h
      -17.21750995026092        7.31153970203244        9.72538051221128      o
      -15.81742496267175        8.15972349341478       10.51771010266059      h
      -17.49922686209371        8.18578051407752        8.14156592141655      h
       -3.93945354341115        4.93891298580523       15.58803064081088      o
       -4.66340736655818        5.58020325231097       17.11484634487050      h
       -3.30610214259877        6.38691554999563       14.65078637147258      h
      -13.70435409053243       15.22773283795212        1.47102307288844      o
      -12.07889027979943       14.88128064081937        0.65142312294330      h
      -13.30798097823971       15.98187319500665        3.06718939925238      h
       12.15514700215570        0.00291930250675       -4.07734200124431      o
       13.53401917629950       -0.70040291262670       -5.07239845000260      h
       11.41100096099801       -1.30864220374699       -3.01963620942249      h
[...]
   385   8 o      387   1 h                                       0.9557092
   388   8 o      389   1 h                                       0.9630880
   388   8 o      390   1 h                                       0.9854947
   391   8 o      392   1 h                                       0.9648027
   391   8 o      393   1 h                                       0.9849063
   394   8 o      395   1 h                                       0.9786231
   394   8 o      396   1 h                                       0.9662540
   397   8 o      398   1 h                                       0.9889905
   397   8 o      399   1 h                                       0.9575343
   400   8 o      401   1 h                                       0.9555945 (min)
   400   8 o      402   1 h                                       0.9792917
   403   8 o      404   1 h                                       0.9771816
   403   8 o      405   1 h                                       0.9632944
   406   8 o      407   1 h                                       0.9715507
   406   8 o      408   1 h                                       0.9785621
   409   8 o      410   1 h                                       0.9680559
   409   8 o      411   1 h                                       0.9586003
   412   8 o      413   1 h                                       0.9710702
   412   8 o      414   1 h                                       0.9724085
   415   8 o      416   1 h                                       0.9681788
   415   8 o      417   1 h                                       0.9726136
   418   8 o      419   1 h                                       0.9663029
   418   8 o      420   1 h                                       0.9657319
   421   8 o      422   1 h                                       0.9802769
   421   8 o      423   1 h                                       0.9852782
   424   8 o      425   1 h                                       0.9833211
   424   8 o      426   1 h                                       0.9755442
   427   8 o      428   1 h                                       0.9760340
   427   8 o      429   1 h                                       0.9825609
   430   8 o      431   1 h                                       0.9830391
   430   8 o      432   1 h                                       0.9661650
   433   8 o      434   1 h                                       0.9609253
   433   8 o      435   1 h                                       0.9810488
   436   8 o      437   1 h                                       0.9606843
   436   8 o      438   1 h                                       0.9814931
   439   8 o      440   1 h                                       0.9781428
   439   8 o      441   1 h                                       0.9852174
   442   8 o      443   1 h                                       0.9705241
   442   8 o      444   1 h                                       0.9705727
   445   8 o      446   1 h                                       0.9752328
   445   8 o      447   1 h                                       0.9671104
   448   8 o      449   1 h                                       0.9722659
   448   8 o      450   1 h                                       0.9725921
   451   8 o      452   1 h                                       0.9657864
   451   8 o      453   1 h                                       0.9883730
   454   8 o      455   1 h                                       0.9698513
   454   8 o      456   1 h                                       0.9720341
   457   8 o      458   1 h                                       0.9711243
   457   8 o      459   1 h                                       0.9729082
   460   8 o      461   1 h                                       0.9784605
   460   8 o      462   1 h                                       0.9797787
   463   8 o      464   1 h                                       0.9629736
   463   8 o      465   1 h                                       0.9847723
   466   8 o      467   1 h                                       0.9623813
   466   8 o      468   1 h                                       0.9688613
   469   8 o      470   1 h                                       0.9564106
   469   8 o      471   1 h                                       0.9723439
   472   8 o      473   1 h                                       0.9806078
   472   8 o      474   1 h                                       0.9574433
   475   8 o      476   1 h                                       0.9737563
   475   8 o      477   1 h                                       0.9747049
   478   8 o      479   1 h                                       0.9837362
   478   8 o      480   1 h                                       0.9667757
   481   8 o      482   1 h                                       0.9672451
   481   8 o      483   1 h                                       0.9676258
   484   8 o      485   1 h                                       0.9891870
   484   8 o      486   1 h                                       0.9556799
   487   8 o      488   1 h                                       0.9677550
   487   8 o      489   1 h                                       0.9706173
   490   8 o      491   1 h                                       0.9652821
   490   8 o      492   1 h                                       0.9768358
   493   8 o      494   1 h                                       0.9700309
   493   8 o      495   1 h                                       0.9776910
   496   8 o      497   1 h                                       0.9565741
   496   8 o      498   1 h                                       0.9847334
   499   8 o      500   1 h                                       0.9884136
   499   8 o      501   1 h                                       0.9764901
   502   8 o      503   1 h                                       0.9813668
   502   8 o      504   1 h                                       0.9721075
   505   8 o      506   1 h                                       0.9772896
   505   8 o      507   1 h                                       0.9637773
   508   8 o      509   1 h                                       0.9672634
   508   8 o      510   1 h                                       0.9783360
   511   8 o      512   1 h                                       0.9791743
   511   8 o      513   1 h                                       0.9636798
   514   8 o      515   1 h                                       0.9768633
   514   8 o      516   1 h                                       0.9713912
   517   8 o      518   1 h                                       0.9695287
   517   8 o      519   1 h                                       0.9640091
   520   8 o      521   1 h                                       0.9839794
   520   8 o      522   1 h                                       0.9563671
   523   8 o      524   1 h                                       0.9851010
   523   8 o      525   1 h                                       0.9564499
   526   8 o      527   1 h                                       0.9829032
   526   8 o      528   1 h                                       0.9671197
   529   8 o      530   1 h                                       0.9734810
   529   8 o      531   1 h                                       0.9709650
   532   8 o      533   1 h                                       0.9562639
   532   8 o      534   1 h                                       0.9863199
   535   8 o      536   1 h                                       0.9654811
   535   8 o      537   1 h                                       0.9745359
   538   8 o      539   1 h                                       0.9733061
   538   8 o      540   1 h                                       0.9601386
   541   8 o      542   1 h                                       0.9716264
   541   8 o      543   1 h                                       0.9743064
   544   8 o      545   1 h                                       0.9705634
   544   8 o      546   1 h                                       0.9805898
   547   8 o      548   1 h                                       0.9814378
   547   8 o      549   1 h                                       0.9811253
   550   8 o      551   1 h                                       0.9636536
   550   8 o      552   1 h                                       0.9853814
   553   8 o      554   1 h                                       0.9822983
   553   8 o      555   1 h                                       0.9825072
   556   8 o      557   1 h                                       0.9758137
   556   8 o      558   1 h                                       0.9833630
   559   8 o      560   1 h                                       0.9862351
   559   8 o      561   1 h                                       0.9742655
   562   8 o      563   1 h                                       0.9757451
   562   8 o      564   1 h                                       0.9689296
   565   8 o      566   1 h                                       0.9747870
   565   8 o      567   1 h                                       0.9772603
   568   8 o      569   1 h                                       0.9762655
   568   8 o      570   1 h                                       0.9754195
   571   8 o      572   1 h                                       0.9645214
   571   8 o      573   1 h                                       0.9676354
   574   8 o      575   1 h                                       0.9662751
   574   8 o      576   1 h                                       0.9728400
   577   8 o      578   1 h                                       0.9770452
   577   8 o      579   1 h                                       0.9631239
   580   8 o      581   1 h                                       0.9611114
   580   8 o      582   1 h                                       0.9949634
   583   8 o      584   1 h                                       0.9668216
   583   8 o      585   1 h                                       0.9592993
   586   8 o      587   1 h                                       0.9590196
   586   8 o      588   1 h                                       0.9999673 (max)
   589   8 o      590   1 h                                       0.9729862
   589   8 o      591   1 h                                       0.9850706
   592   8 o      593   1 h                                       0.9770491
   592   8 o      594   1 h                                       0.9771370
   595   8 o      596   1 h                                       0.9578141
   595   8 o      597   1 h                                       0.9918859
   598   8 o      599   1 h                                       0.9798093
   598   8 o      600   1 h                                       0.9672927
   601   8 o      602   1 h                                       0.9621290
   601   8 o      603   1 h                                       0.9793470
   604   8 o      605   1 h                                       0.9806345
   604   8 o      606   1 h                                       0.9785096
   607   8 o      608   1 h                                       0.9754673
   607   8 o      609   1 h                                       0.9732317
   610   8 o      611   1 h                                       0.9674479
   610   8 o      612   1 h                                       0.9803744
   613   8 o      614   1 h                                       0.9701201
   613   8 o      615   1 h                                       0.9705563
   616   8 o      617   1 h                                       0.9859462
   616   8 o      618   1 h                                       0.9567600
   619   8 o      620   1 h                                       0.9660025
   619   8 o      621   1 h                                       0.9681074
   622   8 o      623   1 h                                       0.9556342
   622   8 o      624   1 h                                       0.9811057
   625   8 o      626   1 h                                       0.9987728
   625   8 o      627   1 h                                       0.9560059
   628   8 o      629   1 h                                       0.9810032
   628   8 o      630   1 h                                       0.9701505
   631   8 o      632   1 h                                       0.9811577
   631   8 o      633   1 h                                       0.9740967
   634   8 o      635   1 h                                       0.9765160
   634   8 o      636   1 h                                       0.9709406
   637   8 o      638   1 h                                       0.9725790
   637   8 o      639   1 h                                       0.9715143
   640   8 o      641   1 h                                       0.9811478
   640   8 o      642   1 h                                       0.9703001
   643   8 o      644   1 h                                       0.9662546
   643   8 o      645   1 h                                       0.9730207
   646   8 o      647   1 h                                       0.9671490
   646   8 o      648   1 h                                       0.9811317
   649   8 o      650   1 h                                       0.9841128
   649   8 o      651   1 h                                       0.9564431
   652   8 o      653   1 h                                       0.9564016
   652   8 o      654   1 h                                       0.9826520
   655   8 o      656   1 h                                       0.9753794
   655   8 o      657   1 h                                       0.9803767
   658   8 o      659   1 h                                       0.9779422
   658   8 o      660   1 h                                       0.9687813
   661   8 o      662   1 h                                       0.9759636
   661   8 o      663   1 h                                       0.9712439
   664   8 o      665   1 h                                       0.9658609
   664   8 o      666   1 h                                       0.9796857
   667   8 o      668   1 h                                       0.9720889
   667   8 o      669   1 h                                       0.9704242
   670   8 o      671   1 h                                       0.9747359
   670   8 o      672   1 h                                       0.9760940
   673   8 o      674   1 h                                       0.9668853
   673   8 o      675   1 h                                       0.9762091
   676   8 o      677   1 h                                       0.9623098
   676   8 o      678   1 h                                       0.9707939
   679   8 o      680   1 h                                       0.9763768
   679   8 o      681   1 h                                       0.9850147
   682   8 o      683   1 h                                       0.9741516
   682   8 o      684   1 h                                       0.9753307
   685   8 o      686   1 h                                       0.9732785
   685   8 o      687   1 h                                       0.9756131
   688   8 o      689   1 h                                       0.9713922
   688   8 o      690   1 h                                       0.9716420
   691   8 o      692   1 h                                       0.9682059
   691   8 o      693   1 h                                       0.9803408
   694   8 o      695   1 h                                       0.9728226
   694   8 o      696   1 h                                       0.9733625
   697   8 o      698   1 h                                       0.9748529
   697   8 o      699   1 h                                       0.9705520
   700   8 o      701   1 h                                       0.9819584
   700   8 o      702   1 h                                       0.9709432
   703   8 o      704   1 h                                       0.9731880
   703   8 o      705   1 h                                       0.9654953
   706   8 o      707   1 h                                       0.9721291
   706   8 o      708   1 h                                       0.9680976
   709   8 o      710   1 h                                       0.9558069
   709   8 o      711   1 h                                       0.9766919
   712   8 o      713   1 h                                       0.9880871
   712   8 o      714   1 h                                       0.9677993
   715   8 o      716   1 h                                       0.9870339
   715   8 o      717   1 h                                       0.9635025
   718   8 o      719   1 h                                       0.9746435
   718   8 o      720   1 h                                       0.9732842
   721   8 o      722   1 h                                       0.9655577
   721   8 o      723   1 h                                       0.9710753
   724   8 o      725   1 h                                       0.9727616
   724   8 o      726   1 h                                       0.9806040
   727   8 o      728   1 h                                       0.9720628
   727   8 o      729   1 h                                       0.9672629
   730   8 o      731   1 h                                       0.9815780
   730   8 o      732   1 h                                       0.9740646
   733   8 o      734   1 h                                       0.9721182
   733   8 o      735   1 h                                       0.9622845
   736   8 o      737   1 h                                       0.9750797
   736   8 o      738   1 h                                       0.9619864
   739   8 o      740   1 h                                       0.9596380
   739   8 o      741   1 h                                       0.9745381
   742   8 o      743   1 h                                       0.9894548
   742   8 o      744   1 h                                       0.9583376
   745   8 o      746   1 h                                       0.9709020
   745   8 o      747   1 h                                       0.9783247
   748   8 o      749   1 h                                       0.9690867
   748   8 o      750   1 h                                       0.9758463
   751   8 o      752   1 h                                       0.9892081
   751   8 o      753   1 h                                       0.9715023
   754   8 o      755   1 h                                       0.9610386
   754   8 o      756   1 h                                       0.9649949

 * 1 distinct bonds (by element types)

   Z      Z             #   av. dist./Å        max./Å        min./Å
   1 H    8 O         504     0.9734480     0.9999673     0.9555945


optimized geometry written to: xtbopt.coord


           -------------------------------------------------
          | TOTAL ENERGY            -1283.315774798699 Eh   |
          | GRADIENT NORM               0.004687895149 Eh/α |
          | HOMO-LUMO GAP               6.429976123346 eV   |
           -------------------------------------------------

------------------------------------------------------------------------
 * finished run on 2022/11/24 at 12:13:17.036     
------------------------------------------------------------------------
 total:
 * wall-time:     0 d,  0 h,  8 min, 33.039 sec
 *  cpu-time:     0 d,  0 h, 12 min, 40.497 sec
 * ratio c/w:     1.482 speedup
 SCF:
 * wall-time:     0 d,  0 h,  0 min, 21.086 sec
 *  cpu-time:     0 d,  0 h,  0 min, 33.919 sec
 * ratio c/w:     1.609 speedup
 ANC optimizer:
 * wall-time:     0 d,  0 h,  8 min, 10.920 sec
 *  cpu-time:     0 d,  0 h, 12 min,  4.850 sec
 * ratio c/w:     1.477 speedup

