      -----------------------------------------------------------      
     |                   =====================                   |     
     |                           x T B                           |     
     |                   =====================                   |     
     |                         S. Grimme                         |     
     |          Mulliken Center for Theoretical Chemistry        |     
     |                    University of Bonn                     |     
      -----------------------------------------------------------      

   * xtb version 6.5.1 (579679a) compiled by 'ehlert@majestix' on 2022-07-11

   xtb is free software: you can redistribute it and/or modify it under
   the terms of the GNU Lesser General Public License as published by
   the Free Software Foundation, either version 3 of the License, or
   (at your option) any later version.
   
   xtb is distributed in the hope that it will be useful,
   but WITHOUT ANY WARRANTY; without even the implied warranty of
   MERCHANTABILITY or FITNESS FOR A PARTICULAR PURPOSE.  See the
   GNU Lesser General Public License for more details.
   
   Cite this work as:
   * C. Bannwarth, E. Caldeweyher, S. Ehlert, A. Hansen, P. Pracht,
     J. Seibert, S. Spicher, S. Grimme, WIREs Comput. Mol. Sci., 2020, 11,
     e01493. DOI: 10.1002/wcms.1493
   
   for GFN2-xTB:
   * C. Bannwarth, S. Ehlert and S. Grimme., J. Chem. Theory Comput., 2019,
     15, 1652-1671. DOI: 10.1021/acs.jctc.8b01176
   for GFN1-xTB:
   * S. Grimme, C. Bannwarth, P. Shushkov, J. Chem. Theory Comput., 2017,
     13, 1989-2009. DOI: 10.1021/acs.jctc.7b00118
   for GFN0-xTB:
   * P. Pracht, E. Caldeweyher, S. Ehlert, S. Grimme, ChemRxiv, 2019, preprint.
     DOI: 10.26434/chemrxiv.8326202.v1
   for GFN-FF:
   * S. Spicher and S. Grimme, Angew. Chem. Int. Ed., 2020, 59, 15665-15673.
     DOI: 10.1002/anie.202004239
   
   for ALPB and GBSA implicit solvation:
   * S. Ehlert, M. Stahn, S. Spicher, S. Grimme, J. Chem. Theory Comput.,
     2021, 17, 4250-4261. DOI: 10.1021/acs.jctc.1c00471
   
   for DFT-D4:
   * E. Caldeweyher, C. Bannwarth and S. Grimme, J. Chem. Phys., 2017,
     147, 034112. DOI: 10.1063/1.4993215
   * E. Caldeweyher, S. Ehlert, A. Hansen, H. Neugebauer, S. Spicher,
     C. Bannwarth and S. Grimme, J. Chem. Phys., 2019, 150, 154122.
     DOI: 10.1063/1.5090222
   * E. Caldeweyher, J.-M. Mewes, S. Ehlert and S. Grimme, Phys. Chem. Chem. Phys.
     2020, 22, 8499-8512. DOI: 10.1039/D0CP00502A
   
   for sTDA-xTB:
   * S. Grimme and C. Bannwarth, J. Chem. Phys., 2016, 145, 054103.
     DOI: 10.1063/1.4959605
   
   in the mass-spec context:
   * V. Asgeirsson, C. Bauer and S. Grimme, Chem. Sci., 2017, 8, 4879.
     DOI: 10.1039/c7sc00601b
   * J. Koopman and S. Grimme, ACS Omega 2019, 4, 12, 15120-15133.
     DOI: 10.1021/acsomega.9b02011
   
   for metadynamics refer to:
   * S. Grimme, J. Chem. Theory Comput., 2019, 155, 2847-2862
     DOI: 10.1021/acs.jctc.9b00143
   
   for SPH calculations refer to:
   * S. Spicher and S. Grimme, J. Chem. Theory Comput., 2021, 17, 1701-1714
     DOI: 10.1021/acs.jctc.0c01306
   
   with help from (in alphabetical order)
   P. Atkinson, C. Bannwarth, F. Bohle, G. Brandenburg, E. Caldeweyher
   M. Checinski, S. Dohm, S. Ehlert, S. Ehrlich, I. Gerasimov, C. Hölzer
   A. Katbashev, J. Koopman, C. Lavigne, S. Lehtola, F. März, M. Müller,
   F. Musil, H. Neugebauer, J. Pisarek, C. Plett, P. Pracht, F. Pultar,
   J. Seibert, P. Shushkov, S. Spicher, M. Stahn, M. Steiner, T. Strunk,
   J. Stückrath, T. Rose, and J. Unsleber
   
 * started run on 2022/11/24 at 12:21:40.833     

           -------------------------------------------------
          |                Calculation Setup                |
           -------------------------------------------------

          program call               : xtb solvent_cluster.coord --gfn2 --sp --lmo --chrg 0
          hostname                   : cn0430
          coordinate file            : solvent_cluster.coord
          omp threads                :                     2

   ID    Z sym.   atoms
    1    8 o      1, 4, 7, 10, 13, 16, 19, 22, 25, 28, 31, 34, 37, 40, 43,
                  46, 49, 52, 55, 58, 61, 64, 67, 70, 73, 76, 79, 82, 85, 88,
                  91, 94, 97, 100, 103, 106, 109, 112, 115, 118, 121, 124,
                  127, 130, 133, 136, 139, 142, 145, 148, 151, 154, 157, 160,
                  163, 166, 169, 172, 175, 178, 181, 184, 187, 190, 193, 196,
                  199, 202, 205, 208, 211, 214, 217, 220, 223, 226, 229, 232,
                  235, 238, 241, 244, 247, 250, 253, 256, 259, 262, 265, 268,
                  271, 274, 277, 280, 283, 286, 289, 292, 295, 298, 301, 304,
                  307, 310, 313, 316, 319, 322, 325, 328, 331, 334, 337, 340,
                  343, 346, 349, 352, 355, 358, 361, 364, 367, 370, 373, 376,
                  379, 382, 385, 388, 391, 394, 397, 400, 403, 406, 409, 412,
                  415, 418, 421, 424, 427, 430, 433, 436, 439, 442, 445, 448,
                  451, 454, 457, 460, 463, 466, 469, 472, 475, 478, 481, 484,
                  487, 490, 493, 496, 499, 502, 505, 508, 511, 514, 517, 520,
                  523, 526, 529, 532, 535, 538, 541, 544, 547, 550, 553, 556,
                  559, 562, 565, 568, 571, 574, 577, 580, 583, 586, 589, 592,
                  595, 598, 601, 604, 607, 610, 613, 616, 619, 622, 625, 628,
                  631, 634, 637, 640, 643, 646, 649, 652, 655, 658, 661, 664,
                  667, 670, 673, 676, 679, 682, 685, 688, 691, 694, 697, 700,
                  703, 706, 709, 712, 715, 718, 721, 724, 727, 730, 733, 736,
                  739, 742, 745, 748, 751, 754
    2    1 h      2, 3, 5, 6, 8, 9, 11, 12, 14, 15, 17, 18, 20, 21, 23, 24,
                  26, 27, 29, 30, 32, 33, 35, 36, 38, 39, 41, 42, 44, 45, 47,
                  48, 50, 51, 53, 54, 56, 57, 59, 60, 62, 63, 65, 66, 68, 69,
                  71, 72, 74, 75, 77, 78, 80, 81, 83, 84, 86, 87, 89, 90, 92,
                  93, 95, 96, 98, 99, 101, 102, 104, 105, 107, 108, 110, 111,
                  113, 114, 116, 117, 119, 120, 122, 123, 125, 126, 128, 129,
                  131, 132, 134, 135, 137, 138, 140, 141, 143, 144, 146, 147,
                  149, 150, 152, 153, 155, 156, 158, 159, 161, 162, 164, 165,
                  167, 168, 170, 171, 173, 174, 176, 177, 179, 180, 182, 183,
                  185, 186, 188, 189, 191, 192, 194, 195, 197, 198, 200, 201,
                  203, 204, 206, 207, 209, 210, 212, 213, 215, 216, 218, 219,
                  221, 222, 224, 225, 227, 228, 230, 231, 233, 234, 236, 237,
                  239, 240, 242, 243, 245, 246, 248, 249, 251, 252, 254, 255,
                  257, 258, 260, 261, 263, 264, 266, 267, 269, 270, 272, 273,
                  275, 276, 278, 279, 281, 282, 284, 285, 287, 288, 290, 291,
                  293, 294, 296, 297, 299, 300, 302, 303, 305, 306, 308, 309,
                  311, 312, 314, 315, 317, 318, 320, 321, 323, 324, 326, 327,
                  329, 330, 332, 333, 335, 336, 338, 339, 341, 342, 344, 345,
                  347, 348, 350, 351, 353, 354, 356, 357, 359, 360, 362, 363,
                  365, 366, 368, 369, 371, 372, 374, 375, 377, 378, 380, 381,
                  383, 384, 386, 387, 389, 390, 392, 393, 395, 396, 398, 399,
                  401, 402, 404, 405, 407, 408, 410, 411, 413, 414, 416, 417,
                  419, 420, 422, 423, 425, 426, 428, 429, 431, 432, 434, 435,
                  437, 438, 440, 441, 443, 444, 446, 447, 449, 450, 452, 453,
                  455, 456, 458, 459, 461, 462, 464, 465, 467, 468, 470, 471,
                  473, 474, 476, 477, 479, 480, 482, 483, 485, 486, 488, 489,
                  491, 492, 494, 495, 497, 498, 500, 501, 503, 504, 506, 507,
                  509, 510, 512, 513, 515, 516, 518, 519, 521, 522, 524, 525,
                  527, 528, 530, 531, 533, 534, 536, 537, 539, 540, 542, 543,
                  545, 546, 548, 549, 551, 552, 554, 555, 557, 558, 560, 561,
                  563, 564, 566, 567, 569, 570, 572, 573, 575, 576, 578, 579,
                  581, 582, 584, 585, 587, 588, 590, 591, 593, 594, 596, 597,
                  599, 600, 602, 603, 605, 606, 608, 609, 611, 612, 614, 615,
                  617, 618, 620, 621, 623, 624, 626, 627, 629, 630, 632, 633,
                  635, 636, 638, 639, 641, 642, 644, 645, 647, 648, 650, 651,
                  653, 654, 656, 657, 659, 660, 662, 663, 665, 666, 668, 669,
                  671, 672, 674, 675, 677, 678, 680, 681, 683, 684, 686, 687,
                  689, 690, 692, 693, 695, 696, 698, 699, 701, 702, 704, 705,
                  707, 708, 710, 711, 713, 714, 716, 717, 719, 720, 722, 723,
                  725, 726, 728, 729, 731, 732, 734, 735, 737, 738, 740, 741,
                  743, 744, 746, 747, 749, 750, 752, 753, 755, 756

molecular fragmentation (1/2 indicates fragments):
111222222222222222222222222222222222222222222222222222222222222222222222
222222222222222222222222222222222222222222222222222222222222222222222222
222222222222222222222222222222222222222222222222222222222222222222222222
222222222222222222222222222222222222222222222222222222222222222222222222
222222222222222222222222222222222222222222222222222222222222222222222222
222222222222222222222222222222222222222222222222222222222222222222222222
222222222222222222222222222222222222222222222222222222222222222222222222
222222222222222222222222222222222222222222222222222222222222222222222222
222222222222222222222222222222222222222222222222222222222222222222222222
222222222222222222222222222222222222222222222222222222222222222222222222
222222222222222222222222222222222222
# atoms in fragment 1/2:     3   753
 fragment masses (1/2) :       18.02     4521.84
CMA distance (Bohr)    :  18.633
constraining FC (au)   :  0.0500

           -------------------------------------------------
          |                 G F N 2 - x T B                 |
           -------------------------------------------------

        Reference                      10.1021/acs.jctc.8b01176
      * Hamiltonian:
        H0-scaling (s, p, d)           1.850000    2.230000    2.230000
        zeta-weighting                 0.500000
      * Dispersion:
        s8                             2.700000
        a1                             0.520000
        a2                             5.000000
        s9                             5.000000
      * Repulsion:
        kExp                           1.500000    1.000000
        rExp                           1.000000
      * Coulomb:
        alpha                          2.000000
        third order                    shell-resolved
        anisotropic                    true
        a3                             3.000000
        a5                             4.000000
        cn-shift                       1.200000
        cn-exp                         4.000000
        max-rad                        5.000000


          ...................................................
          :                      SETUP                      :
          :.................................................:
          :  # basis functions                1512          :
          :  # atomic orbitals                1512          :
          :  # shells                         1008          :
          :  # electrons                      2016          :
          :  max. iterations                   250          :
          :  Hamiltonian                  GFN2-xTB          :
          :  restarted?                      false          :
          :  GBSA solvation                  false          :
          :  PC potential                    false          :
          :  electronic temp.          300.0000000     K    :
          :  accuracy                    1.0000000          :
          :  -> integral cutoff          0.2500000E+02      :
          :  -> integral neglect         0.1000000E-07      :
          :  -> SCF convergence          0.1000000E-05 Eh   :
          :  -> wf. convergence          0.1000000E-03 e    :
          :  Broyden damping             0.4000000          :
          ...................................................

 iter      E             dE          RMSdq      gap      omega  full diag
   1  -1291.0100792 -0.129101E+04  0.407E+00    8.41       0.0  T
   2  -1291.0866509 -0.765718E-01  0.242E+00    7.45       1.0  T
   3  -1291.1184275 -0.317766E-01  0.211E-01    6.03       1.0  T
   4  -1291.1237580 -0.533048E-02  0.458E-02    6.46       1.0  T
   5  -1291.1238439 -0.858639E-04  0.310E-02    6.40       1.0  T
   6  -1291.1238845 -0.406138E-04  0.426E-03    6.43       1.0  T
   7  -1291.1238869 -0.242509E-05  0.740E-04    6.43       4.9  T
   8  -1291.1238869 -0.288785E-07  0.380E-04    6.43       9.6  T
   9  -1291.1238869 -0.137793E-07  0.676E-05    6.43      53.8  T

   *** convergence criteria satisfied after 9 iterations ***

         #    Occupation            Energy/Eh            Energy/eV
      -------------------------------------------------------------
         1        2.0000           -0.6852599             -18.6469
       ...           ...                  ...                  ...
      1002        2.0000           -0.3510587              -9.5528
      1003        2.0000           -0.3493829              -9.5072
      1004        2.0000           -0.3468231              -9.4375
      1005        2.0000           -0.3452850              -9.3957
      1006        2.0000           -0.3397355              -9.2447
      1007        2.0000           -0.3279131              -8.9230
      1008        2.0000           -0.3274960              -8.9116 (HOMO)
      1009                         -0.0912026              -2.4817 (LUMO)
      1010                         -0.0706493              -1.9225
      1011                         -0.0688221              -1.8727
      1012                         -0.0662865              -1.8037
      1013                         -0.0578476              -1.5741
       ...                                ...                  ...
      1512                          0.5118948              13.9294
      -------------------------------------------------------------
                  HL-Gap            0.2362934 Eh            6.4299 eV
             Fermi-level           -0.2093493 Eh           -5.6967 eV
 
 localization/xTB-IFF output generation
 averaging CT terms over            2  occ. levels
 averaging CT terms over            1  virt. levels
 dipole moment from electron density (au)
     X       Y       Z   
   4.9636   1.0573  -3.3008  total (Debye):   15.388
cpu  time for init local    0.82 s
wall time for init local    0.42 s
 doing rotations ...
 initialization of trafo matrix to unity

 converged in     16 iterations, threshold :   0.99997191D-06
 doing transformations ...
 lmo centers(Z=2) and atoms on file <lmocent.coord>
 LMO Fii/eV  ncent    charge center   contributions...
    1 LP   *******   0.00  -8.45754   2.92559  12.32449   58O : 38.59  100O : 37.38  364O : 25.14  106O : 23.02  409O : 22.77  454O : 22.02  226O : 21.64   31O : 20.58  508O : 20.48  490O : 20.46  118O : 19.95   61O : 19.88
  154O : 19.53  661O : 19.34  181O : 18.80  280O : 17.58  196O : 17.51  232O : 17.34  487O : 17.03   49O : 16.94  697O : 16.80  433O : 16.31  544O : 15.91   88O : 15.48
  367O : 15.17  250O : 14.01  586O : 13.82   43O : 13.63  658O : 13.59   16O : 13.42  478O : 12.62  301O : 12.19  451O : 12.18  739O : 12.11   94O : 12.09  370O : 12.02
  211O : 11.93  373O : 11.67  676O : 11.48  670O : 11.42  547O : 10.96  202O : 10.89  643O : 10.86  418O : 10.50  394O : 10.30  649O : 10.13  475O :  9.99   34O :  9.97
   25O :  9.97  526O :  9.86  619O :  9.85  754O :  9.81  187O :  9.53  598O :  9.42  139O :  9.32  703O :  9.30  577O :  9.21   97O :  9.20  628O :  9.12  190O :  9.03
  436O :  9.00  403O :  8.90  466O :  8.83  130O :  8.74  415O :  8.66  496O :  8.64  199O :  8.55  442O :  8.51  124O :  8.31   13O :  8.30  298O :  8.19  625O :  8.09
  706O :  8.02   76O :  7.99   64O :  7.86  709O :  7.80  253O :  7.63  604O :  7.53   70O :  7.48  397O :  7.43  214O :  7.24   19O :  7.19  322O :  7.18  751O :  7.12
   28O :  6.85    7O :  6.74  259O :  6.65  574O :  6.64   46O :  6.54  268O :  6.52  109O :  6.49  361O :  6.47  667O :  6.47  217O :  6.32  151O :  6.30  136O :  6.28
  256O :  6.24  112O :  6.22  283O :  6.19  271O :  6.12  520O :  6.10  484O :  6.09  421O :  6.03  349O :  5.98  127O :  5.98  583O :  5.97  541O :  5.92    4O :  5.91
   37O :  5.82  571O :  5.70  238O :  5.57  532O :  5.56  550O :  5.54  265O :  5.52  742O :  5.51  427O :  5.45  568O :  5.37  223O :  5.32  166O :  5.31  622O :  5.29
  460O :  5.27  319O :  5.20  178O :  5.07  745O :  5.01  208O :  4.97  229O :  4.95  580O :  4.94  499O :  4.74  115O :  4.70  682O :  4.67  673O :  4.67  469O :  4.63
  538O :  4.57   79O :  4.49  700O :  4.42  340O :  4.40  655O :  4.26   82O :  4.24  733O :  4.10  553O :  4.10  382O :  4.08  286O :  4.01  589O :  3.94  424O :  3.90
   91O :  3.90  493O :  3.84  439O :  3.81  559O :  3.80  262O :  3.67  679O :  3.65  448O :  3.64  637O :  3.64  730O :  3.62  205O :  3.61  292O :  3.57  277O :  3.55
  376O :  3.47  652O :  3.43  640O :  3.39   73O :  3.34  601O :  3.33  517O :  3.31  595O :  3.26   63H :  3.25  148O :  3.18  142O :  3.18  244O :  3.14  535O :  3.08
   10O :  3.02  385O :  3.02  488H :  2.95  184O :  2.86  529O :  2.85  388O :  2.85  691O :  2.84  457O :  2.84  307O :  2.83  313O :  2.82  325O :  2.81  662H :  2.78
  748O :  2.78  163O :  2.78  712O :  2.75   67O :  2.70    1O :  2.65  133O :  2.62  631O :  2.61  241O :  2.58  634O :  2.56  463O :  2.51  718O :  2.50  592O :  2.49
   15H :  2.47  310O :  2.44  556O :  2.43  304O :  2.42  445O :  2.41  274O :  2.40  316O :  2.39  346O :  2.31  295O :  2.30  352O :  2.28  334O :  2.27  514O :  2.26
  355O :  2.24  511O :  2.17   85O :  2.17  337O :  2.16  247O :  2.16  183H :  2.15  664O :  2.14  480H :  2.06  613O :  2.04  289O :  1.97  391O :  1.96  671H :  1.96
   17H :  1.94  562O :  1.94   40O :  1.83  103O :  1.80  472O :  1.78  646O :  1.77  607O :  1.77  412O :  1.74  390H :  1.72  724O :  1.70  294H :  1.69  616O :  1.65
  430O :  1.64  549H :  1.61  685O :  1.60  551H :  1.59  121O :  1.55   22O :  1.54  169O :  1.54  417H :  1.50   59H :  1.49  156H :  1.44  395H :  1.44  145O :  1.43
  102H :  1.43  227H :  1.42   44H :  1.41  752H :  1.40  491H :  1.39  659H :  1.35  740H :  1.34  212H :  1.33   55O :  1.33  523O :  1.30  715O :  1.29  233H :  1.28
  599H :  1.27  447H :  1.25  175O :  1.24  494H :  1.22   86H :  1.22  234H :  1.22  160O :  1.22  509H :  1.16  565O :  1.15  309H :  1.12  369H :  1.11  374H :  1.11
  542H :  1.10  255H :  1.09  644H :  1.09  198H :  1.06  481O :  1.04  486H :  1.03  650H :  1.01   35H :  1.00   77H :  1.00  119H :  0.99  736O :  0.99  555H :  0.99
  185H :  0.95  144H :  0.95  302H :  0.95  406O :  0.91  400O :  0.91  621H :  0.89  510H :  0.89  324H :  0.88   62H :  0.88  467H :  0.87  453H :  0.87  701H :  0.86
  610O :  0.85   52O :  0.83  656H :  0.83  660H :  0.82   89H :  0.82   78H :  0.82   84H :  0.82  711H :  0.82  714H :  0.81  104H :  0.81  284H :  0.81  462H :  0.79
  578H :  0.78  505O :  0.77  328O :  0.74  419H :  0.73  321H :  0.71  719H :  0.70   18H :  0.69  567H :  0.69   29H :  0.69  591H :  0.68  546H :  0.68  210H :  0.67
  704H :  0.67  437H :  0.66  343O :  0.65  338H :  0.65  182H :  0.65  375H :  0.64  461H :  0.62  515H :  0.62  193O :  0.61  645H :  0.61   26H :  0.60  694O :  0.60
  582H :  0.60  444H :  0.60  584H :  0.59  528H :  0.59  399H :  0.59  213H :  0.59  705H :  0.59  698H :  0.58  379O :  0.58  206H :  0.56  423H :  0.55  477H :  0.55
  331O :  0.54  172O :  0.54  744H :  0.53  677H :  0.52  260H :  0.52  266H :  0.52  317H :  0.51   68H :  0.50  358O :  0.49  540H :  0.48  414H :  0.48  387H :  0.47
  120H :  0.47   71H :  0.46  267H :  0.46  569H :  0.45  341H :  0.45  534H :  0.44  492H :  0.43  731H :  0.43  459H :  0.43  137H :  0.42  587H :  0.42  543H :  0.42
   32H :  0.42  273H :  0.42   74H :  0.41  502O :  0.41  111H :  0.41  252H :  0.41  249H :  0.40  108H :  0.40  220O :  0.39  157O :  0.39   12H :  0.39  125H :  0.39
  332H :  0.38   99H :  0.38  135H :  0.37  566H :  0.37  597H :  0.37  405H :  0.37  326H :  0.37  246H :  0.36  368H :  0.36  450H :  0.36  251H :  0.36  245H :  0.36
  410H :  0.35  347H :  0.35  623H :  0.35  741H :  0.34  482H :  0.34   48H :  0.34  285H :  0.34  377H :  0.32   27H :  0.32   93H :  0.32  536H :  0.31   57H :  0.31
  354H :  0.31  116H :  0.31  311H :  0.30  297H :  0.30   30H :  0.30  215H :  0.30  603H :  0.29  654H :  0.29  464H :  0.29  579H :  0.29  438H :  0.29  407H :  0.29
  411H :  0.29  131H :  0.28  678H :  0.28  258H :  0.28  162H :  0.28  114H :  0.27  441H :  0.27  615H :  0.26    9H :  0.26  548H :  0.26   80H :  0.25  749H :  0.25
  518H :  0.25  707H :  0.25  365H :  0.25  473H :  0.24  456H :  0.24  594H :  0.24  167H :  0.24  174H :  0.24  737H :  0.23  350H :  0.23  746H :  0.22  146H :  0.22
   50H :  0.22  381H :  0.22  440H :  0.22  360H :  0.22  612H :  0.22  158H :  0.21  243H :  0.21  420H :  0.21  189H :  0.21  230H :  0.21  282H :  0.21  117H :  0.21
  296H :  0.21  522H :  0.21  188H :  0.21  141H :  0.20  560H :  0.20  320H :  0.20   66H :  0.20  465H :  0.20  269H :  0.20   83H :  0.20  278H :  0.19  611H :  0.19
  176H :  0.19  545H :  0.19   24H :  0.19   45H :  0.19  455H :  0.18  734H :  0.18  191H :  0.18  721O :  0.18  564H :  0.18  750H :  0.17  725H :  0.17   39H :  0.17
   53H :  0.17  588H :  0.17   56H :  0.16  402H :  0.16  240H :  0.16  629H :  0.16  726H :  0.16  557H :  0.16  686H :  0.16   23H :  0.16  672H :  0.16  692H :  0.16
  371H :  0.15  312H :  0.15  195H :  0.15  126H :  0.15  668H :  0.15  134H :  0.15  378H :  0.15   42H :  0.15  489H :  0.15  107H :  0.14  393H :  0.14  596H :  0.14
  219H :  0.14   33H :  0.14   95H :  0.14  434H :  0.14  236H :  0.13  218H :  0.13  383H :  0.13  443H :  0.13  336H :  0.13  177H :  0.13  171H :  0.13  429H :  0.13
  330H :  0.13  485H :  0.13  474H :  0.12  605H :  0.12  513H :  0.12   41H :  0.12  235O :  0.11  221H :  0.11  755H :  0.11  209H :  0.11  572H :  0.11  531H :  0.11
  690H :  0.11  688O :  0.11  633H :  0.11  618H :  0.11  539H :  0.11  720H :  0.11  392H :  0.11  164H :  0.11  363H :  0.10  314H :  0.10  384H :  0.10  287H :  0.10
  693H :  0.10  404H :  0.10  239H :  0.10  449H :  0.10  743H :  0.09  431H :  0.09  186H :  0.09  329H :  0.09  608H :  0.09  204H :  0.09  318H :  0.09  123H :  0.09
  264H :  0.09  132H :  0.09  683H :  0.09   96H :  0.09  428H :  0.09  173H :  0.08  627H :  0.08  231H :  0.08   90H :  0.08   60H :  0.08  396H :  0.08  606H :  0.08
  727O :  0.08  432H :  0.08  276H :  0.08  293H :  0.07  452H :  0.07  581H :  0.07
    2 LP   *******   0.00   6.51533  -4.60767   5.68054  100O : 34.52   58O : 28.74  364O : 21.10  106O : 19.32  409O : 19.12  454O : 18.49  226O : 18.17   31O : 17.28  490O : 17.18  508O : 17.12  118O : 16.76   61O : 16.70
  154O : 16.40  661O : 16.24  181O : 15.79  196O : 14.70  280O : 14.70  232O : 14.56  487O : 14.30   49O : 14.25  697O : 14.10  433O : 13.69  544O : 13.35   88O : 12.99
  367O : 12.74  250O : 11.76  586O : 11.60   43O : 11.45  658O : 11.41   16O : 11.27  478O : 10.60  301O : 10.24  451O : 10.22  739O : 10.17   94O : 10.15  370O : 10.09
  211O : 10.01  373O :  9.79  676O :  9.64  670O :  9.59  547O :  9.20  202O :  9.14  643O :  9.12  418O :  8.81  394O :  8.64  649O :  8.50  475O :  8.38   34O :  8.37
   25O :  8.37  619O :  8.28  526O :  8.27  754O :  8.24  187O :  8.01  598O :  7.91  139O :  7.83  703O :  7.81  577O :  7.74   97O :  7.74  628O :  7.66  190O :  7.58
  436O :  7.57  403O :  7.50  130O :  7.41  466O :  7.41  415O :  7.27  496O :  7.25  199O :  7.18  442O :  7.15  124O :  6.97   13O :  6.96  298O :  6.87  625O :  6.79
  706O :  6.73   76O :  6.69   64O :  6.59  709O :  6.55  253O :  6.41  604O :  6.32   70O :  6.28  397O :  6.24  214O :  6.08   19O :  6.04  322O :  6.03  751O :  5.98
   28O :  5.75    7O :  5.66  259O :  5.58  574O :  5.58   46O :  5.49  268O :  5.47  109O :  5.45  361O :  5.43  667O :  5.43  151O :  5.32  217O :  5.31  136O :  5.27
  256O :  5.24  112O :  5.22  283O :  5.20  271O :  5.14  520O :  5.12  484O :  5.11  349O :  5.02  127O :  5.02  583O :  5.01  541O :  4.97  421O :  4.97    4O :  4.96
   37O :  4.89  571O :  4.78  238O :  4.67  532O :  4.66  550O :  4.65  265O :  4.64  742O :  4.63  427O :  4.58  568O :  4.51  223O :  4.47  166O :  4.44  622O :  4.44
  460O :  4.42  319O :  4.37  178O :  4.25  745O :  4.21  208O :  4.18  229O :  4.16  580O :  4.15  499O :  3.98  115O :  3.95  682O :  3.92  673O :  3.92  469O :  3.90
  538O :  3.84   79O :  3.77  700O :  3.71  340O :  3.69  655O :  3.58   82O :  3.56  553O :  3.44  733O :  3.44  382O :  3.42  589O :  3.37  286O :  3.36  424O :  3.28
   91O :  3.27  493O :  3.23  439O :  3.20  559O :  3.19  262O :  3.08  448O :  3.05  679O :  3.05  637O :  3.05  730O :  3.04  205O :  3.03  292O :  3.00  277O :  2.98
  376O :  2.92  652O :  2.88  640O :  2.84   73O :  2.84  601O :  2.79  517O :  2.78  595O :  2.74   63H :  2.73  142O :  2.67  148O :  2.67  244O :  2.64  535O :  2.59
   10O :  2.54  385O :  2.53  488H :  2.48  184O :  2.40  388O :  2.39  529O :  2.39  691O :  2.38  457O :  2.38  307O :  2.38  313O :  2.37  325O :  2.36  662H :  2.33
  748O :  2.33  163O :  2.33  712O :  2.31   67O :  2.27    1O :  2.23  352O :  2.21  133O :  2.20  631O :  2.19  241O :  2.17  634O :  2.15  463O :  2.11  718O :  2.10
  592O :  2.09   15H :  2.07  310O :  2.05  556O :  2.04  304O :  2.03  445O :  2.02  274O :  2.01  316O :  2.01  346O :  1.94  295O :  1.93  334O :  1.91  514O :  1.89
  355O :  1.88  511O :  1.82   85O :  1.82  337O :  1.82  247O :  1.82  183H :  1.81  664O :  1.79  480H :  1.73  613O :  1.72  289O :  1.65  671H :  1.65  391O :  1.65
   17H :  1.63  562O :  1.62   40O :  1.54  103O :  1.53  472O :  1.49  646O :  1.49  607O :  1.49  412O :  1.47  390H :  1.44  724O :  1.43  294H :  1.42  616O :  1.39
   59H :  1.38  430O :  1.38  549H :  1.35  685O :  1.35  551H :  1.33  121O :  1.30   22O :  1.29  169O :  1.28  417H :  1.26  156H :  1.21  395H :  1.21  145O :  1.21
  227H :  1.19   44H :  1.18  752H :  1.17  491H :  1.17  659H :  1.13  740H :  1.12  212H :  1.12   55O :  1.12  523O :  1.09  102H :  1.09  715O :  1.09  233H :  1.07
  599H :  1.07  447H :  1.05  175O :  1.04  494H :  1.02   86H :  1.02  234H :  1.02  160O :  1.02  509H :  0.97  565O :  0.97  104H :  0.95  309H :  0.94  369H :  0.93
  374H :  0.93  542H :  0.92  255H :  0.92  644H :  0.92  198H :  0.89  481O :  0.87  486H :  0.87  650H :  0.85   35H :  0.84  119H :  0.84   77H :  0.83  736O :  0.83
  555H :  0.83  144H :  0.80  185H :  0.80  302H :  0.80  406O :  0.76  400O :  0.76  621H :  0.75  510H :  0.75  324H :  0.74   62H :  0.74  467H :  0.73  453H :  0.73
  701H :  0.72  610O :  0.71   52O :  0.70  656H :  0.69  660H :  0.69   89H :  0.69   78H :  0.69  711H :  0.69   84H :  0.69  714H :  0.68  284H :  0.68  462H :  0.66
  578H :  0.66  505O :  0.64  328O :  0.62  419H :  0.61  321H :  0.60  719H :  0.59   18H :  0.58  567H :  0.58   29H :  0.58  546H :  0.57  210H :  0.56  704H :  0.56
  591H :  0.55  437H :  0.55  343O :  0.55  338H :  0.54  182H :  0.54  375H :  0.54  515H :  0.52  461H :  0.52  193O :  0.51  645H :  0.51   26H :  0.51  582H :  0.50
  379O :  0.50  444H :  0.50  694O :  0.50  584H :  0.50  528H :  0.50  399H :  0.50  213H :  0.49  705H :  0.49  698H :  0.48  206H :  0.47  477H :  0.46  423H :  0.45
  331O :  0.45  172O :  0.45  744H :  0.45  677H :  0.44  260H :  0.44  266H :  0.44  317H :  0.43   68H :  0.42  358O :  0.41  540H :  0.40  414H :  0.40  387H :  0.39
  120H :  0.39   71H :  0.39  267H :  0.38  569H :  0.38  341H :  0.38  534H :  0.37  492H :  0.36  731H :  0.36   74H :  0.36  459H :  0.36  137H :  0.36  587H :  0.36
  543H :  0.35   32H :  0.35  273H :  0.35  502O :  0.34  111H :  0.34  252H :  0.34  249H :  0.34  108H :  0.33  220O :  0.33  157O :  0.33   12H :  0.32  125H :  0.32
  332H :  0.32   99H :  0.32  135H :  0.31  405H :  0.31  566H :  0.31  597H :  0.31  326H :  0.31  246H :  0.30  368H :  0.30  450H :  0.30  251H :  0.30  245H :  0.30
  410H :  0.30  347H :  0.29  623H :  0.29  741H :  0.29  482H :  0.29   48H :  0.28  285H :  0.28  377H :  0.27   27H :  0.27   93H :  0.27  536H :  0.26   57H :  0.26
  116H :  0.26  311H :  0.25  297H :  0.25   30H :  0.25  215H :  0.25  603H :  0.25  654H :  0.25  464H :  0.25  579H :  0.24  438H :  0.24  407H :  0.24  411H :  0.24
  678H :  0.23  258H :  0.23  162H :  0.23  114H :  0.23  131H :  0.23  441H :  0.23  615H :  0.22    9H :  0.22  548H :  0.21   80H :  0.21  749H :  0.21  518H :  0.21
  707H :  0.21  365H :  0.21  473H :  0.20  456H :  0.20  594H :  0.20  174H :  0.20  737H :  0.19  350H :  0.19  282H :  0.19   50H :  0.19  746H :  0.19  146H :  0.19
  440H :  0.18  360H :  0.18  612H :  0.18  158H :  0.18  420H :  0.18  243H :  0.18  189H :  0.18  230H :  0.18  117H :  0.18  296H :  0.18  522H :  0.18  381H :  0.17
  188H :  0.17  141H :  0.17  560H :  0.17  320H :  0.17   66H :  0.17  465H :  0.17  269H :  0.17   83H :  0.16  278H :  0.16  167H :  0.16  611H :  0.16  176H :  0.16
   24H :  0.16  545H :  0.16   45H :  0.16  455H :  0.15  734H :  0.15  191H :  0.15  721O :  0.15  564H :  0.15   53H :  0.15  750H :  0.15  725H :  0.15   39H :  0.15
  588H :  0.14   56H :  0.14  402H :  0.14  629H :  0.14  240H :  0.14  354H :  0.14  726H :  0.13  557H :  0.13  686H :  0.13   23H :  0.13  672H :  0.13  692H :  0.13
  371H :  0.13  312H :  0.13  668H :  0.13  378H :  0.13  134H :  0.13  126H :  0.13   42H :  0.12  195H :  0.12  489H :  0.12  107H :  0.12  393H :  0.12  596H :  0.12
  219H :  0.12   33H :  0.11   95H :  0.11  434H :  0.11  236H :  0.11  218H :  0.11  443H :  0.11  336H :  0.11  177H :  0.11  429H :  0.11  383H :  0.11  330H :  0.11
  485H :  0.11  474H :  0.10  171H :  0.10   60H :  0.10  605H :  0.10  513H :  0.10   41H :  0.10  235O :  0.09  221H :  0.09  755H :  0.09  209H :  0.09  572H :  0.09
  531H :  0.09  690H :  0.09  688O :  0.09  633H :  0.09  618H :  0.09  539H :  0.09  384H :  0.09  720H :  0.09  392H :  0.09  164H :  0.09  363H :  0.09  314H :  0.09
  287H :  0.09  693H :  0.08  239H :  0.08  404H :  0.08  449H :  0.08  743H :  0.08  431H :  0.08  186H :  0.08  329H :  0.08  608H :  0.07  204H :  0.07  318H :  0.07
  123H :  0.07  264H :  0.07  132H :  0.07  683H :  0.07   96H :  0.07  428H :  0.07  173H :  0.07  627H :  0.07  231H :  0.07
    3 LP   *******   0.00 -27.30747  -3.74740 -43.31510  100O : 27.14   58O : 24.85  409O : 19.55  364O : 18.25  106O : 16.71  454O : 15.99  226O : 15.72   31O : 15.03  508O : 14.87  490O : 14.85  118O : 14.49   61O : 14.44
  154O : 14.18  661O : 14.04  181O : 13.64  280O : 12.76  232O : 12.59  196O : 12.43  487O : 12.36   49O : 12.32  697O : 12.19  433O : 11.84  544O : 11.55   88O : 11.24
  367O : 11.02  250O : 10.17  586O : 10.03   43O :  9.90  658O :  9.87   16O :  9.74  478O :  9.19  301O :  8.86  451O :  8.84  739O :  8.79   94O :  8.78  370O :  8.73
  211O :  8.66  373O :  8.47  676O :  8.33  670O :  8.30  547O :  7.95  202O :  7.92  643O :  7.89  418O :  7.62  394O :  7.47  649O :  7.35  475O :  7.25   34O :  7.24
   25O :  7.24  526O :  7.16  619O :  7.15  754O :  7.12  187O :  6.92  598O :  6.84  139O :  6.77  703O :  6.75  577O :  6.69   97O :  6.69  628O :  6.62  190O :  6.55
  436O :  6.54  403O :  6.48  466O :  6.41  130O :  6.34  415O :  6.29  496O :  6.27  199O :  6.21  442O :  6.18  124O :  6.04   13O :  6.02  298O :  5.95  625O :  5.87
  706O :  5.82   76O :  5.78   64O :  5.71  709O :  5.66  253O :  5.54  604O :  5.47   70O :  5.43  397O :  5.39  214O :  5.25  322O :  5.21   19O :  5.18  751O :  5.17
   28O :  4.97    7O :  4.90  259O :  4.83  574O :  4.82   46O :  4.74  268O :  4.73  109O :  4.71  361O :  4.70  667O :  4.69  217O :  4.59  151O :  4.58  136O :  4.56
  256O :  4.53  112O :  4.51  283O :  4.50  271O :  4.44  520O :  4.43  127O :  4.42  484O :  4.42  421O :  4.38  349O :  4.34  583O :  4.34  541O :  4.30    4O :  4.29
   37O :  4.23  571O :  4.14  238O :  4.04  532O :  4.03  550O :  4.02  265O :  4.01  742O :  4.00  427O :  3.96  568O :  3.90  223O :  3.86  166O :  3.84  622O :  3.84
  460O :  3.82  319O :  3.78  178O :  3.68  745O :  3.64  208O :  3.61  229O :  3.59  580O :  3.58  499O :  3.44  115O :  3.42  682O :  3.39  673O :  3.39  469O :  3.37
  538O :  3.32   79O :  3.26  700O :  3.21  340O :  3.19  655O :  3.09   82O :  3.07  733O :  2.98  553O :  2.98  382O :  2.96  589O :  2.92  286O :  2.91   91O :  2.83
  424O :  2.83  493O :  2.79  439O :  2.77  559O :  2.76  262O :  2.67  679O :  2.65  448O :  2.64  637O :  2.64  730O :  2.63  205O :  2.62  292O :  2.59  277O :  2.58
  376O :  2.52  652O :  2.49  601O :  2.46  640O :  2.46   73O :  2.45  517O :  2.40  595O :  2.37   63H :  2.36  148O :  2.31  142O :  2.31  244O :  2.28  535O :  2.24
   10O :  2.19  385O :  2.19  488H :  2.14  184O :  2.07  388O :  2.07  529O :  2.07  691O :  2.06  457O :  2.06  307O :  2.06  313O :  2.05  325O :  2.04  748O :  2.03
  662H :  2.02  163O :  2.01  712O :  2.00   67O :  1.96    1O :  1.93  352O :  1.91  133O :  1.90  631O :  1.89  241O :  1.87  634O :  1.86  463O :  1.82  718O :  1.82
  592O :  1.80   15H :  1.79  310O :  1.77  304O :  1.76  556O :  1.76  445O :  1.75  274O :  1.74  316O :  1.74  346O :  1.67  295O :  1.67  334O :  1.65  514O :  1.64
  355O :  1.63  511O :  1.58  337O :  1.57  247O :  1.57   85O :  1.57  183H :  1.56  664O :  1.55  480H :  1.50  613O :  1.48  289O :  1.43  671H :  1.43  391O :  1.43
  562O :  1.41   17H :  1.41   40O :  1.33  103O :  1.31  472O :  1.29  646O :  1.29  607O :  1.29  412O :  1.26  390H :  1.25  724O :  1.23  294H :  1.23  616O :  1.20
   59H :  1.19  430O :  1.19  549H :  1.17  685O :  1.16  551H :  1.15  121O :  1.12   22O :  1.12  169O :  1.12  417H :  1.09  156H :  1.05  395H :  1.04  145O :  1.04
  102H :  1.04  227H :  1.03   44H :  1.02  752H :  1.02  491H :  1.01  659H :  0.98  740H :  0.97  212H :  0.97   55O :  0.97  523O :  0.95  715O :  0.94  233H :  0.93
  599H :  0.92  447H :  0.91  175O :  0.90  494H :  0.89  234H :  0.88  160O :  0.88   86H :  0.88  509H :  0.84  565O :  0.84  198H :  0.83  309H :  0.81  369H :  0.81
  374H :  0.81  542H :  0.80  255H :  0.79  644H :  0.79  481O :  0.76  486H :  0.75  650H :  0.73   35H :  0.73  119H :  0.72   77H :  0.72  736O :  0.72  555H :  0.72
  144H :  0.69  185H :  0.69  302H :  0.69  406O :  0.66  400O :  0.66  621H :  0.65  510H :  0.65  324H :  0.64   62H :  0.64  467H :  0.63  453H :  0.63  701H :  0.63
  610O :  0.62   52O :  0.60  656H :  0.60  660H :  0.60   89H :  0.60   78H :  0.59   84H :  0.59  711H :  0.59  714H :  0.59  104H :  0.59  284H :  0.59  462H :  0.57
  578H :  0.57  505O :  0.56  328O :  0.53  419H :  0.53  321H :  0.52  719H :  0.51   18H :  0.50  567H :  0.50   29H :  0.50  546H :  0.49  210H :  0.49  704H :  0.48
  591H :  0.48  437H :  0.48  343O :  0.48  338H :  0.47  182H :  0.47  375H :  0.47  461H :  0.45  515H :  0.45  193O :  0.45  645H :  0.44   26H :  0.44  582H :  0.43
  444H :  0.43  694O :  0.43  584H :  0.43  528H :  0.43  399H :  0.43  705H :  0.43  213H :  0.43  698H :  0.42  379O :  0.42  206H :  0.41  423H :  0.40  477H :  0.40
  331O :  0.39  172O :  0.39  744H :  0.39  677H :  0.38  260H :  0.38  266H :  0.38  317H :  0.37   68H :  0.36  358O :  0.36  540H :  0.35  414H :  0.35  387H :  0.34
  120H :  0.34   71H :  0.34  267H :  0.33  569H :  0.33  341H :  0.33  534H :  0.32  492H :  0.31  731H :  0.31   74H :  0.31  459H :  0.31  137H :  0.31  587H :  0.31
   32H :  0.30  543H :  0.30  273H :  0.30  502O :  0.30  111H :  0.30  252H :  0.29  249H :  0.29  108H :  0.29  157O :  0.28   12H :  0.28  125H :  0.28  332H :  0.28
  220O :  0.28   99H :  0.27  135H :  0.27  405H :  0.27  566H :  0.27  597H :  0.27  326H :  0.26  246H :  0.26  368H :  0.26  450H :  0.26  251H :  0.26  245H :  0.26
  347H :  0.25  623H :  0.25  741H :  0.25  482H :  0.25  285H :  0.25   48H :  0.24  603H :  0.24  377H :  0.23   27H :  0.23   93H :  0.23  536H :  0.23   57H :  0.23
  116H :  0.22  311H :  0.22  297H :  0.22   30H :  0.22  215H :  0.21  654H :  0.21  464H :  0.21  579H :  0.21  438H :  0.21  407H :  0.21  131H :  0.21  678H :  0.20
  258H :  0.20  162H :  0.20  114H :  0.20  441H :  0.20  410H :  0.20  615H :  0.19    9H :  0.19  548H :  0.19   80H :  0.19  749H :  0.18  518H :  0.18  707H :  0.18
  365H :  0.18  473H :  0.18  456H :  0.18  594H :  0.17  174H :  0.17  737H :  0.17  350H :  0.17  746H :  0.16   50H :  0.16  146H :  0.16  381H :  0.16  440H :  0.16
  360H :  0.16  612H :  0.16  158H :  0.16  243H :  0.15  420H :  0.15  189H :  0.15  230H :  0.15  282H :  0.15  117H :  0.15  296H :  0.15  522H :  0.15  188H :  0.15
  141H :  0.15  560H :  0.15  320H :  0.15   66H :  0.14  465H :  0.14  269H :  0.14  411H :  0.14   83H :  0.14  750H :  0.14  278H :  0.14  167H :  0.14  611H :  0.14
  176H :  0.14   24H :  0.14  545H :  0.14   45H :  0.14  455H :  0.13  564H :  0.13  734H :  0.13  721O :  0.13  191H :  0.13   53H :  0.13   39H :  0.13  725H :  0.13
  588H :  0.12   56H :  0.12  402H :  0.12  240H :  0.12  629H :  0.12  354H :  0.12  726H :  0.12  557H :  0.11  686H :  0.11   23H :  0.11  672H :  0.11  692H :  0.11
  371H :  0.11  312H :  0.11  195H :  0.11  126H :  0.11  668H :  0.11  378H :  0.11  134H :  0.11   42H :  0.11  489H :  0.11  107H :  0.10  393H :  0.10  596H :  0.10
  219H :  0.10  434H :  0.10   95H :  0.10   33H :  0.10  236H :  0.10  218H :  0.10  383H :  0.10  443H :  0.10  336H :  0.10  177H :  0.09  171H :  0.09  429H :  0.09
  330H :  0.09  485H :  0.09  474H :  0.09   60H :  0.09  605H :  0.09  513H :  0.08   41H :  0.08  235O :  0.08  221H :  0.08  755H :  0.08  209H :  0.08  572H :  0.08
  531H :  0.08  690H :  0.08  688O :  0.08  633H :  0.08  618H :  0.08  539H :  0.08  720H :  0.08  392H :  0.08  164H :  0.08  363H :  0.08  314H :  0.08  384H :  0.07
  287H :  0.07  693H :  0.07  239H :  0.07  404H :  0.07
    4 LP   *******   0.00 -32.11903   7.35849 -33.33502  100O : 24.33   58O : 22.27  364O : 16.36   31O : 15.07  106O : 14.98  409O : 14.91  454O : 14.33  226O : 14.09  508O : 13.33  490O : 13.31  118O : 12.99   61O : 12.94
  154O : 12.71  661O : 12.59  181O : 12.23  196O : 11.47  280O : 11.44  232O : 11.28  487O : 11.08   49O : 11.04  697O : 10.93  433O : 10.61  544O : 10.35   88O : 10.07
  367O :  9.87  250O :  9.11  586O :  8.99   43O :  8.87  658O :  8.84   16O :  8.73  478O :  8.23  301O :  7.94  451O :  7.92  739O :  7.88   94O :  7.87  370O :  7.82
  211O :  7.76  373O :  7.59  676O :  7.47  670O :  7.44  202O :  7.21  547O :  7.13  643O :  7.07  418O :  6.83  394O :  6.70  649O :  6.59  475O :  6.50   25O :  6.48
   34O :  6.48  526O :  6.41  619O :  6.41  754O :  6.40  187O :  6.20  598O :  6.13  139O :  6.06  703O :  6.05  577O :  5.99   97O :  5.99  628O :  5.94  190O :  5.88
  436O :  5.86  403O :  5.81  466O :  5.74  130O :  5.68  415O :  5.64  496O :  5.62  199O :  5.57  442O :  5.54  124O :  5.41   13O :  5.40  298O :  5.33  625O :  5.26
  706O :  5.22   76O :  5.18   64O :  5.12  709O :  5.08  253O :  4.97  604O :  4.90   70O :  4.86  397O :  4.83  214O :  4.71   19O :  4.68  322O :  4.67  751O :  4.64
   28O :  4.44    7O :  4.38  574O :  4.32  259O :  4.32   46O :  4.31  268O :  4.24  109O :  4.23  361O :  4.21  667O :  4.21  217O :  4.11  151O :  4.10  136O :  4.09
  256O :  4.06  112O :  4.05  283O :  4.03  271O :  3.98  520O :  3.97  484O :  3.96  421O :  3.93  349O :  3.89  127O :  3.89  583O :  3.88  541O :  3.86    4O :  3.84
   37O :  3.79  571O :  3.71  238O :  3.62  532O :  3.61  550O :  3.60  265O :  3.59  742O :  3.59  427O :  3.55  568O :  3.49  223O :  3.46  166O :  3.44  622O :  3.44
  460O :  3.43  319O :  3.38  178O :  3.30  745O :  3.26  208O :  3.23  229O :  3.22  580O :  3.21  499O :  3.09  115O :  3.07  682O :  3.04  673O :  3.04  469O :  3.03
  538O :  2.97   79O :  2.92  700O :  2.87  340O :  2.86  655O :  2.77   82O :  2.76  733O :  2.67  553O :  2.67  382O :  2.65  589O :  2.62  286O :  2.61  424O :  2.54
   91O :  2.54  493O :  2.50  439O :  2.48  559O :  2.47  262O :  2.39  679O :  2.37  448O :  2.37  637O :  2.37  730O :  2.35  205O :  2.35  292O :  2.32  277O :  2.31
  376O :  2.26  652O :  2.23  640O :  2.20   73O :  2.20  601O :  2.18  517O :  2.15  595O :  2.12   63H :  2.11  148O :  2.07  142O :  2.07  244O :  2.04  535O :  2.00
   10O :  1.96  385O :  1.96  488H :  1.92  184O :  1.86  388O :  1.85  529O :  1.85  691O :  1.85  457O :  1.85  307O :  1.84  313O :  1.84  325O :  1.83  662H :  1.81
  748O :  1.81  163O :  1.81  712O :  1.79   67O :  1.75    1O :  1.73  352O :  1.71  133O :  1.70  631O :  1.70  241O :  1.68  634O :  1.66  463O :  1.64  718O :  1.63
  592O :  1.62   15H :  1.60  310O :  1.59  556O :  1.58  304O :  1.58  445O :  1.56  274O :  1.56  316O :  1.56  346O :  1.50  295O :  1.50  334O :  1.48  514O :  1.47
  355O :  1.46  511O :  1.41  247O :  1.41  337O :  1.41  183H :  1.40   85O :  1.40  664O :  1.39  480H :  1.34  613O :  1.33  289O :  1.28  671H :  1.28  391O :  1.28
   17H :  1.26  562O :  1.26  103O :  1.17  472O :  1.16  646O :  1.15  607O :  1.15   40O :  1.14  412O :  1.13  390H :  1.12  724O :  1.10  294H :  1.10  616O :  1.08
   59H :  1.07  430O :  1.07  549H :  1.05  685O :  1.04  551H :  1.03  121O :  1.01   22O :  1.00  169O :  1.00  417H :  0.98  156H :  0.94  395H :  0.94  145O :  0.93
  102H :  0.93  227H :  0.92   44H :  0.91  752H :  0.91  491H :  0.90  198H :  0.90  659H :  0.88  740H :  0.87  212H :  0.87   55O :  0.87  523O :  0.85  715O :  0.84
  233H :  0.83  599H :  0.83  447H :  0.82  175O :  0.81  494H :  0.79  234H :  0.79  160O :  0.79   86H :  0.78  509H :  0.75  565O :  0.74  309H :  0.73  369H :  0.72
  374H :  0.72  542H :  0.71  255H :  0.71  644H :  0.71  481O :  0.69  486H :  0.67  650H :  0.66   35H :  0.65  119H :  0.65   77H :  0.64  736O :  0.64  555H :  0.64
  302H :  0.62  185H :  0.62  144H :  0.62  406O :  0.59  400O :  0.59  621H :  0.58  510H :  0.58  324H :  0.57   62H :  0.57  467H :  0.57  453H :  0.56  701H :  0.56
  610O :  0.55   52O :  0.54  656H :  0.54  660H :  0.54   89H :  0.54   78H :  0.53   84H :  0.53  711H :  0.53  714H :  0.53  104H :  0.53  284H :  0.53  462H :  0.51
  578H :  0.51  505O :  0.50  328O :  0.48  419H :  0.47  321H :  0.47  719H :  0.45   18H :  0.45  567H :  0.45   29H :  0.45  546H :  0.44  210H :  0.44  704H :  0.43
  591H :  0.43  437H :  0.43  343O :  0.43  338H :  0.42  182H :  0.42  375H :  0.42  461H :  0.40  515H :  0.40  193O :  0.40  645H :  0.40   26H :  0.39  582H :  0.39
  444H :  0.39  694O :  0.39  528H :  0.39  584H :  0.39  399H :  0.38  213H :  0.38  705H :  0.38  698H :  0.38  379O :  0.38  206H :  0.37  423H :  0.36  477H :  0.36
  331O :  0.35  172O :  0.35  744H :  0.35  677H :  0.34  260H :  0.34  266H :  0.34  317H :  0.33   68H :  0.32  358O :  0.32  540H :  0.31  414H :  0.31  387H :  0.31
  120H :  0.30   71H :  0.30  267H :  0.30  569H :  0.30  341H :  0.29  534H :  0.29  492H :  0.28  731H :  0.28   74H :  0.28  459H :  0.28  137H :  0.28  587H :  0.28
  543H :  0.27  273H :  0.27  502O :  0.27  111H :  0.26  252H :  0.26  249H :  0.26  108H :  0.26  157O :  0.25  220O :  0.25   12H :  0.25  125H :  0.25  332H :  0.25
   99H :  0.25  135H :  0.24  405H :  0.24  597H :  0.24  566H :  0.24  326H :  0.24  246H :  0.24  368H :  0.23  450H :  0.23  410H :  0.23  251H :  0.23  245H :  0.23
  347H :  0.23  623H :  0.22  741H :  0.22  482H :  0.22  285H :  0.22   48H :  0.21  377H :  0.21   27H :  0.21   93H :  0.21  536H :  0.20   57H :  0.20  116H :  0.20
  311H :  0.20  297H :  0.20   30H :  0.19  215H :  0.19  603H :  0.19  654H :  0.19  464H :  0.19  579H :  0.19   32H :  0.19  438H :  0.19  407H :  0.19  131H :  0.18
  678H :  0.18  258H :  0.18  162H :  0.18  114H :  0.18  441H :  0.18  615H :  0.17    9H :  0.17  411H :  0.17  548H :  0.17   80H :  0.17  749H :  0.17  518H :  0.16
  707H :  0.16  365H :  0.16  473H :  0.16  456H :  0.16  594H :  0.16  174H :  0.16  737H :  0.15  350H :  0.15  746H :  0.15   50H :  0.15  146H :  0.14  381H :  0.14
  440H :  0.14  360H :  0.14  612H :  0.14  158H :  0.14  243H :  0.14  420H :  0.14  189H :  0.14  230H :  0.14  282H :  0.14  117H :  0.14  296H :  0.14  522H :  0.14
  188H :  0.13  141H :  0.13  560H :  0.13  320H :  0.13   66H :  0.13  465H :  0.13  269H :  0.13   83H :  0.13  278H :  0.13  167H :  0.13  611H :  0.13  176H :  0.12
  545H :  0.12   24H :  0.12   45H :  0.12  455H :  0.12  734H :  0.12  191H :  0.12  721O :  0.12  564H :  0.12   53H :  0.11  750H :  0.11  725H :  0.11   39H :  0.11
  588H :  0.11   56H :  0.11  402H :  0.11  240H :  0.11  629H :  0.11  354H :  0.10  726H :  0.10  557H :  0.10  686H :  0.10  672H :  0.10   23H :  0.10  692H :  0.10
  371H :  0.10  312H :  0.10   42H :  0.10  195H :  0.10  668H :  0.10  126H :  0.10  378H :  0.10  134H :  0.10  489H :  0.09  107H :  0.09  393H :  0.09  596H :  0.09
  219H :  0.09  434H :  0.09  236H :  0.09   95H :  0.09  218H :  0.09  383H :  0.09  443H :  0.09  336H :  0.09  177H :  0.09  171H :  0.08  429H :  0.08  330H :  0.08
  485H :  0.08  474H :  0.08   60H :  0.08  605H :  0.08  513H :  0.08  221H :  0.07   41H :  0.07  755H :  0.07  235O :  0.07  209H :  0.07  572H :  0.07  531H :  0.07
  690H :  0.07  688O :  0.07  633H :  0.07
    5 LP   *******   0.00 -31.59623  23.26993 -57.14588  100O : 23.44   58O : 21.46  226O : 17.06  364O : 15.76  106O : 14.43  409O : 14.28  454O : 13.81   31O : 12.91  508O : 12.84  490O : 12.83  118O : 12.52   61O : 12.47
  154O : 12.24  661O : 12.13  181O : 11.79  280O : 11.02  196O : 10.97  232O : 10.87  487O : 10.68   49O : 10.64  697O : 10.53  433O : 10.23  544O :  9.97   88O :  9.71
  367O :  9.51  250O :  8.78  586O :  8.67   43O :  8.55  658O :  8.52   16O :  8.41  478O :  7.92  301O :  7.65  451O :  7.64  739O :  7.59   94O :  7.58  370O :  7.54
  211O :  7.48  373O :  7.31  676O :  7.20  670O :  7.17  547O :  6.87  643O :  6.81  202O :  6.77  418O :  6.58  394O :  6.46  649O :  6.35  475O :  6.26   25O :  6.25
   34O :  6.25  526O :  6.18  619O :  6.18  754O :  6.15  187O :  5.98  598O :  5.91  139O :  5.84  703O :  5.83  577O :  5.78   97O :  5.78  628O :  5.72  190O :  5.66
  436O :  5.65  403O :  5.60  466O :  5.53  130O :  5.48  415O :  5.43  496O :  5.42  199O :  5.36  442O :  5.34  124O :  5.21   13O :  5.20  298O :  5.14  625O :  5.07
  706O :  5.03   76O :  4.99   64O :  4.93  709O :  4.89  253O :  4.79  604O :  4.72   70O :  4.69  397O :  4.66  214O :  4.54   19O :  4.51  322O :  4.51  751O :  4.47
   28O :  4.29    7O :  4.23  259O :  4.17  574O :  4.17   46O :  4.10  268O :  4.09  109O :  4.07  361O :  4.06  667O :  4.05  217O :  3.96  151O :  3.95  136O :  3.94
  256O :  3.91  112O :  3.90  283O :  3.88  271O :  3.84  520O :  3.82  484O :  3.82  421O :  3.78  349O :  3.75  127O :  3.75  583O :  3.74  541O :  3.71    4O :  3.70
   37O :  3.65  571O :  3.57  238O :  3.49  532O :  3.48  550O :  3.47  265O :  3.46  742O :  3.46  427O :  3.42  568O :  3.37  223O :  3.33  166O :  3.32  622O :  3.31
  460O :  3.30  319O :  3.26  178O :  3.18  745O :  3.14  208O :  3.11  229O :  3.10  580O :  3.10  499O :  2.97  115O :  2.95  682O :  2.93  673O :  2.93  469O :  2.92
  538O :  2.87   79O :  2.81  700O :  2.77  340O :  2.76  655O :  2.67   82O :  2.66  733O :  2.57  553O :  2.57  382O :  2.56  589O :  2.52  286O :  2.51  424O :  2.44
   91O :  2.44  493O :  2.41  439O :  2.39  559O :  2.38  262O :  2.30  679O :  2.29  448O :  2.28  637O :  2.28  730O :  2.27  205O :  2.26  292O :  2.24  277O :  2.23
  376O :  2.18  652O :  2.15  640O :  2.12   73O :  2.12  517O :  2.07  601O :  2.05  595O :  2.05   63H :  2.04  148O :  1.99  142O :  1.99  244O :  1.97  535O :  1.93
   10O :  1.89  385O :  1.89  488H :  1.85  184O :  1.79  388O :  1.79  529O :  1.79  691O :  1.78  457O :  1.78  307O :  1.77  313O :  1.77  325O :  1.76  662H :  1.74
  748O :  1.74  163O :  1.74  712O :  1.73   67O :  1.69    1O :  1.66  352O :  1.65  133O :  1.64  631O :  1.64  241O :  1.62  634O :  1.60  463O :  1.58  718O :  1.57
  592O :  1.56   15H :  1.55  310O :  1.53  556O :  1.52  304O :  1.52  445O :  1.51  274O :  1.50  316O :  1.50  346O :  1.45  295O :  1.44  334O :  1.43  514O :  1.41
  355O :  1.41   85O :  1.36  511O :  1.36  337O :  1.36  247O :  1.36  183H :  1.35  664O :  1.34  480H :  1.29  613O :  1.28  289O :  1.24  671H :  1.23  391O :  1.23
   17H :  1.22  562O :  1.21   40O :  1.15  103O :  1.13  472O :  1.11  646O :  1.11  607O :  1.11  412O :  1.09  390H :  1.08  724O :  1.06  294H :  1.06  616O :  1.04
   59H :  1.03  430O :  1.03  549H :  1.01  685O :  1.00  551H :  1.00  121O :  0.97   22O :  0.96  169O :  0.96  417H :  0.94  156H :  0.90  395H :  0.90  145O :  0.90
  102H :  0.90   44H :  0.88  752H :  0.88  491H :  0.87  659H :  0.85  740H :  0.84  212H :  0.84   55O :  0.84  523O :  0.82  715O :  0.81  233H :  0.80  599H :  0.80
  227H :  0.79  447H :  0.79  175O :  0.78  160O :  0.77  494H :  0.76   86H :  0.76  234H :  0.76  565O :  0.74  509H :  0.73  309H :  0.70  369H :  0.70  374H :  0.70
  542H :  0.69  255H :  0.69  644H :  0.69  198H :  0.67  481O :  0.65  486H :  0.65  650H :  0.63   35H :  0.63  119H :  0.62   77H :  0.62  736O :  0.62  555H :  0.62
  185H :  0.60  144H :  0.60  302H :  0.60  406O :  0.57  400O :  0.57  621H :  0.56  510H :  0.56  324H :  0.55   62H :  0.55  467H :  0.55  453H :  0.54  701H :  0.54
  610O :  0.53   52O :  0.52  656H :  0.52  660H :  0.52   89H :  0.52   78H :  0.51   84H :  0.51  711H :  0.51  714H :  0.51  104H :  0.51  284H :  0.51  462H :  0.49
  578H :  0.49  505O :  0.48  328O :  0.46  419H :  0.46  321H :  0.45  719H :  0.44   18H :  0.44   29H :  0.43  546H :  0.42  210H :  0.42  704H :  0.42  591H :  0.41
  437H :  0.41  343O :  0.41  338H :  0.41  182H :  0.40  375H :  0.40  567H :  0.40  461H :  0.39  515H :  0.39  193O :  0.38  645H :  0.38   26H :  0.38  582H :  0.38
  444H :  0.37  694O :  0.37  584H :  0.37  528H :  0.37  399H :  0.37  213H :  0.37  705H :  0.37  698H :  0.36  379O :  0.36  206H :  0.35  423H :  0.34  477H :  0.34
  331O :  0.34  172O :  0.34  744H :  0.33  260H :  0.33  677H :  0.33  266H :  0.33  317H :  0.32   68H :  0.31  358O :  0.31  540H :  0.30  414H :  0.30  387H :  0.29
  120H :  0.29   71H :  0.29  267H :  0.29  569H :  0.29  341H :  0.28  534H :  0.28  492H :  0.27  731H :  0.27   74H :  0.27  459H :  0.27  137H :  0.27  587H :  0.27
   32H :  0.26  273H :  0.26  543H :  0.26  566H :  0.26  502O :  0.26  111H :  0.26  252H :  0.25  249H :  0.25  108H :  0.25  220O :  0.24  157O :  0.24   12H :  0.24
  125H :  0.24  332H :  0.24   99H :  0.24  135H :  0.24  405H :  0.24  597H :  0.23  326H :  0.23  246H :  0.23  368H :  0.23  450H :  0.23  251H :  0.22  245H :  0.22
  410H :  0.22  347H :  0.22  623H :  0.22  741H :  0.22  482H :  0.21   48H :  0.21  285H :  0.21  377H :  0.20   27H :  0.20   93H :  0.20  536H :  0.20   57H :  0.20
  116H :  0.19  311H :  0.19  297H :  0.19   30H :  0.19  215H :  0.19  654H :  0.18  464H :  0.18  579H :  0.18  603H :  0.18  438H :  0.18  407H :  0.18  411H :  0.18
  131H :  0.18  678H :  0.17  258H :  0.17  114H :  0.17  441H :  0.17  615H :  0.17    9H :  0.16  548H :  0.16   80H :  0.16  749H :  0.16  518H :  0.16  707H :  0.16
  162H :  0.16  365H :  0.15  473H :  0.15  456H :  0.15  594H :  0.15  174H :  0.15  737H :  0.14  350H :  0.14  746H :  0.14   50H :  0.14  146H :  0.14  381H :  0.14
  440H :  0.14  360H :  0.14  612H :  0.14  158H :  0.13  243H :  0.13  420H :  0.13  230H :  0.13  189H :  0.13  282H :  0.13  117H :  0.13  296H :  0.13  522H :  0.13
  188H :  0.13  141H :  0.13  560H :  0.13  320H :  0.13   66H :  0.12  465H :  0.12  269H :  0.12   83H :  0.12  278H :  0.12  167H :  0.12  611H :  0.12  176H :  0.12
  545H :  0.12   24H :  0.12   45H :  0.12  455H :  0.12  734H :  0.11  191H :  0.11  721O :  0.11  564H :  0.11   53H :  0.11  750H :  0.11  725H :  0.11   39H :  0.11
  588H :  0.10   56H :  0.10  402H :  0.10  240H :  0.10  629H :  0.10  354H :  0.10  726H :  0.10  557H :  0.10  686H :  0.10   23H :  0.10  672H :  0.10  692H :  0.10
  371H :  0.10  312H :  0.10  195H :  0.09  126H :  0.09  668H :  0.09  378H :  0.09  134H :  0.09   42H :  0.09  489H :  0.09  107H :  0.09  393H :  0.09  596H :  0.09
  219H :  0.09   33H :  0.09   95H :  0.09  434H :  0.09  236H :  0.08  218H :  0.08  383H :  0.08  443H :  0.08  336H :  0.08  177H :  0.08  171H :  0.08  429H :  0.08
  330H :  0.08  485H :  0.08  474H :  0.08   60H :  0.08  605H :  0.07   41H :  0.07  513H :  0.07  235O :  0.07
    6 LP   *******   0.00  -0.18415  29.43438  16.73581  100O : 21.35   58O : 19.55  106O : 15.85  364O : 14.37  409O : 13.00  454O : 12.58  226O : 12.36   31O : 11.76  508O : 11.70  490O : 11.69  118O : 11.40   61O : 11.36
  154O : 11.15  661O : 11.05  181O : 10.73  280O : 10.04  196O : 10.00  232O :  9.91  487O :  9.73   49O :  9.69  697O :  9.59  433O :  9.32  544O :  9.09   88O :  8.84
  367O :  8.67  250O :  8.00  586O :  7.89   43O :  7.79  658O :  7.76   16O :  7.67  478O :  7.21  301O :  6.96  451O :  6.96  739O :  6.91   94O :  6.91  370O :  6.87
  211O :  6.83  373O :  6.66  676O :  6.55  670O :  6.53  547O :  6.26  202O :  6.22  643O :  6.20  418O :  6.00  394O :  5.88  649O :  5.78  475O :  5.70   34O :  5.70
   25O :  5.69  526O :  5.63  619O :  5.63  754O :  5.61  187O :  5.44  598O :  5.38  139O :  5.32  703O :  5.31  577O :  5.26   97O :  5.23  628O :  5.21  190O :  5.16
  436O :  5.15  403O :  5.10  466O :  5.04  130O :  4.99  415O :  4.95  496O :  4.93  199O :  4.89  442O :  4.86  124O :  4.74   13O :  4.74  298O :  4.64  625O :  4.62
  706O :  4.58   76O :  4.55   64O :  4.49  709O :  4.46  253O :  4.32  604O :  4.30   70O :  4.27  397O :  4.24  214O :  4.13   19O :  4.11  322O :  4.10  751O :  4.07
   28O :  3.91    7O :  3.85  259O :  3.80  574O :  3.80   46O :  3.73  268O :  3.72  109O :  3.71  361O :  3.70  667O :  3.69  217O :  3.61  151O :  3.60  136O :  3.59
  256O :  3.56  112O :  3.55  283O :  3.54  271O :  3.49  520O :  3.48  484O :  3.48  421O :  3.44  349O :  3.42  127O :  3.42  583O :  3.41  541O :  3.38    4O :  3.37
   37O :  3.33  571O :  3.25  238O :  3.18  532O :  3.17  550O :  3.16  265O :  3.15  742O :  3.15  427O :  3.12  568O :  3.07  223O :  3.04  166O :  3.02  622O :  3.02
  460O :  3.01  319O :  2.97  178O :  2.89  745O :  2.86  208O :  2.84  229O :  2.83  580O :  2.82  499O :  2.71  115O :  2.69  682O :  2.67  673O :  2.67  469O :  2.65
  538O :  2.61   79O :  2.56  700O :  2.52  340O :  2.51  655O :  2.43   82O :  2.39  733O :  2.34  553O :  2.34  382O :  2.33  589O :  2.30  286O :  2.29  424O :  2.23
   91O :  2.22  493O :  2.20  439O :  2.18  559O :  2.17  262O :  2.10  679O :  2.08  637O :  2.08  448O :  2.07  730O :  2.07  205O :  2.06  292O :  2.04  277O :  2.03
  376O :  1.99  652O :  1.96  640O :  1.93   73O :  1.93  601O :  1.90  517O :  1.89  595O :  1.86   63H :  1.86  148O :  1.82  142O :  1.81  244O :  1.79  535O :  1.76
   10O :  1.73  385O :  1.72  488H :  1.69  184O :  1.63  388O :  1.63  529O :  1.63  691O :  1.62  457O :  1.62  307O :  1.62  313O :  1.61  662H :  1.59  748O :  1.59
  163O :  1.59  712O :  1.58   67O :  1.54    1O :  1.52  352O :  1.50  133O :  1.50  631O :  1.49  241O :  1.47  325O :  1.47  634O :  1.46  463O :  1.44  718O :  1.43
  592O :  1.42   15H :  1.41  310O :  1.39  556O :  1.39  304O :  1.38  445O :  1.37  274O :  1.37  316O :  1.37  346O :  1.32  295O :  1.31  334O :  1.30  514O :  1.29
  355O :  1.28  511O :  1.24   85O :  1.24  337O :  1.24  247O :  1.23  183H :  1.23  664O :  1.22  480H :  1.18  613O :  1.17  289O :  1.13  671H :  1.12  391O :  1.12
   17H :  1.11  562O :  1.11   40O :  1.04  103O :  1.03  472O :  1.02  646O :  1.01  607O :  1.01  412O :  0.99  390H :  0.98  724O :  0.97  294H :  0.96  616O :  0.94
   59H :  0.94  430O :  0.94  549H :  0.92  685O :  0.91  551H :  0.91  121O :  0.88   22O :  0.88  169O :  0.88  417H :  0.86  156H :  0.82  395H :  0.82  145O :  0.82
  102H :  0.82  227H :  0.81   44H :  0.80  752H :  0.80  491H :  0.79  659H :  0.77  740H :  0.76  212H :  0.76   55O :  0.76  523O :  0.74  715O :  0.74  233H :  0.73
  599H :  0.73  447H :  0.72  175O :  0.71  494H :  0.70   86H :  0.70  234H :  0.69  160O :  0.69  509H :  0.66  565O :  0.66  374H :  0.65  309H :  0.64  369H :  0.64
  542H :  0.63  644H :  0.62  255H :  0.62  198H :  0.61  481O :  0.59  486H :  0.59  650H :  0.58   35H :  0.57  119H :  0.57   77H :  0.57  736O :  0.56  555H :  0.56
  185H :  0.54  144H :  0.54  302H :  0.54  406O :  0.52  400O :  0.52  621H :  0.51  510H :  0.51  324H :  0.50   62H :  0.50  467H :  0.50  453H :  0.50  701H :  0.49
  610O :  0.48   84H :  0.47   52O :  0.47  656H :  0.47  660H :  0.47   89H :  0.47   78H :  0.47  711H :  0.47  714H :  0.46  104H :  0.46  284H :  0.46  462H :  0.45
  578H :  0.45  505O :  0.44  328O :  0.42  419H :  0.42  321H :  0.41  719H :  0.40   18H :  0.40  567H :  0.40   29H :  0.39  546H :  0.39  210H :  0.38  704H :  0.38
  591H :  0.38  437H :  0.37  343O :  0.37  338H :  0.37  182H :  0.37  375H :  0.36  461H :  0.35  515H :  0.35  193O :  0.35  645H :  0.35   26H :  0.34  582H :  0.34
  444H :  0.34  694O :  0.34  584H :  0.34  528H :  0.34  399H :  0.34  213H :  0.34  705H :  0.34  698H :  0.33  379O :  0.33  206H :  0.32  423H :  0.31  477H :  0.31
  331O :  0.31  172O :  0.31  744H :  0.30  677H :  0.30  260H :  0.30  266H :  0.30  317H :  0.29   68H :  0.29  358O :  0.28  540H :  0.27  414H :  0.27  387H :  0.27
  120H :  0.27   71H :  0.26  267H :  0.26  569H :  0.26  341H :  0.26  534H :  0.25  492H :  0.25  731H :  0.25   74H :  0.25  459H :  0.24  137H :  0.24  587H :  0.24
  543H :  0.24   32H :  0.24  273H :  0.24  502O :  0.23  111H :  0.23  252H :  0.23  249H :  0.23  220O :  0.22  125H :  0.22   12H :  0.22  157O :  0.22  332H :  0.22
   99H :  0.21  135H :  0.21  405H :  0.21  566H :  0.21  597H :  0.21  246H :  0.21  326H :  0.21  368H :  0.21  251H :  0.21  245H :  0.20  410H :  0.20  450H :  0.20
  347H :  0.20  623H :  0.20  741H :  0.20  482H :  0.20  285H :  0.19   48H :  0.19   27H :  0.18   93H :  0.18  108H :  0.18  536H :  0.18   57H :  0.18  116H :  0.17
  311H :  0.17  297H :  0.17  377H :  0.17   30H :  0.17  215H :  0.17  654H :  0.17  603H :  0.17  464H :  0.17  579H :  0.17  438H :  0.16  407H :  0.16  411H :  0.16
  131H :  0.16  678H :  0.16  258H :  0.16  162H :  0.16  114H :  0.16  441H :  0.15  615H :  0.15    9H :  0.15  548H :  0.15   80H :  0.15  749H :  0.15  518H :  0.14
  707H :  0.14  365H :  0.14  473H :  0.14  456H :  0.14  594H :  0.14  174H :  0.14  737H :  0.13  350H :  0.13  746H :  0.13   50H :  0.13  146H :  0.13  381H :  0.13
  440H :  0.12  360H :  0.12  612H :  0.12  243H :  0.12  420H :  0.12  189H :  0.12  230H :  0.12  158H :  0.12  282H :  0.12  117H :  0.12  296H :  0.12  522H :  0.12
  188H :  0.12   66H :  0.12  141H :  0.12  320H :  0.11  560H :  0.11   83H :  0.11  465H :  0.11  269H :  0.11  278H :  0.11  167H :  0.11  611H :  0.11  176H :  0.11
  545H :  0.11   24H :  0.11   45H :  0.11  455H :  0.10  734H :  0.10  191H :  0.10  721O :  0.10  564H :  0.10   53H :  0.10  750H :  0.10  725H :  0.10   39H :  0.10
  588H :  0.09   56H :  0.09  402H :  0.09  240H :  0.09  629H :  0.09  354H :  0.09  378H :  0.09  726H :  0.09  557H :  0.09  686H :  0.09   23H :  0.09  672H :  0.09
  692H :  0.09  371H :  0.09  312H :  0.09  195H :  0.09  668H :  0.09  134H :  0.09   42H :  0.08  489H :  0.08  126H :  0.08  219H :  0.08  393H :  0.08  596H :  0.08
   33H :  0.08   95H :  0.08  434H :  0.08  236H :  0.08  383H :  0.08  218H :  0.08  443H :  0.08  336H :  0.08  177H :  0.07  171H :  0.07  429H :  0.07  330H :  0.07
  485H :  0.07  474H :  0.07   60H :  0.07
    7 LP   *******   0.00 -34.62218  -1.40948   5.55268  100O : 19.64   58O : 17.97  364O : 13.21   61O : 12.37  106O : 12.10  409O : 11.96  454O : 11.57  226O : 11.37   31O : 10.82  508O : 10.76  490O : 10.75  118O : 10.58
  154O : 10.26  661O : 10.17  181O :  9.84  280O :  9.25  196O :  9.20  232O :  9.11   49O :  9.05  487O :  8.95  697O :  8.83  433O :  8.57  544O :  8.36   88O :  8.14
  367O :  7.97  250O :  7.36  586O :  7.27   43O :  7.16  658O :  7.14   16O :  7.02  478O :  6.63  301O :  6.41  451O :  6.40  739O :  6.36   94O :  6.36  370O :  6.32
  211O :  6.27  373O :  6.13  676O :  6.03  670O :  6.00  547O :  5.76  202O :  5.72  643O :  5.71  418O :  5.52  394O :  5.41  649O :  5.32  475O :  5.25   34O :  5.24
  526O :  5.18  619O :  5.18   25O :  5.17  754O :  5.16  187O :  5.01  598O :  4.95  139O :  4.90  703O :  4.89   97O :  4.84  577O :  4.84  628O :  4.79  190O :  4.74
  436O :  4.73  466O :  4.64  130O :  4.59  415O :  4.55  496O :  4.54  199O :  4.49  442O :  4.47  124O :  4.37   13O :  4.35  298O :  4.31  625O :  4.25  706O :  4.21
   76O :  4.15   64O :  4.13  709O :  4.10  403O :  4.06  253O :  4.01  604O :  3.96   70O :  3.93  397O :  3.90  214O :  3.80   19O :  3.78  322O :  3.77  751O :  3.74
   28O :  3.60    7O :  3.54  259O :  3.49  574O :  3.49   46O :  3.43  268O :  3.43  109O :  3.41  361O :  3.40  667O :  3.40  217O :  3.32  151O :  3.31  136O :  3.30
  256O :  3.28  112O :  3.27  283O :  3.25  520O :  3.20  484O :  3.20  271O :  3.18  421O :  3.17  349O :  3.14  127O :  3.14  583O :  3.14  541O :  3.11    4O :  3.11
   37O :  3.06  571O :  2.99  238O :  2.93  532O :  2.92  550O :  2.91  265O :  2.90  742O :  2.90  427O :  2.87  568O :  2.82  223O :  2.79  166O :  2.78  622O :  2.78
  460O :  2.77  319O :  2.73  178O :  2.66   63H :  2.65  745O :  2.64  208O :  2.61  229O :  2.60  580O :  2.60  499O :  2.49  115O :  2.48  682O :  2.45  673O :  2.45
  469O :  2.44  538O :  2.40   79O :  2.36  700O :  2.32  340O :  2.31  655O :  2.24   82O :  2.23  733O :  2.16  553O :  2.16  382O :  2.14  589O :  2.11  286O :  2.11
  424O :  2.05   91O :  2.04  493O :  2.03  439O :  2.00  559O :  1.99  262O :  1.93  679O :  1.92  448O :  1.91  637O :  1.91  730O :  1.90  205O :  1.90  292O :  1.88
  277O :  1.87  376O :  1.83  652O :  1.80  640O :  1.78   73O :  1.77  601O :  1.75  517O :  1.74  595O :  1.71  142O :  1.67  148O :  1.67  244O :  1.65  535O :  1.62
   10O :  1.59  385O :  1.59  488H :  1.55  184O :  1.50  529O :  1.50  388O :  1.50  691O :  1.49  457O :  1.49  307O :  1.49  313O :  1.48  325O :  1.48  662H :  1.46
  748O :  1.46  163O :  1.46  712O :  1.45   67O :  1.42    1O :  1.39  352O :  1.38  133O :  1.38  631O :  1.37  241O :  1.36  634O :  1.34  463O :  1.32  718O :  1.31
  592O :  1.31   15H :  1.29  310O :  1.28  556O :  1.28  304O :  1.27  445O :  1.26  274O :  1.26  316O :  1.26  295O :  1.21  346O :  1.20  334O :  1.19  514O :  1.19
  355O :  1.16  511O :  1.14   85O :  1.14  337O :  1.14  247O :  1.14  183H :  1.13  664O :  1.12  480H :  1.08  613O :  1.07  289O :  1.04  671H :  1.03  391O :  1.03
  562O :  1.02   17H :  1.01   40O :  0.96  103O :  0.95  472O :  0.93  646O :  0.93  607O :  0.93  412O :  0.91  390H :  0.90  724O :  0.89  294H :  0.89  616O :  0.87
   59H :  0.86  430O :  0.86  549H :  0.85  685O :  0.84  551H :  0.83   22O :  0.81  121O :  0.81  169O :  0.81  417H :  0.79  156H :  0.76  395H :  0.76  145O :  0.75
  102H :  0.75  227H :  0.75   44H :  0.74  752H :  0.73  491H :  0.73  659H :  0.71  740H :  0.70   55O :  0.70  212H :  0.70  523O :  0.68  715O :  0.68  233H :  0.67
  599H :  0.67  447H :  0.66  175O :  0.65   86H :  0.64  494H :  0.64  234H :  0.64  160O :  0.64  509H :  0.61  565O :  0.60  309H :  0.59  369H :  0.58  374H :  0.58
  542H :  0.58  255H :  0.58  644H :  0.57  198H :  0.56  481O :  0.54  486H :  0.54  119H :  0.53  650H :  0.53   35H :  0.53  736O :  0.52  555H :  0.52   77H :  0.52
  185H :  0.50  144H :  0.50  302H :  0.50  406O :  0.48  400O :  0.48  621H :  0.47  510H :  0.47  324H :  0.46  467H :  0.46  453H :  0.46  701H :  0.45  610O :  0.45
  656H :  0.43   52O :  0.43  660H :  0.43   89H :  0.43   84H :  0.43  711H :  0.43  714H :  0.43   78H :  0.43  104H :  0.43  284H :  0.43  462H :  0.41  578H :  0.41
  505O :  0.40  328O :  0.39  419H :  0.38  321H :  0.38  719H :  0.37  567H :  0.36   18H :  0.36   29H :  0.36   62H :  0.36  546H :  0.36  210H :  0.35  704H :  0.35
  591H :  0.35  437H :  0.34  343O :  0.34  338H :  0.34  182H :  0.34  375H :  0.34  461H :  0.32  515H :  0.32  193O :  0.32  645H :  0.32  582H :  0.31  444H :  0.31
  694O :  0.31  584H :  0.31  528H :  0.31  399H :  0.31   26H :  0.31  213H :  0.31  705H :  0.31  698H :  0.30  379O :  0.30  206H :  0.30  423H :  0.29  477H :  0.29
  331O :  0.28  172O :  0.28  744H :  0.28  677H :  0.28  260H :  0.27  266H :  0.27  317H :  0.27   68H :  0.26  358O :  0.26  120H :  0.25  540H :  0.25  414H :  0.25
  387H :  0.25   71H :  0.24  267H :  0.24  569H :  0.24  341H :  0.24  534H :  0.23  492H :  0.23  731H :  0.23   74H :  0.23  459H :  0.22  587H :  0.22  137H :  0.22
  543H :  0.22   32H :  0.22  502O :  0.21  111H :  0.21  252H :  0.21  249H :  0.21  273H :  0.21  108H :  0.21  220O :  0.20  157O :  0.20   12H :  0.20  125H :  0.20
  332H :  0.20   99H :  0.20  135H :  0.20  566H :  0.19  597H :  0.19  326H :  0.19  246H :  0.19  368H :  0.19  450H :  0.19  251H :  0.19  245H :  0.19  410H :  0.19
  347H :  0.18  623H :  0.18  741H :  0.18  482H :  0.18   27H :  0.18  285H :  0.18   48H :  0.18  405H :  0.17  377H :  0.17   93H :  0.17  536H :  0.17   57H :  0.16
  116H :  0.16  311H :  0.16  297H :  0.16   30H :  0.16  215H :  0.16  603H :  0.15  654H :  0.15  464H :  0.15  579H :  0.15  438H :  0.15  407H :  0.15  411H :  0.15
  131H :  0.15  678H :  0.15  258H :  0.15  162H :  0.15  114H :  0.14  441H :  0.14  615H :  0.14    9H :  0.14  548H :  0.13   80H :  0.13  749H :  0.13   50H :  0.13
  518H :  0.13  707H :  0.13  365H :  0.13  473H :  0.13  456H :  0.13  594H :  0.13  174H :  0.13  737H :  0.12  350H :  0.12  746H :  0.12  146H :  0.12  381H :  0.12
  440H :  0.11  612H :  0.11  360H :  0.11  158H :  0.11  243H :  0.11  420H :  0.11  230H :  0.11  189H :  0.11  117H :  0.11  296H :  0.11  522H :  0.11  282H :  0.11
  188H :  0.11  141H :  0.11  560H :  0.11  320H :  0.10   66H :  0.10  465H :  0.10  269H :  0.10   83H :  0.10  278H :  0.10  167H :  0.10  611H :  0.10  176H :  0.10
   24H :  0.10  545H :  0.10   45H :  0.10  455H :  0.10  734H :  0.10  721O :  0.09  191H :  0.09  564H :  0.09   53H :  0.09  750H :  0.09   39H :  0.09  725H :  0.09
  588H :  0.09   56H :  0.09  402H :  0.09  240H :  0.09  629H :  0.08  354H :  0.08  726H :  0.08  557H :  0.08  686H :  0.08  672H :  0.08  692H :  0.08   23H :  0.08
  371H :  0.08  312H :  0.08  195H :  0.08  668H :  0.08  126H :  0.08  378H :  0.08  134H :  0.08   42H :  0.08  489H :  0.08  107H :  0.08  393H :  0.07  596H :  0.07
  219H :  0.07   33H :  0.07   95H :  0.07  434H :  0.07  236H :  0.07  218H :  0.07  383H :  0.07
    8 LP   *******   0.00 -35.14317 -18.46949  13.81435  100O : 19.18   58O : 17.55  364O : 12.89  118O : 12.08  106O : 11.81  409O : 11.68  454O : 11.30  226O : 11.10   31O : 10.56  508O : 10.51  490O : 10.50   61O : 10.14
  154O : 10.02  661O :  9.92  181O :  9.64  196O :  8.98  280O :  8.97  232O :  8.90  487O :  8.73   49O :  8.71  697O :  8.61  433O :  8.37  544O :  8.16   88O :  7.94
  367O :  7.78  250O :  7.18   43O :  6.99  658O :  6.97   16O :  6.92  586O :  6.56  478O :  6.47  301O :  6.25  451O :  6.25  739O :  6.21   94O :  6.20  370O :  6.17
  211O :  6.12  373O :  5.98  676O :  5.89  670O :  5.87  547O :  5.62  202O :  5.59  643O :  5.57  418O :  5.38  394O :  5.28  649O :  5.19  475O :  5.12   34O :  5.11
   25O :  5.11  619O :  5.05  526O :  5.05  754O :  5.03  187O :  4.89  598O :  4.83  139O :  4.78  703O :  4.77  577O :  4.73   97O :  4.72  628O :  4.68  190O :  4.63
  436O :  4.62  403O :  4.53  466O :  4.53  130O :  4.48  415O :  4.44  496O :  4.43  199O :  4.39  442O :  4.37  124O :  4.26   13O :  4.25  298O :  4.20  625O :  4.15
  706O :  4.11   76O :  4.08   64O :  4.03  709O :  4.01  253O :  3.92  604O :  3.86   70O :  3.84  397O :  3.81  214O :  3.71   19O :  3.69  322O :  3.68  751O :  3.65
   28O :  3.51    7O :  3.46  259O :  3.41  574O :  3.41  667O :  3.39   46O :  3.35  268O :  3.34  109O :  3.33  361O :  3.32  217O :  3.24  151O :  3.23  136O :  3.22
  256O :  3.20  112O :  3.19  283O :  3.18  271O :  3.13  520O :  3.13  484O :  3.12  421O :  3.10  349O :  3.07  127O :  3.07  583O :  3.06  541O :  3.04    4O :  3.03
   37O :  2.98  571O :  2.92  238O :  2.86  532O :  2.85  550O :  2.84  265O :  2.83  742O :  2.83  427O :  2.80  568O :  2.76  223O :  2.73  166O :  2.71  622O :  2.71
  460O :  2.70  319O :  2.67  178O :  2.60  745O :  2.57  208O :  2.55  229O :  2.54  580O :  2.53  499O :  2.43  115O :  2.42  682O :  2.40  673O :  2.39  469O :  2.39
  538O :  2.35   79O :  2.30  700O :  2.26  340O :  2.25  655O :  2.19   82O :  2.17  733O :  2.10  553O :  2.10  382O :  2.09  589O :  2.06  286O :  2.06  424O :  2.00
   91O :  2.00  493O :  1.97  439O :  1.96  559O :  1.95  262O :  1.88  679O :  1.87  448O :  1.87  637O :  1.87  730O :  1.86  205O :  1.85  292O :  1.83  277O :  1.82
  376O :  1.78  652O :  1.76  640O :  1.74   73O :  1.73  601O :  1.71  517O :  1.70   63H :  1.70  595O :  1.67  148O :  1.63  142O :  1.63  244O :  1.61  535O :  1.58
   10O :  1.55  385O :  1.55  488H :  1.51  184O :  1.47  388O :  1.46  529O :  1.46  691O :  1.46  457O :  1.45  307O :  1.45  313O :  1.45  325O :  1.44  662H :  1.42
  748O :  1.42  163O :  1.42  712O :  1.41   67O :  1.38    1O :  1.36  352O :  1.35  133O :  1.34  631O :  1.34  241O :  1.32  634O :  1.31  463O :  1.29  718O :  1.28
  592O :  1.28   15H :  1.26  310O :  1.25  556O :  1.25  304O :  1.24  445O :  1.23  274O :  1.23  316O :  1.23  295O :  1.18  346O :  1.18  334O :  1.17  514O :  1.16
  355O :  1.14  511O :  1.11   85O :  1.11  337O :  1.11  247O :  1.11  183H :  1.11  664O :  1.10  480H :  1.06  613O :  1.05  289O :  1.01  671H :  1.01  391O :  1.01
   17H :  1.00  562O :  0.99   40O :  0.94  103O :  0.92  472O :  0.91  646O :  0.91  607O :  0.91  412O :  0.89  390H :  0.88  724O :  0.87  294H :  0.87  616O :  0.85
   59H :  0.84  430O :  0.84  549H :  0.83  685O :  0.82  551H :  0.81  169O :  0.79   22O :  0.79  417H :  0.77  121O :  0.74  156H :  0.74  395H :  0.74  145O :  0.73
  102H :  0.73  227H :  0.73   44H :  0.72  752H :  0.72  491H :  0.71  659H :  0.69  740H :  0.69  212H :  0.68   55O :  0.68  523O :  0.67  715O :  0.66  233H :  0.66
  599H :  0.65  447H :  0.64  175O :  0.64  494H :  0.63   86H :  0.62  234H :  0.62  160O :  0.62  509H :  0.59  565O :  0.59  309H :  0.57  369H :  0.57  374H :  0.57
  542H :  0.56  255H :  0.56  644H :  0.56  198H :  0.55  481O :  0.53  486H :  0.53  650H :  0.52   35H :  0.51  736O :  0.51  555H :  0.51   77H :  0.51  185H :  0.49
  144H :  0.49  302H :  0.49  406O :  0.47  400O :  0.46  621H :  0.46  510H :  0.46  324H :  0.45  467H :  0.45  453H :  0.44  701H :  0.44  610O :  0.44  656H :  0.42
   52O :  0.42  119H :  0.42   62H :  0.42  660H :  0.42   89H :  0.42   78H :  0.42  711H :  0.42   84H :  0.42  714H :  0.42  104H :  0.42  284H :  0.41  462H :  0.40
  578H :  0.40  505O :  0.39  328O :  0.38  419H :  0.37  321H :  0.37  719H :  0.36  567H :  0.36   29H :  0.35  546H :  0.35  210H :  0.35  704H :  0.34  591H :  0.34
  437H :  0.34  343O :  0.34  338H :  0.33  182H :  0.33  375H :  0.33   18H :  0.32  461H :  0.32  515H :  0.32  193O :  0.31  645H :  0.31   26H :  0.31  582H :  0.31
  444H :  0.31  694O :  0.31  584H :  0.30  528H :  0.30  399H :  0.30  213H :  0.30  705H :  0.30  698H :  0.30  379O :  0.30  206H :  0.29  423H :  0.28  477H :  0.28
  331O :  0.28  172O :  0.28  744H :  0.27  677H :  0.27  260H :  0.27  266H :  0.27  317H :  0.26   68H :  0.26  358O :  0.25  540H :  0.24  414H :  0.24  387H :  0.24
   71H :  0.24  267H :  0.23  569H :  0.23  341H :  0.23  534H :  0.23  492H :  0.22  731H :  0.22   74H :  0.22  459H :  0.22  137H :  0.22  273H :  0.22  543H :  0.22
   32H :  0.21  587H :  0.21  502O :  0.21  111H :  0.21  252H :  0.21  249H :  0.21  108H :  0.20  332H :  0.20  220O :  0.20  157O :  0.20   12H :  0.20  125H :  0.20
   99H :  0.19  135H :  0.19  120H :  0.19  566H :  0.19  597H :  0.19  326H :  0.19  246H :  0.19  405H :  0.19  368H :  0.18  450H :  0.18  251H :  0.18  245H :  0.18
  410H :  0.18  347H :  0.18  623H :  0.18  741H :  0.18  482H :  0.18  285H :  0.17   48H :  0.17  377H :  0.16   27H :  0.16   93H :  0.16  536H :  0.16   57H :  0.16
  116H :  0.16  311H :  0.16  297H :  0.15   30H :  0.15  215H :  0.15  654H :  0.15  603H :  0.15  464H :  0.15  579H :  0.15  438H :  0.15  407H :  0.15  411H :  0.15
  131H :  0.15  678H :  0.14  258H :  0.14  162H :  0.14  114H :  0.14  441H :  0.14  615H :  0.14    9H :  0.13  548H :  0.13   80H :  0.13  749H :  0.13  518H :  0.13
  707H :  0.13  365H :  0.13  473H :  0.12  456H :  0.12  594H :  0.12  174H :  0.12  737H :  0.12  350H :  0.12   50H :  0.12  746H :  0.12  146H :  0.11  381H :  0.11
  440H :  0.11  360H :  0.11  612H :  0.11  158H :  0.11  243H :  0.11  420H :  0.11  230H :  0.11  189H :  0.11  117H :  0.11  282H :  0.11  296H :  0.11  522H :  0.11
  188H :  0.11  141H :  0.10  560H :  0.10  320H :  0.10   66H :  0.10  465H :  0.10  269H :  0.10   83H :  0.10  278H :  0.10  167H :  0.10  611H :  0.10  176H :  0.10
  545H :  0.10   24H :  0.10   45H :  0.10  455H :  0.09  734H :  0.09  721O :  0.09  191H :  0.09  564H :  0.09   53H :  0.09  750H :  0.09  725H :  0.09   39H :  0.09
  402H :  0.08  240H :  0.08  629H :  0.08  354H :  0.08  726H :  0.08  557H :  0.08  686H :  0.08  672H :  0.08   23H :  0.08  692H :  0.08  371H :  0.08  312H :  0.08
   56H :  0.08  195H :  0.08  126H :  0.08  378H :  0.08  134H :  0.08   42H :  0.08  668H :  0.08  489H :  0.07  107H :  0.07  393H :  0.07  596H :  0.07  219H :  0.07
   33H :  0.07
    9 LP   *******   0.00 -72.25582  45.97417 -25.87678  100O : 18.83   58O : 17.24  364O : 12.66  154O : 12.34  106O : 11.60  409O : 11.47  454O : 11.09  226O : 10.90   31O : 10.37  508O : 10.32  490O : 10.31  118O : 10.06
   61O : 10.02  661O :  9.75  181O :  9.47  280O :  8.85  196O :  8.82  232O :  8.74  487O :  8.58   49O :  8.55  697O :  8.46  433O :  8.22  544O :  8.01   88O :  7.80
  367O :  7.64  250O :  7.06  586O :  6.96   43O :  6.87  658O :  6.85   16O :  6.76  478O :  6.36  301O :  6.14  451O :  6.14  739O :  6.10   94O :  6.09  370O :  6.06
  211O :  6.01  373O :  5.88  676O :  5.78  670O :  5.76  547O :  5.52  202O :  5.49  643O :  5.47  418O :  5.29  394O :  5.19  649O :  5.10  475O :  5.03   34O :  5.02
   25O :  5.02  526O :  4.96  619O :  4.96  754O :  4.94  187O :  4.80  598O :  4.75  139O :  4.70  703O :  4.68  577O :  4.64   97O :  4.64  628O :  4.60  190O :  4.55
  436O :  4.54  403O :  4.50  466O :  4.45  130O :  4.40  415O :  4.37  496O :  4.35  199O :  4.31  442O :  4.29  124O :  4.19   13O :  4.18  298O :  4.13  625O :  4.08
  706O :  4.04   76O :  4.01   64O :  3.96  709O :  3.93  253O :  3.85  604O :  3.79   70O :  3.77  397O :  3.74  214O :  3.65   19O :  3.62  322O :  3.62  751O :  3.59
   28O :  3.45    7O :  3.40  259O :  3.35  574O :  3.35   46O :  3.29  268O :  3.28  109O :  3.27  361O :  3.26  667O :  3.26  217O :  3.18  151O :  3.17  136O :  3.17
  256O :  3.14  283O :  3.12  112O :  3.10  271O :  3.08  520O :  3.07  484O :  3.07  349O :  3.05  421O :  3.04  127O :  3.01  583O :  3.01  541O :  2.98    4O :  2.98
   37O :  2.93  571O :  2.87  238O :  2.80  532O :  2.80  550O :  2.79  265O :  2.78  742O :  2.78  427O :  2.75  568O :  2.70  223O :  2.68  166O :  2.67  622O :  2.66
  460O :  2.65  319O :  2.62  178O :  2.55  745O :  2.53  208O :  2.50  229O :  2.49  580O :  2.49  499O :  2.39  115O :  2.37  682O :  2.35  673O :  2.35  469O :  2.34
  538O :  2.30   79O :  2.26  700O :  2.22  340O :  2.21  655O :  2.15   82O :  2.13  733O :  2.07  553O :  2.07  382O :  2.05  589O :  2.03  286O :  2.02  424O :  1.96
   91O :  1.96  493O :  1.94  439O :  1.92  559O :  1.91  262O :  1.85  679O :  1.84  448O :  1.83  637O :  1.83  730O :  1.82  205O :  1.82  292O :  1.80  277O :  1.79
  376O :  1.75  652O :  1.73  640O :  1.71   73O :  1.70  601O :  1.68  517O :  1.67  595O :  1.64   63H :  1.64  148O :  1.60  142O :  1.60  244O :  1.58  535O :  1.55
  385O :  1.52   10O :  1.52  488H :  1.49  184O :  1.44  388O :  1.44  529O :  1.43  691O :  1.43  457O :  1.43  307O :  1.43  313O :  1.42  325O :  1.41  662H :  1.40
  748O :  1.40  163O :  1.40  712O :  1.39   67O :  1.36    1O :  1.34  241O :  1.33  352O :  1.33  133O :  1.32  631O :  1.32  634O :  1.29  463O :  1.27  718O :  1.26
  592O :  1.25   15H :  1.24  316O :  1.23  310O :  1.23  556O :  1.22  304O :  1.22  445O :  1.21  274O :  1.21  346O :  1.16  334O :  1.15  514O :  1.14  355O :  1.13
  295O :  1.10  511O :  1.09   85O :  1.09  247O :  1.09  337O :  1.09  183H :  1.09  664O :  1.08  480H :  1.04  613O :  1.03  289O :  0.99  671H :  0.99  391O :  0.99
   17H :  0.98  562O :  0.97   40O :  0.92  103O :  0.91  472O :  0.90  646O :  0.90  607O :  0.89  412O :  0.88  390H :  0.87  724O :  0.85  294H :  0.85  616O :  0.83
   59H :  0.83  430O :  0.83  549H :  0.81  685O :  0.81  551H :  0.80  121O :  0.78   22O :  0.78  169O :  0.77  417H :  0.76  395H :  0.72  145O :  0.72  102H :  0.72
  227H :  0.71   44H :  0.71  752H :  0.70  491H :  0.70  659H :  0.68  740H :  0.67  212H :  0.67   55O :  0.67  523O :  0.66  715O :  0.65  233H :  0.64  156H :  0.64
  599H :  0.64  447H :  0.63  175O :  0.63  494H :  0.61   86H :  0.61  234H :  0.61  160O :  0.61  509H :  0.58  565O :  0.58  309H :  0.56  369H :  0.56  374H :  0.56
  542H :  0.55  255H :  0.55  644H :  0.55  198H :  0.54  481O :  0.52  486H :  0.52  650H :  0.51   35H :  0.50  119H :  0.50   77H :  0.50  736O :  0.50  555H :  0.50
  185H :  0.48  144H :  0.48  302H :  0.48  400O :  0.46  406O :  0.45  621H :  0.45  510H :  0.45  324H :  0.45   62H :  0.44  467H :  0.44  453H :  0.44  701H :  0.43
  610O :  0.43   52O :  0.42  656H :  0.42  660H :  0.42   89H :  0.41   78H :  0.41   84H :  0.41  711H :  0.41  714H :  0.41  104H :  0.41  284H :  0.41  462H :  0.40
  578H :  0.39  505O :  0.39  317H :  0.37  328O :  0.37  419H :  0.37  321H :  0.36  719H :  0.35   18H :  0.35  567H :  0.35   29H :  0.35  546H :  0.34  210H :  0.34
  704H :  0.34  591H :  0.33  437H :  0.33  343O :  0.33  338H :  0.33  182H :  0.33  375H :  0.32  461H :  0.31  515H :  0.31  193O :  0.31  645H :  0.31   26H :  0.30
  582H :  0.30  444H :  0.30  694O :  0.30  584H :  0.30  528H :  0.30  399H :  0.30  213H :  0.30  705H :  0.30  698H :  0.29  379O :  0.29  206H :  0.28  423H :  0.28
  477H :  0.27  331O :  0.27  172O :  0.27  744H :  0.27  677H :  0.26  260H :  0.26  266H :  0.26   68H :  0.25  358O :  0.25  540H :  0.24  414H :  0.24  387H :  0.24
  120H :  0.23   71H :  0.23  267H :  0.23  569H :  0.23  341H :  0.23  534H :  0.22  492H :  0.22  731H :  0.22   74H :  0.22  459H :  0.21  137H :  0.21  587H :  0.21
  543H :  0.21   32H :  0.21  273H :  0.21  502O :  0.21  111H :  0.21  252H :  0.20  249H :  0.20  108H :  0.20  220O :  0.20  157O :  0.20   12H :  0.19  125H :  0.19
  332H :  0.19   99H :  0.19  405H :  0.19  135H :  0.19  566H :  0.19  597H :  0.19  326H :  0.18  246H :  0.18  368H :  0.18  450H :  0.18  251H :  0.18  245H :  0.18
  410H :  0.18  347H :  0.17  623H :  0.17  741H :  0.17  482H :  0.17   48H :  0.17  285H :  0.17  377H :  0.16   27H :  0.16   93H :  0.16  536H :  0.16   57H :  0.16
  116H :  0.15  311H :  0.15   30H :  0.15  215H :  0.15  297H :  0.15  603H :  0.15  654H :  0.15  464H :  0.15  579H :  0.15  407H :  0.15  438H :  0.14  411H :  0.14
[...]
   370   8 o    1.844 --   372 h    0.916   371 h    0.833
   371   1 h    0.880 --   370 o    0.833
   372   1 h    0.921 --   370 o    0.916
   373   8 o    1.815 --   375 h    0.873   374 h    0.822
   374   1 h    0.886 --   373 o    0.822
   375   1 h    0.900 --   373 o    0.873
   376   8 o    1.831 --   378 h    0.836   377 h    0.800
   377   1 h    0.876 --   376 o    0.800
   378   1 h    0.894 --   376 o    0.836
   379   8 o    1.859 --   381 h    0.829   380 h    0.809
   380   1 h    0.876 --   379 o    0.809
   381   1 h    0.886 --   379 o    0.829
   382   8 o    1.870 --   384 h    0.853   383 h    0.795
   383   1 h    0.870 --   382 o    0.795
   384   1 h    0.886 --   382 o    0.853
   385   8 o    1.865 --   387 h    0.917   386 h    0.780
   386   1 h    0.877 --   385 o    0.780
   387   1 h    0.922 --   385 o    0.917
   388   8 o    1.859 --   389 h    0.829   390 h    0.791
   389   1 h    0.873 --   388 o    0.829
   390   1 h    0.878 --   388 o    0.791
   391   8 o    1.832 --   392 h    0.873   393 h    0.803
   392   1 h    0.906 --   391 o    0.873
   393   1 h    0.880 --   391 o    0.803
   394   8 o    1.853 --   396 h    0.873   395 h    0.824
   395   1 h    0.891 --   394 o    0.824
   396   1 h    0.900 --   394 o    0.873
   397   8 o    1.846 --   399 h    0.903   398 h    0.778
   398   1 h    0.866 --   397 o    0.778
   399   1 h    0.912 --   397 o    0.903
   400   8 o    1.815 --   401 h    0.914   402 h    0.813
   401   1 h    0.920 --   400 o    0.914
   402   1 h    0.881 --   400 o    0.813
   403   8 o    1.853 --   405 h    0.847   404 h    0.813
   404   1 h    0.882 --   403 o    0.813
   405   1 h    0.887 --   403 o    0.847
   406   8 o    1.854 --   407 h    0.830   408 h    0.818
   407   1 h    0.877 --   406 o    0.830
   408   1 h    0.882 --   406 o    0.818
   409   8 o    1.834 --   411 h    0.866   410 h    0.844
   410   1 h    0.891 --   409 o    0.844
   411   1 h    0.888 --   409 o    0.866
   412   8 o    1.865 --   413 h    0.835   414 h    0.817
   413   1 h    0.881 --   412 o    0.835
   414   1 h    0.871 --   412 o    0.817
   415   8 o    1.842 --   416 h    0.859   417 h    0.841
   416   1 h    0.897 --   415 o    0.859
   417   1 h    0.886 --   415 o    0.841
   418   8 o    1.857 --   420 h    0.865   419 h    0.865
   419   1 h    0.892 --   418 o    0.865
   420   1 h    0.888 --   418 o    0.865
   421   8 o    1.854 --   422 h    0.803   423 h    0.798
   422   1 h    0.874 --   421 o    0.803
   423   1 h    0.884 --   421 o    0.798
   424   8 o    1.851 --   426 h    0.830   425 h    0.802
   425   1 h    0.881 --   424 o    0.802
   426   1 h    0.892 --   424 o    0.830
   427   8 o    1.864 --   428 h    0.827   429 h    0.822
   428   1 h    0.879 --   427 o    0.827
   429   1 h    0.889 --   427 o    0.822
   430   8 o    1.862 --   432 h    0.853   431 h    0.792
   431   1 h    0.870 --   430 o    0.792
   432   1 h    0.889 --   430 o    0.853
   433   8 o    1.826 --   434 h    0.883   435 h    0.810
   434   1 h    0.904 --   433 o    0.883
   435   1 h    0.883 --   433 o    0.810
   436   8 o    1.845 --   437 h    0.888   438 h    0.815
   437   1 h    0.904 --   436 o    0.888
   438   1 h    0.883 --   436 o    0.815
   439   8 o    1.867 --   440 h    0.822   441 h    0.806
   440   1 h    0.890 --   439 o    0.822
   441   1 h    0.883 --   439 o    0.806
   442   8 o    1.823 --   444 h    0.835   443 h    0.830
   443   1 h    0.886 --   442 o    0.830
   444   1 h    0.892 --   442 o    0.835
   445   8 o    1.865 --   447 h    0.850   446 h    0.827
   446   1 h    0.877 --   445 o    0.827
   447   1 h    0.888 --   445 o    0.850
   448   8 o    1.853 --   449 h    0.841   450 h    0.841
   449   1 h    0.886 --   448 o    0.841
   450   1 h    0.890 --   448 o    0.841
   451   8 o    1.864 --   452 h    0.866   453 h    0.783
   452   1 h    0.901 --   451 o    0.866
   453   1 h    0.872 --   451 o    0.783
   454   8 o    1.835 --   455 h    0.832   456 h    0.816
   455   1 h    0.886 --   454 o    0.832
   456   1 h    0.880 --   454 o    0.816
   457   8 o    1.864 --   458 h    0.846   459 h    0.824
   458   1 h    0.894 --   457 o    0.846
   459   1 h    0.878 --   457 o    0.824
   460   8 o    1.844 --   461 h    0.805   462 h    0.804
   461   1 h    0.878 --   460 o    0.805
   462   1 h    0.881 --   460 o    0.804
   463   8 o    1.861 --   464 h    0.877   465 h    0.807
   464   1 h    0.905 --   463 o    0.877
   465   1 h    0.880 --   463 o    0.807
   466   8 o    1.834 --   467 h    0.889   468 h    0.853
   467   1 h    0.904 --   466 o    0.889
   468   1 h    0.892 --   466 o    0.853
   469   8 o    1.848 --   470 h    0.917   471 h    0.841
   470   1 h    0.922 --   469 o    0.917
   471   1 h    0.881 --   469 o    0.841
   472   8 o    1.830 --   474 h    0.906   473 h    0.815
   473   1 h    0.883 --   472 o    0.815
   474   1 h    0.915 --   472 o    0.906
   475   8 o    1.875 --   476 h    0.815   477 h    0.810
   476   1 h    0.877 --   475 o    0.815
   477   1 h    0.875 --   475 o    0.810
   478   8 o    1.861 --   480 h    0.865   479 h    0.804
   479   1 h    0.878 --   478 o    0.804
   480   1 h    0.902 --   478 o    0.865
   481   8 o    1.826 --   483 h    0.866   482 h    0.850
   482   1 h    0.888 --   481 o    0.850
   483   1 h    0.900 --   481 o    0.866
   484   8 o    1.845 --   486 h    0.913   485 h    0.802
   485   1 h    0.882 --   484 o    0.802
   486   1 h    0.921 --   484 o    0.913
   487   8 o    1.849 --   489 h    0.864   488 h    0.854
   488   1 h    0.891 --   487 o    0.854
   489   1 h    0.897 --   487 o    0.864
   490   8 o    1.848 --   491 h    0.866   492 h    0.809
   491   1 h    0.899 --   490 o    0.866
   492   1 h    0.878 --   490 o    0.809
   493   8 o    1.857 --   494 h    0.836   495 h    0.814
   494   1 h    0.874 --   493 o    0.836
   495   1 h    0.884 --   493 o    0.814
   496   8 o    1.831 --   497 h    0.915   498 h    0.801
   497   1 h    0.920 --   496 o    0.915
   498   1 h    0.877 --   496 o    0.801
   499   8 o    1.870 --   501 h    0.820   500 h    0.785
   500   1 h    0.876 --   499 o    0.785
   501   1 h    0.891 --   499 o    0.820
   502   8 o    1.854 --   504 h    0.836   503 h    0.814
   503   1 h    0.885 --   502 o    0.814
   504   1 h    0.888 --   502 o    0.836
   505   8 o    1.857 --   507 h    0.874   506 h    0.811
   506   1 h    0.870 --   505 o    0.811
   507   1 h    0.898 --   505 o    0.874
   508   8 o    1.869 --   509 h    0.844   510 h    0.809
   509   1 h    0.876 --   508 o    0.844
   510   1 h    0.872 --   508 o    0.809
   511   8 o    1.859 --   513 h    0.877   512 h    0.826
   512   1 h    0.883 --   511 o    0.826
   513   1 h    0.899 --   511 o    0.877
   514   8 o    1.800 --   516 h    0.847   515 h    0.826
   515   1 h    0.887 --   514 o    0.826
   516   1 h    0.897 --   514 o    0.847
   517   8 o    1.861 --   519 h    0.877   518 h    0.855
   518   1 h    0.893 --   517 o    0.855
   519   1 h    0.898 --   517 o    0.877
   520   8 o    1.867 --   522 h    0.911   521 h    0.803
   521   1 h    0.872 --   520 o    0.803
   522   1 h    0.917 --   520 o    0.911
   523   8 o    1.870 --   525 h    0.909   524 h    0.795
   524   1 h    0.869 --   523 o    0.795
   525   1 h    0.914 --   523 o    0.909
   526   8 o    1.829 --   528 h    0.867   527 h    0.808
   527   1 h    0.878 --   526 o    0.808
   528   1 h    0.903 --   526 o    0.867
   529   8 o    1.844 --   531 h    0.842   530 h    0.808
   530   1 h    0.880 --   529 o    0.808
   531   1 h    0.892 --   529 o    0.842
   532   8 o    1.855 --   533 h    0.918   534 h    0.804
   533   1 h    0.922 --   532 o    0.918
   534   1 h    0.884 --   532 o    0.804
   535   8 o    1.848 --   536 h    0.862   537 h    0.841
   536   1 h    0.894 --   535 o    0.862
   537   1 h    0.891 --   535 o    0.841
   538   8 o    1.829 --   540 h    0.883   539 h    0.834
   539   1 h    0.890 --   538 o    0.834
   540   1 h    0.902 --   538 o    0.883
   541   8 o    1.824 --   542 h    0.849   543 h    0.839
   542   1 h    0.892 --   541 o    0.849
   543   1 h    0.895 --   541 o    0.839
   544   8 o    1.811 --   545 h    0.844   546 h    0.828
   545   1 h    0.892 --   544 o    0.844
   546   1 h    0.894 --   544 o    0.828
   547   8 o    1.843 --   549 h    0.815   548 h    0.806
   548   1 h    0.874 --   547 o    0.806
   549   1 h    0.887 --   547 o    0.815
   550   8 o    1.866 --   551 h    0.864   552 h    0.782
   551   1 h    0.896 --   550 o    0.864
   552   1 h    0.871 --   550 o    0.782
   553   8 o    1.842 --   555 h    0.819   554 h    0.810
   554   1 h    0.887 --   553 o    0.810
   555   1 h    0.892 --   553 o    0.819
   556   8 o    1.854 --   557 h    0.827   558 h    0.798
   557   1 h    0.891 --   556 o    0.827
   558   1 h    0.874 --   556 o    0.798
   559   8 o    1.890 --   561 h    0.823   560 h    0.800
   560   1 h    0.883 --   559 o    0.800
   561   1 h    0.871 --   559 o    0.823
   562   8 o    1.848 --   563 h    0.839   564 h    0.839
   563   1 h    0.895 --   562 o    0.839
   564   1 h    0.881 --   562 o    0.839
   565   8 o    1.883 --   566 h    0.836   567 h    0.818
   566   1 h    0.888 --   565 o    0.836
   567   1 h    0.879 --   565 o    0.818
   568   8 o    1.877 --   569 h    0.841   570 h    0.837   233 h    0.100
   569   1 h    0.894 --   568 o    0.841
   570   1 h    0.888 --   568 o    0.837
   571   8 o    1.821 --   572 h    0.834   573 h    0.831
   572   1 h    0.882 --   571 o    0.834
   573   1 h    0.881 --   571 o    0.831
   574   8 o    1.843 --   575 h    0.861   576 h    0.839
   575   1 h    0.895 --   574 o    0.861
   576   1 h    0.893 --   574 o    0.839
   577   8 o    1.849 --   579 h    0.879   578 h    0.817
   578   1 h    0.887 --   577 o    0.817
   579   1 h    0.901 --   577 o    0.879
   580   8 o    1.883 --   581 h    0.889   582 h    0.772
   581   1 h    0.904 --   580 o    0.889
   582   1 h    0.871 --   580 o    0.772
   583   8 o    1.828 --   585 h    0.900   584 h    0.866
   584   1 h    0.893 --   583 o    0.866
   585   1 h    0.909 --   583 o    0.900
   586   8 o    1.837 --   587 h    0.902   588 h    0.756
   587   1 h    0.913 --   586 o    0.902
   588   1 h    0.870 --   586 o    0.756   118 o    0.107
   589   8 o    1.825 --   590 h    0.825   591 h    0.783
   590   1 h    0.883 --   589 o    0.825
   591   1 h    0.878 --   589 o    0.783
   592   8 o    1.821 --   593 h    0.826   594 h    0.818
   593   1 h    0.890 --   592 o    0.826
   594   1 h    0.881 --   592 o    0.818
   595   8 o    1.857 --   596 h    0.902   597 h    0.789
   596   1 h    0.912 --   595 o    0.902
   597   1 h    0.878 --   595 o    0.789
   598   8 o    1.863 --   600 h    0.856   599 h    0.807
   599   1 h    0.882 --   598 o    0.807
   600   1 h    0.897 --   598 o    0.856
   601   8 o    1.835 --   602 h    0.868   603 h    0.814
   602   1 h    0.899 --   601 o    0.868
   603   1 h    0.882 --   601 o    0.814
   604   8 o    1.847 --   606 h    0.829   605 h    0.821
   605   1 h    0.888 --   604 o    0.821
   606   1 h    0.891 --   604 o    0.829
   607   8 o    1.854 --   609 h    0.831   608 h    0.828
   608   1 h    0.880 --   607 o    0.828
   609   1 h    0.891 --   607 o    0.831
   610   8 o    1.831 --   611 h    0.861   612 h    0.814
   611   1 h    0.893 --   610 o    0.861
   612   1 h    0.882 --   610 o    0.814
   613   8 o    1.857 --   614 h    0.855   615 h    0.850
   614   1 h    0.898 --   613 o    0.855
   615   1 h    0.887 --   613 o    0.850
   616   8 o    1.841 --   618 h    0.907   617 h    0.798
   617   1 h    0.878 --   616 o    0.798
   618   1 h    0.916 --   616 o    0.907
   619   8 o    1.853 --   620 h    0.870   621 h    0.860
   620   1 h    0.892 --   619 o    0.870
   621   1 h    0.894 --   619 o    0.860
   622   8 o    1.843 --   623 h    0.919   624 h    0.818
   623   1 h    0.923 --   622 o    0.919
   624   1 h    0.883 --   622 o    0.818
   625   8 o    1.846 --   627 h    0.916   626 h    0.771
   626   1 h    0.875 --   625 o    0.771   328 o    0.101
   627   1 h    0.921 --   625 o    0.916
   628   8 o    1.866 --   630 h    0.833   629 h    0.798
   629   1 h    0.878 --   628 o    0.798
   630   1 h    0.881 --   628 o    0.833
   631   8 o    1.891 --   633 h    0.821   632 h    0.820
   632   1 h    0.886 --   631 o    0.820
   633   1 h    0.873 --   631 o    0.821
   634   8 o    1.853 --   636 h    0.848   635 h    0.833
   635   1 h    0.891 --   634 o    0.833
   636   1 h    0.894 --   634 o    0.848
   637   8 o    1.832 --   639 h    0.846   638 h    0.842
   638   1 h    0.889 --   637 o    0.842
   639   1 h    0.889 --   637 o    0.846
   640   8 o    1.853 --   642 h    0.832   641 h    0.817
   641   1 h    0.887 --   640 o    0.817
   642   1 h    0.887 --   640 o    0.832
   643   8 o    1.843 --   644 h    0.871   645 h    0.844
   644   1 h    0.900 --   643 o    0.871
   645   1 h    0.895 --   643 o    0.844
   646   8 o    1.829 --   647 h    0.853   648 h    0.826
   647   1 h    0.894 --   646 o    0.853
   648   1 h    0.889 --   646 o    0.826
   649   8 o    1.837 --   651 h    0.918   650 h    0.812
   650   1 h    0.886 --   649 o    0.812
   651   1 h    0.923 --   649 o    0.918
   652   8 o    1.856 --   653 h    0.920   654 h    0.810
   653   1 h    0.922 --   652 o    0.920
   654   1 h    0.880 --   652 o    0.810
   655   8 o    1.867 --   656 h    0.823   657 h    0.804
   656   1 h    0.889 --   655 o    0.823
   657   1 h    0.877 --   655 o    0.804
   658   8 o    1.853 --   660 h    0.856   659 h    0.827
   659   1 h    0.885 --   658 o    0.827
   660   1 h    0.896 --   658 o    0.856
   661   8 o    1.853 --   663 h    0.834   662 h    0.802
   662   1 h    0.871 --   661 o    0.802
   663   1 h    0.887 --   661 o    0.834
   664   8 o    1.837 --   665 h    0.868   666 h    0.816
   665   1 h    0.900 --   664 o    0.868
   666   1 h    0.881 --   664 o    0.816
   667   8 o    1.829 --   668 h    0.853   669 h    0.846
   668   1 h    0.896 --   667 o    0.853
   669   1 h    0.882 --   667 o    0.846
   670   8 o    1.859 --   671 h    0.835   672 h    0.818
   671   1 h    0.888 --   670 o    0.835
   672   1 h    0.876 --   670 o    0.818
   673   8 o    1.870 --   674 h    0.849   675 h    0.827
   674   1 h    0.878 --   673 o    0.849
   675   1 h    0.884 --   673 o    0.827
   676   8 o    1.853 --   677 h    0.880   678 h    0.853
   677   1 h    0.898 --   676 o    0.880
   678   1 h    0.896 --   676 o    0.853
   679   8 o    1.874 --   680 h    0.823   681 h    0.808
   680   1 h    0.894 --   679 o    0.823
   681   1 h    0.881 --   679 o    0.808
   682   8 o    1.850 --   683 h    0.826   684 h    0.817
   683   1 h    0.879 --   682 o    0.826
   684   1 h    0.890 --   682 o    0.817
   685   8 o    1.827 --   686 h    0.842   687 h    0.841
   686   1 h    0.893 --   685 o    0.842
   687   1 h    0.893 --   685 o    0.841
   688   8 o    1.840 --   690 h    0.844   689 h    0.844
   689   1 h    0.890 --   688 o    0.844
   690   1 h    0.895 --   688 o    0.844
   691   8 o    1.856 --   692 h    0.848   693 h    0.823
   692   1 h    0.892 --   691 o    0.848
   693   1 h    0.887 --   691 o    0.823
   694   8 o    1.839 --   695 h    0.843   696 h    0.832
   695   1 h    0.893 --   694 o    0.843
   696   1 h    0.888 --   694 o    0.832
   697   8 o    1.844 --   699 h    0.847   698 h    0.831
   698   1 h    0.885 --   697 o    0.831
   699   1 h    0.895 --   697 o    0.847
   700   8 o    1.858 --   702 h    0.838   701 h    0.809
   701   1 h    0.876 --   700 o    0.809
   702   1 h    0.888 --   700 o    0.838
   703   8 o    1.835 --   705 h    0.855   704 h    0.825
   704   1 h    0.883 --   703 o    0.825
   705   1 h    0.896 --   703 o    0.855
   706   8 o    1.867 --   708 h    0.833   707 h    0.827
   707   1 h    0.883 --   706 o    0.827
   708   1 h    0.876 --   706 o    0.833
   709   8 o    1.874 --   710 h    0.909   711 h    0.824
   710   1 h    0.916 --   709 o    0.909
   711   1 h    0.881 --   709 o    0.824
   712   8 o    1.848 --   714 h    0.852   713 h    0.801
   713   1 h    0.882 --   712 o    0.801
   714   1 h    0.894 --   712 o    0.852
   715   8 o    1.869 --   717 h    0.873   716 h    0.790
   716   1 h    0.875 --   715 o    0.790
   717   1 h    0.896 --   715 o    0.873
   718   8 o    1.827 --   719 h    0.843   720 h    0.842
   719   1 h    0.894 --   718 o    0.843
   720   1 h    0.890 --   718 o    0.842
   721   8 o    1.840 --   722 h    0.850   723 h    0.835
   722   1 h    0.883 --   721 o    0.850
   723   1 h    0.888 --   721 o    0.835
   724   8 o    1.872 --   725 h    0.832   726 h    0.806
   725   1 h    0.889 --   724 o    0.832
   726   1 h    0.883 --   724 o    0.806
   727   8 o    1.854 --   729 h    0.861   728 h    0.853
   728   1 h    0.895 --   727 o    0.853
   729   1 h    0.894 --   727 o    0.861
   730   8 o    1.873 --   732 h    0.840   731 h    0.826
   731   1 h    0.892 --   730 o    0.826
   732   1 h    0.883 --   730 o    0.840
   733   8 o    1.847 --   735 h    0.885   734 h    0.850
   734   1 h    0.893 --   733 o    0.850
   735   1 h    0.905 --   733 o    0.885
   736   8 o    1.864 --   738 h    0.891   737 h    0.832
   737   1 h    0.878 --   736 o    0.832
   738   1 h    0.907 --   736 o    0.891
   739   8 o    1.855 --   740 h    0.902   741 h    0.839
   740   1 h    0.910 --   739 o    0.902
   741   1 h    0.890 --   739 o    0.839
   742   8 o    1.845 --   744 h    0.905   743 h    0.791
   743   1 h    0.869 --   742 o    0.791
   744   1 h    0.914 --   742 o    0.905
   745   8 o    1.865 --   746 h    0.830   747 h    0.823
   746   1 h    0.887 --   745 o    0.830
   747   1 h    0.892 --   745 o    0.823
   748   8 o    1.833 --   749 h    0.842   750 h    0.799
   749   1 h    0.888 --   748 o    0.842
   750   1 h    0.874 --   748 o    0.799
   751   8 o    1.851 --   753 h    0.828   752 h    0.790
   752   1 h    0.872 --   751 o    0.790
   753   1 h    0.880 --   751 o    0.828
   754   8 o    1.864 --   755 h    0.879   756 h    0.849
   755   1 h    0.889 --   754 o    0.879
   756   1 h    0.881 --   754 o    0.849
 ---------------------------------------------------------------------------

Topologies differ in total number of bonds
Writing topology from bond orders to xtbtopo.mol

molecular dipole:
                 x           y           z       tot (Debye)
 q only:        3.991       0.806      -2.285
   full:        4.964       1.057      -3.301      15.388
molecular quadrupole (traceless):
                xx          xy          yy          xz          yz          zz
 q only:      -14.139      16.413     -13.194    -111.923      51.557      27.333
  q+dip:       12.140      44.716     -34.933    -168.857      71.881      22.793
   full:       14.877      46.440     -35.810    -169.990      72.029      20.933


           -------------------------------------------------
          | TOTAL ENERGY            -1283.315774798253 Eh   |
          | GRADIENT NORM               0.104180091388 Eh/α |
          | HOMO-LUMO GAP               6.429870889073 eV   |
           -------------------------------------------------

------------------------------------------------------------------------
 * finished run on 2022/11/24 at 12:22:37.678     
------------------------------------------------------------------------
 total:
 * wall-time:     0 d,  0 h,  0 min, 56.844 sec
 *  cpu-time:     0 d,  0 h,  1 min, 13.676 sec
 * ratio c/w:     1.296 speedup
 SCF:
 * wall-time:     0 d,  0 h,  0 min, 55.789 sec
 *  cpu-time:     0 d,  0 h,  1 min, 11.924 sec
 * ratio c/w:     1.289 speedup

