      -----------------------------------------------------------      
     |                   =====================                   |     
     |                           x T B                           |     
     |                   =====================                   |     
     |                         S. Grimme                         |     
     |          Mulliken Center for Theoretical Chemistry        |     
     |                    University of Bonn                     |     
      -----------------------------------------------------------      

   * xtb version 6.5.1 (579679a) compiled by 'ehlert@majestix' on 2022-07-11

   xtb is free software: you can redistribute it and/or modify it under
   the terms of the GNU Lesser General Public License as published by
   the Free Software Foundation, either version 3 of the License, or
   (at your option) any later version.
   
   xtb is distributed in the hope that it will be useful,
   but WITHOUT ANY WARRANTY; without even the implied warranty of
   MERCHANTABILITY or FITNESS FOR A PARTICULAR PURPOSE.  See the
   GNU Lesser General Public License for more details.
   
   Cite this work as:
   * C. Bannwarth, E. Caldeweyher, S. Ehlert, A. Hansen, P. Pracht,
     J. Seibert, S. Spicher, S. Grimme, WIREs Comput. Mol. Sci., 2020, 11,
     e01493. DOI: 10.1002/wcms.1493
   
   for GFN2-xTB:
   * C. Bannwarth, S. Ehlert and S. Grimme., J. Chem. Theory Comput., 2019,
     15, 1652-1671. DOI: 10.1021/acs.jctc.8b01176
   for GFN1-xTB:
   * S. Grimme, C. Bannwarth, P. Shushkov, J. Chem. Theory Comput., 2017,
     13, 1989-2009. DOI: 10.1021/acs.jctc.7b00118
   for GFN0-xTB:
   * P. Pracht, E. Caldeweyher, S. Ehlert, S. Grimme, ChemRxiv, 2019, preprint.
     DOI: 10.26434/chemrxiv.8326202.v1
   for GFN-FF:
   * S. Spicher and S. Grimme, Angew. Chem. Int. Ed., 2020, 59, 15665-15673.
     DOI: 10.1002/anie.202004239
   
   for ALPB and GBSA implicit solvation:
   * S. Ehlert, M. Stahn, S. Spicher, S. Grimme, J. Chem. Theory Comput.,
     2021, 17, 4250-4261. DOI: 10.1021/acs.jctc.1c00471
   
   for DFT-D4:
   * E. Caldeweyher, C. Bannwarth and S. Grimme, J. Chem. Phys., 2017,
     147, 034112. DOI: 10.1063/1.4993215
   * E. Caldeweyher, S. Ehlert, A. Hansen, H. Neugebauer, S. Spicher,
     C. Bannwarth and S. Grimme, J. Chem. Phys., 2019, 150, 154122.
     DOI: 10.1063/1.5090222
   * E. Caldeweyher, J.-M. Mewes, S. Ehlert and S. Grimme, Phys. Chem. Chem. Phys.
     2020, 22, 8499-8512. DOI: 10.1039/D0CP00502A
   
   for sTDA-xTB:
   * S. Grimme and C. Bannwarth, J. Chem. Phys., 2016, 145, 054103.
     DOI: 10.1063/1.4959605
   
   in the mass-spec context:
   * V. Asgeirsson, C. Bauer and S. Grimme, Chem. Sci., 2017, 8, 4879.
     DOI: 10.1039/c7sc00601b
   * J. Koopman and S. Grimme, ACS Omega 2019, 4, 12, 15120-15133.
     DOI: 10.1021/acsomega.9b02011
   
   for metadynamics refer to:
   * S. Grimme, J. Chem. Theory Comput., 2019, 155, 2847-2862
     DOI: 10.1021/acs.jctc.9b00143
   
   for SPH calculations refer to:
   * S. Spicher and S. Grimme, J. Chem. Theory Comput., 2021, 17, 1701-1714
     DOI: 10.1021/acs.jctc.0c01306
   
   with help from (in alphabetical order)
   P. Atkinson, C. Bannwarth, F. Bohle, G. Brandenburg, E. Caldeweyher
   M. Checinski, S. Dohm, S. Ehlert, S. Ehrlich, I. Gerasimov, C. Hölzer
   A. Katbashev, J. Koopman, C. Lavigne, S. Lehtola, F. März, M. Müller,
   F. Musil, H. Neugebauer, J. Pisarek, C. Plett, P. Pracht, F. Pultar,
   J. Seibert, P. Shushkov, S. Spicher, M. Stahn, M. Steiner, T. Strunk,
   J. Stückrath, T. Rose, and J. Unsleber
   
 * started run on 2022/11/24 at 12:21:16.684     

           -------------------------------------------------
          |                Calculation Setup                |
           -------------------------------------------------

          program call               : xtb xtbopt.coord --gfn2 --sp --gbsa water
          hostname                   : cn0430
          coordinate file            : xtbopt.coord
          omp threads                :                     2

   ID    Z sym.   atoms
    1    8 o      1, 4, 7, 10, 13, 16, 19, 22, 25, 28, 31, 34, 37, 40, 43,
                  46, 49, 52, 55, 58, 61, 64, 67, 70, 73, 76, 79, 82, 85, 88,
                  91, 94, 97, 100, 103, 106, 109, 112, 115, 118, 121, 124,
                  127, 130, 133, 136, 139, 142, 145, 148, 151, 154, 157, 160,
                  163, 166, 169, 172, 175, 178, 181, 184, 187, 190, 193, 196,
                  199, 202, 205, 208, 211, 214, 217, 220, 223, 226, 229, 232,
                  235, 238, 241, 244, 247, 250, 253, 256, 259, 262, 265, 268,
                  271, 274, 277, 280, 283, 286, 289, 292, 295, 298, 301, 304,
                  307, 310, 313, 316, 319, 322, 325, 328, 331, 334, 337, 340,
                  343, 346, 349, 352, 355, 358, 361, 364, 367, 370, 373, 376,
                  379, 382, 385, 388, 391, 394, 397, 400, 403, 406, 409, 412,
                  415, 418, 421, 424, 427, 430, 433, 436, 439, 442, 445, 448,
                  451, 454, 457, 460, 463, 466, 469, 472, 475, 478, 481, 484,
                  487, 490, 493, 496, 499, 502, 505, 508, 511, 514, 517, 520,
                  523, 526, 529, 532, 535, 538, 541, 544, 547, 550, 553, 556,
                  559, 562, 565, 568, 571, 574, 577, 580, 583, 586, 589, 592,
                  595, 598, 601, 604, 607, 610, 613, 616, 619, 622, 625, 628,
                  631, 634, 637, 640, 643, 646, 649, 652, 655, 658, 661, 664,
                  667, 670, 673, 676, 679, 682, 685, 688, 691, 694, 697, 700,
                  703, 706, 709, 712, 715, 718, 721, 724, 727, 730, 733, 736,
                  739, 742, 745, 748, 751, 754
    2    1 h      2, 3, 5, 6, 8, 9, 11, 12, 14, 15, 17, 18, 20, 21, 23, 24,
                  26, 27, 29, 30, 32, 33, 35, 36, 38, 39, 41, 42, 44, 45, 47,
                  48, 50, 51, 53, 54, 56, 57, 59, 60, 62, 63, 65, 66, 68, 69,
                  71, 72, 74, 75, 77, 78, 80, 81, 83, 84, 86, 87, 89, 90, 92,
                  93, 95, 96, 98, 99, 101, 102, 104, 105, 107, 108, 110, 111,
                  113, 114, 116, 117, 119, 120, 122, 123, 125, 126, 128, 129,
                  131, 132, 134, 135, 137, 138, 140, 141, 143, 144, 146, 147,
                  149, 150, 152, 153, 155, 156, 158, 159, 161, 162, 164, 165,
                  167, 168, 170, 171, 173, 174, 176, 177, 179, 180, 182, 183,
                  185, 186, 188, 189, 191, 192, 194, 195, 197, 198, 200, 201,
                  203, 204, 206, 207, 209, 210, 212, 213, 215, 216, 218, 219,
                  221, 222, 224, 225, 227, 228, 230, 231, 233, 234, 236, 237,
                  239, 240, 242, 243, 245, 246, 248, 249, 251, 252, 254, 255,
                  257, 258, 260, 261, 263, 264, 266, 267, 269, 270, 272, 273,
                  275, 276, 278, 279, 281, 282, 284, 285, 287, 288, 290, 291,
                  293, 294, 296, 297, 299, 300, 302, 303, 305, 306, 308, 309,
                  311, 312, 314, 315, 317, 318, 320, 321, 323, 324, 326, 327,
                  329, 330, 332, 333, 335, 336, 338, 339, 341, 342, 344, 345,
                  347, 348, 350, 351, 353, 354, 356, 357, 359, 360, 362, 363,
                  365, 366, 368, 369, 371, 372, 374, 375, 377, 378, 380, 381,
                  383, 384, 386, 387, 389, 390, 392, 393, 395, 396, 398, 399,
                  401, 402, 404, 405, 407, 408, 410, 411, 413, 414, 416, 417,
                  419, 420, 422, 423, 425, 426, 428, 429, 431, 432, 434, 435,
                  437, 438, 440, 441, 443, 444, 446, 447, 449, 450, 452, 453,
                  455, 456, 458, 459, 461, 462, 464, 465, 467, 468, 470, 471,
                  473, 474, 476, 477, 479, 480, 482, 483, 485, 486, 488, 489,
                  491, 492, 494, 495, 497, 498, 500, 501, 503, 504, 506, 507,
                  509, 510, 512, 513, 515, 516, 518, 519, 521, 522, 524, 525,
                  527, 528, 530, 531, 533, 534, 536, 537, 539, 540, 542, 543,
                  545, 546, 548, 549, 551, 552, 554, 555, 557, 558, 560, 561,
                  563, 564, 566, 567, 569, 570, 572, 573, 575, 576, 578, 579,
                  581, 582, 584, 585, 587, 588, 590, 591, 593, 594, 596, 597,
                  599, 600, 602, 603, 605, 606, 608, 609, 611, 612, 614, 615,
                  617, 618, 620, 621, 623, 624, 626, 627, 629, 630, 632, 633,
                  635, 636, 638, 639, 641, 642, 644, 645, 647, 648, 650, 651,
                  653, 654, 656, 657, 659, 660, 662, 663, 665, 666, 668, 669,
                  671, 672, 674, 675, 677, 678, 680, 681, 683, 684, 686, 687,
                  689, 690, 692, 693, 695, 696, 698, 699, 701, 702, 704, 705,
                  707, 708, 710, 711, 713, 714, 716, 717, 719, 720, 722, 723,
                  725, 726, 728, 729, 731, 732, 734, 735, 737, 738, 740, 741,
                  743, 744, 746, 747, 749, 750, 752, 753, 755, 756

molecular fragmentation (1/2 indicates fragments):
111222222222222222222222222222222222222222222222222222222222222222222222
222222222222222222222222222222222222222222222222222222222222222222222222
222222222222222222222222222222222222222222222222222222222222222222222222
222222222222222222222222222222222222222222222222222222222222222222222222
222222222222222222222222222222222222222222222222222222222222222222222222
222222222222222222222222222222222222222222222222222222222222222222222222
222222222222222222222222222222222222222222222222222222222222222222222222
222222222222222222222222222222222222222222222222222222222222222222222222
222222222222222222222222222222222222222222222222222222222222222222222222
222222222222222222222222222222222222222222222222222222222222222222222222
222222222222222222222222222222222222
# atoms in fragment 1/2:     3   753
 fragment masses (1/2) :       18.02     4521.84
CMA distance (Bohr)    :  18.633
constraining FC (au)   :  0.0500

           -------------------------------------------------
          |                 G F N 2 - x T B                 |
           -------------------------------------------------

        Reference                      10.1021/acs.jctc.8b01176
      * Hamiltonian:
        H0-scaling (s, p, d)           1.850000    2.230000    2.230000
        zeta-weighting                 0.500000
      * Dispersion:
        s8                             2.700000
        a1                             0.520000
        a2                             5.000000
        s9                             5.000000
      * Repulsion:
        kExp                           1.500000    1.000000
        rExp                           1.000000
      * Coulomb:
        alpha                          2.000000
        third order                    shell-resolved
        anisotropic                    true
        a3                             3.000000
        a5                             4.000000
        cn-shift                       1.200000
        cn-exp                         4.000000
        max-rad                        5.000000

      * Solvation model:               GBSA
        Solvent                        water
        Parameter file                 internal GFN2-xTB/GBSA
        Dielectric constant                8.0200E+01
        Reference state                gsolv [1 M gas/solution]
        Free energy shift                  1.8574E-03 Eh       1.1656E+00 kcal/mol
        Temperature                        2.9815E+02 K
        Density                            1.0000E+00 kg/L
        Solvent mass                       1.8000E+01 g/mol
        Interaction kernel             Still
        Born radius scaling (c1)           1.5524E+00
        Born radii integrator          GBOBC
        Born offset                        2.4628E-02 a0       4.6540E-02 AA
        H-bond correction              true
        Ion screening                  false
        Surface tension                    1.0000E-05 Eh       1.5569E+01 dyn/cm
        Grid points                               230 per atom

          ...................................................
          :                      SETUP                      :
          :.................................................:
          :  # basis functions                1512          :
          :  # atomic orbitals                1512          :
          :  # shells                         1008          :
          :  # electrons                      2016          :
          :  max. iterations                   250          :
          :  Hamiltonian                  GFN2-xTB          :
          :  restarted?                      false          :
          :  GBSA solvation                   true          :
          :  PC potential                    false          :
          :  electronic temp.          300.0000000     K    :
          :  accuracy                    1.0000000          :
          :  -> integral cutoff          0.2500000E+02      :
          :  -> integral neglect         0.1000000E-07      :
          :  -> SCF convergence          0.1000000E-05 Eh   :
          :  -> wf. convergence          0.1000000E-03 e    :
          :  Broyden damping             0.4000000          :
          ...................................................

 iter      E             dE          RMSdq      gap      omega  full diag
   1  -1291.2466250 -0.129125E+04  0.409E+00    8.33       0.0  T
   2  -1291.3319423 -0.853174E-01  0.242E+00    8.01       1.0  T
   3  -1291.3681480 -0.362056E-01  0.226E-01    7.16       1.0  T
   4  -1291.3736663 -0.551838E-02  0.487E-02    7.39       1.0  T
   5  -1291.3738340 -0.167619E-03  0.312E-02    7.35       1.0  T
   6  -1291.3738834 -0.494649E-04  0.384E-03    7.35       1.0  T
   7  -1291.3738852 -0.178510E-05  0.957E-04    7.35       3.8  T
   8  -1291.3738853 -0.110438E-06  0.478E-04    7.35       7.6  T
   9  -1291.3738854 -0.387081E-07  0.139E-04    7.35      26.2  T

   *** convergence criteria satisfied after 9 iterations ***

         #    Occupation            Energy/Eh            Energy/eV
      -------------------------------------------------------------
         1        2.0000           -0.6472361             -17.6122
       ...           ...                  ...                  ...
      1002        2.0000           -0.3357643              -9.1366
      1003        2.0000           -0.3305335              -8.9943
      1004        2.0000           -0.3291932              -8.9578
      1005        2.0000           -0.3268332              -8.8936
      1006        2.0000           -0.3251718              -8.8484
      1007        2.0000           -0.3228317              -8.7847
      1008        2.0000           -0.3226549              -8.7799 (HOMO)
      1009                         -0.0526894              -1.4338 (LUMO)
      1010                         -0.0430120              -1.1704
      1011                         -0.0358701              -0.9761
      1012                         -0.0335377              -0.9126
      1013                         -0.0260319              -0.7084
       ...                                ...                  ...
      1512                          0.5204173              14.1613
      -------------------------------------------------------------
                  HL-Gap            0.2699655 Eh            7.3461 eV
             Fermi-level           -0.1876721 Eh           -5.1068 eV

 SCC (total)                   0 d,  0 h,  0 min, 22.531 sec
 SCC setup                      ...        0 min,  0.118 sec (  0.523%)
 Dispersion                     ...        0 min,  0.116 sec (  0.516%)
 classical contributions        ...        0 min,  0.023 sec (  0.104%)
 integral evaluation            ...        0 min,  0.630 sec (  2.796%)
 iterations                     ...        0 min,  8.803 sec ( 39.070%)
 molecular gradient             ...        0 min, 12.770 sec ( 56.678%)
 printout                       ...        0 min,  0.070 sec (  0.313%)

         :::::::::::::::::::::::::::::::::::::::::::::::::::::
         ::                     SUMMARY                     ::
         :::::::::::::::::::::::::::::::::::::::::::::::::::::
         :: total energy           -1283.565773204430 Eh    ::
         :: total w/o Gsasa/hb     -1283.331687690958 Eh    ::
         :: gradient norm              0.125592382461 Eh/a0 ::
         :: HOMO-LUMO gap              7.346136230638 eV    ::
         ::.................................................::
         :: SCC energy             -1291.373885354187 Eh    ::
         :: -> isotropic ES            7.342762743093 Eh    ::
         :: -> anisotropic ES         -1.633398341528 Eh    ::
         :: -> anisotropic XC         -0.120424968092 Eh    ::
         :: -> dispersion             -0.802122057767 Eh    ::
         :: -> Gsolv                  -0.267861600302 Eh    ::
         ::    -> Gelec               -0.033776086830 Eh    ::
         ::    -> Gsasa                0.005292463277 Eh    ::
         ::    -> Ghb                 -0.241235419876 Eh    ::
         ::    -> Gshift               0.001857443127 Eh    ::
         :: repulsion energy           7.647938471180 Eh    ::
         :: add. restraining           0.000000000000 Eh    ::
         :: total charge              -0.000000000000 e     ::
         :::::::::::::::::::::::::::::::::::::::::::::::::::::

           -------------------------------------------------
          |                Property Printout                |
           -------------------------------------------------

    * Orbital Energies and Occupations

         #    Occupation            Energy/Eh            Energy/eV
      -------------------------------------------------------------
         1        2.0000           -0.6472361             -17.6122
       ...           ...                  ...                  ...
       996        2.0000           -0.3411695              -9.2837
       997        2.0000           -0.3405802              -9.2677
       998        2.0000           -0.3404175              -9.2632
       999        2.0000           -0.3380124              -9.1978
      1000        2.0000           -0.3375614              -9.1855
      1001        2.0000           -0.3370064              -9.1704
      1002        2.0000           -0.3357643              -9.1366
      1003        2.0000           -0.3305335              -8.9943
      1004        2.0000           -0.3291932              -8.9578
      1005        2.0000           -0.3268332              -8.8936
      1006        2.0000           -0.3251718              -8.8484
      1007        2.0000           -0.3228317              -8.7847
      1008        2.0000           -0.3226549              -8.7799 (HOMO)
      1009                         -0.0526894              -1.4338 (LUMO)
      1010                         -0.0430120              -1.1704
      1011                         -0.0358701              -0.9761
      1012                         -0.0335377              -0.9126
      1013                         -0.0260319              -0.7084
      1014                         -0.0175678              -0.4780
      1015                         -0.0158578              -0.4315
      1016                         -0.0107645              -0.2929
      1017                         -0.0071970              -0.1958
      1018                         -0.0032536              -0.0885
      1019                          0.0020787               0.0566
       ...                                ...                  ...
      1512                          0.5204173              14.1613
      -------------------------------------------------------------
                  HL-Gap            0.2699655 Eh            7.3461 eV
             Fermi-level           -0.1876721 Eh           -5.1068 eV

     #   Z          covCN         q      C6AA      α(0)
     1   8 o        1.609    -0.629    25.887     6.867
     2   1 h        0.806     0.312     0.686     1.301
     3   1 h        0.804     0.334     0.626     1.243
     4   8 o        1.607    -0.698    27.649     7.097
     5   1 h        0.803     0.344     0.602     1.219
     6   1 h        0.804     0.342     0.608     1.225
     7   8 o        1.607    -0.687    27.358     7.059
     8   1 h        0.803     0.356     0.574     1.190
     9   1 h        0.805     0.332     0.633     1.250
    10   8 o        1.608    -0.688    27.394     7.064
    11   1 h        0.804     0.343     0.605     1.222
    12   1 h        0.804     0.340     0.612     1.229
    13   8 o        1.610    -0.688    27.402     7.065
    14   1 h        0.805     0.329     0.640     1.256
    15   1 h        0.805     0.336     0.622     1.239
    16   8 o        1.608    -0.687    27.365     7.060
    17   1 h        0.803     0.352     0.583     1.199
    18   1 h        0.805     0.326     0.648     1.264
    19   8 o        1.606    -0.700    27.717     7.105
    20   1 h        0.803     0.354     0.579     1.195
    21   1 h        0.803     0.362     0.560     1.176
    22   8 o        1.610    -0.665    26.790     6.986
    23   1 h        0.805     0.324     0.654     1.270
    24   1 h        0.805     0.347     0.595     1.212
    25   8 o        1.609    -0.665    26.801     6.987
    26   1 h        0.804     0.351     0.585     1.202
    27   1 h        0.805     0.335     0.624     1.241
    28   8 o        1.608    -0.672    26.972     7.009
    29   1 h        0.803     0.339     0.615     1.232
    30   1 h        0.804     0.353     0.581     1.197
    31   8 o        1.606    -0.690    27.454     7.072
    32   1 h        0.803     0.347     0.597     1.213
    33   1 h        0.803     0.347     0.596     1.213
    34   8 o        1.606    -0.710    27.970     7.138
    35   1 h        0.803     0.345     0.600     1.217
    36   1 h        0.804     0.365     0.555     1.170
    37   8 o        1.608    -0.679    27.146     7.032
    38   1 h        0.804     0.335     0.624     1.241
    39   1 h        0.804     0.341     0.609     1.226
    40   8 o        1.607    -0.677    27.094     7.025
    41   1 h        0.803     0.351     0.586     1.203
    42   1 h        0.804     0.348     0.594     1.210
    43   8 o        1.607    -0.702    27.766     7.112
    44   1 h        0.804     0.344     0.603     1.220
    45   1 h        0.804     0.350     0.588     1.205
    46   8 o        1.609    -0.691    27.470     7.074
    47   1 h        0.805     0.329     0.640     1.256
    48   1 h        0.804     0.351     0.586     1.202
    49   8 o        1.607    -0.712    28.042     7.147
    50   1 h        0.804     0.331     0.634     1.251
    51   1 h        0.803     0.331     0.634     1.251
    52   8 o        1.608    -0.680    27.172     7.035
    53   1 h        0.804     0.334     0.626     1.243
    54   1 h        0.804     0.344     0.603     1.220
    55   8 o        1.608    -0.653    26.490     6.946
    56   1 h        0.805     0.315     0.678     1.294
    57   1 h        0.803     0.350     0.589     1.206
    58   8 o        1.607    -0.662    26.718     6.976
    59   1 h        0.804     0.334     0.627     1.244
    60   1 h        0.803     0.337     0.619     1.236
    61   8 o        1.608    -0.680    27.189     7.037
    62   1 h        0.805     0.330     0.637     1.254
    63   1 h        0.803     0.341     0.609     1.226
    64   8 o        1.609    -0.677    27.103     7.026
    65   1 h        0.804     0.347     0.596     1.213
    66   1 h        0.805     0.343     0.606     1.222
    67   8 o        1.610    -0.695    27.582     7.088
    68   1 h        0.804     0.346     0.597     1.214
    69   1 h        0.804     0.340     0.613     1.229
    70   8 o        1.609    -0.677    27.114     7.028
    71   1 h        0.805     0.334     0.628     1.245
    72   1 h        0.804     0.321     0.661     1.277
    73   8 o        1.609    -0.666    26.830     6.991
    74   1 h        0.804     0.352     0.584     1.200
    75   1 h        0.805     0.325     0.650     1.267
    76   8 o        1.607    -0.696    27.606     7.091
    77   1 h        0.804     0.336     0.623     1.240
    78   1 h        0.803     0.340     0.613     1.230
    79   8 o        1.606    -0.706    27.868     7.125
    80   1 h        0.803     0.349     0.592     1.209
    81   1 h        0.803     0.346     0.598     1.214
    82   8 o        1.608    -0.682    27.234     7.043
    83   1 h        0.804     0.343     0.606     1.222
    84   1 h        0.804     0.362     0.562     1.178
    85   8 o        1.608    -0.680    27.188     7.037
    86   1 h        0.804     0.332     0.632     1.248
    87   1 h        0.804     0.349     0.591     1.208
    88   8 o        1.607    -0.692    27.507     7.079
    89   1 h        0.803     0.353     0.582     1.198
    90   1 h        0.804     0.360     0.565     1.181
    91   8 o        1.608    -0.669    26.900     7.000
    92   1 h        0.804     0.343     0.605     1.222
    93   1 h        0.804     0.333     0.631     1.248
    94   8 o        1.607    -0.692    27.491     7.076
    95   1 h        0.803     0.344     0.603     1.220
    96   1 h        0.804     0.353     0.580     1.197
    97   8 o        1.609    -0.690    27.454     7.072
    98   1 h        0.805     0.355     0.577     1.193
    99   1 h        0.804     0.334     0.626     1.243
   100   8 o        1.607    -0.688    27.395     7.064
   101   1 h        0.804     0.344     0.603     1.219
   102   1 h        0.804     0.345     0.600     1.216
   103   8 o        1.603    -0.729    28.488     7.203
   104   1 h        0.803     0.351     0.586     1.203
   105   1 h        0.803     0.364     0.556     1.171
   106   8 o        1.609    -0.665    26.784     6.985
   107   1 h        0.804     0.358     0.569     1.185
   108   1 h        0.805     0.329     0.639     1.256
   109   8 o        1.609    -0.680    27.193     7.038
   110   1 h        0.805     0.347     0.594     1.211
   111   1 h        0.804     0.352     0.584     1.201
   112   8 o        1.608    -0.671    26.955     7.007
   113   1 h        0.804     0.344     0.601     1.218
   114   1 h        0.804     0.336     0.622     1.239
   115   8 o        1.607    -0.685    27.315     7.054
   116   1 h        0.804     0.325     0.649     1.266
   117   1 h        0.803     0.356     0.574     1.190
   118   8 o        1.610    -0.674    27.034     7.017
   119   1 h        0.804     0.346     0.598     1.215
   120   1 h        0.804     0.356     0.575     1.191
   121   8 o        1.607    -0.685    27.310     7.053
   122   1 h        0.803     0.349     0.590     1.206
   123   1 h        0.803     0.359     0.569     1.185
   124   8 o        1.607    -0.703    27.782     7.114
   125   1 h        0.804     0.343     0.605     1.222
   126   1 h        0.803     0.336     0.621     1.238
   127   8 o        1.609    -0.674    27.027     7.017
   128   1 h        0.804     0.342     0.607     1.224
   129   1 h        0.805     0.329     0.640     1.257
   130   8 o        1.607    -0.671    26.951     7.007
   131   1 h        0.805     0.332     0.632     1.248
   132   1 h        0.802     0.342     0.608     1.225
   133   8 o        1.607    -0.670    26.935     7.005
   134   1 h        0.803     0.349     0.590     1.206
   135   1 h        0.804     0.332     0.632     1.249
   136   8 o        1.608    -0.670    26.914     7.002
   137   1 h        0.803     0.346     0.598     1.215
   138   1 h        0.805     0.317     0.672     1.288
   139   8 o        1.607    -0.685    27.323     7.055
   140   1 h        0.803     0.339     0.615     1.232
   141   1 h        0.804     0.346     0.599     1.215
   142   8 o        1.608    -0.684    27.295     7.051
   143   1 h        0.803     0.361     0.563     1.178
   144   1 h        0.805     0.321     0.661     1.277
   145   8 o        1.606    -0.691    27.462     7.073
   146   1 h        0.802     0.332     0.633     1.249
   147   1 h        0.803     0.344     0.604     1.220
   148   8 o        1.606    -0.698    27.664     7.099
   149   1 h        0.803     0.348     0.593     1.210
   150   1 h        0.804     0.347     0.596     1.213
   151   8 o        1.607    -0.690    27.438     7.070
   152   1 h        0.802     0.363     0.558     1.174
   153   1 h        0.804     0.324     0.654     1.271
   154   8 o        1.607    -0.688    27.400     7.065
   155   1 h        0.805     0.327     0.646     1.262
   156   1 h        0.802     0.355     0.577     1.194
   157   8 o        1.606    -0.708    27.917     7.131
   158   1 h        0.803     0.351     0.586     1.203
   159   1 h        0.804     0.356     0.574     1.190
   160   8 o        1.608    -0.686    27.349     7.058
   161   1 h        0.804     0.348     0.592     1.209
   162   1 h        0.804     0.334     0.627     1.244
   163   8 o        1.608    -0.691    27.473     7.074
   164   1 h        0.804     0.331     0.634     1.251
   165   1 h        0.804     0.350     0.588     1.204
   166   8 o        1.610    -0.668    26.875     6.997
   167   1 h        0.805     0.341     0.611     1.227
   168   1 h        0.804     0.326     0.648     1.265
   169   8 o        1.608    -0.687    27.355     7.059
   170   1 h        0.804     0.325     0.652     1.268
   171   1 h        0.804     0.360     0.567     1.182
   172   8 o        1.609    -0.673    27.012     7.015
   173   1 h        0.804     0.328     0.642     1.259
   174   1 h        0.805     0.330     0.636     1.253
   175   8 o        1.607    -0.697    27.644     7.096
   176   1 h        0.803     0.349     0.592     1.208
   177   1 h        0.804     0.345     0.600     1.217
   178   8 o        1.608    -0.690    27.436     7.069
   179   1 h        0.803     0.347     0.596     1.213
   180   1 h        0.804     0.327     0.645     1.261
   181   8 o        1.607    -0.699    27.683     7.101
   182   1 h        0.803     0.360     0.567     1.182
   183   1 h        0.803     0.346     0.598     1.215
   184   8 o        1.608    -0.689    27.419     7.067
   185   1 h        0.804     0.342     0.608     1.225
   186   1 h        0.804     0.330     0.638     1.255
   187   8 o        1.606    -0.723    28.321     7.182
   188   1 h        0.803     0.334     0.626     1.243
   189   1 h        0.803     0.342     0.609     1.225
   190   8 o        1.610    -0.659    26.651     6.968
   191   1 h        0.805     0.343     0.606     1.223
   192   1 h        0.805     0.344     0.602     1.218
   193   8 o        1.607    -0.673    27.008     7.014
   194   1 h        0.804     0.345     0.601     1.218
   195   1 h        0.804     0.334     0.628     1.245
   196   8 o        1.604    -0.705    27.849     7.122
   197   1 h        0.802     0.336     0.623     1.240
   198   1 h        0.802     0.366     0.553     1.168
   199   8 o        1.608    -0.689    27.407     7.066
   200   1 h        0.805     0.328     0.642     1.259
   201   1 h        0.803     0.358     0.571     1.187
   202   8 o        1.607    -0.677    27.118     7.028
   203   1 h        0.803     0.351     0.586     1.203
   204   1 h        0.804     0.331     0.636     1.253
   205   8 o        1.606    -0.673    27.013     7.015
   206   1 h        0.805     0.324     0.654     1.270
   207   1 h        0.801     0.338     0.619     1.236
   208   8 o        1.609    -0.685    27.322     7.055
   209   1 h        0.805     0.334     0.627     1.244
   210   1 h        0.804     0.348     0.593     1.209
   211   8 o        1.608    -0.683    27.255     7.046
   212   1 h        0.805     0.327     0.646     1.263
   213   1 h        0.804     0.348     0.593     1.209
   214   8 o        1.607    -0.706    27.873     7.125
   215   1 h        0.803     0.351     0.585     1.202
   216   1 h        0.803     0.352     0.583     1.199
   217   8 o        1.608    -0.665    26.799     6.987
   218   1 h        0.804     0.338     0.618     1.235
   219   1 h        0.804     0.327     0.646     1.263
   220   8 o        1.609    -0.646    26.312     6.923
   221   1 h        0.803     0.354     0.579     1.195
   222   1 h        0.805     0.314     0.679     1.294
   223   8 o        1.607    -0.678    27.134     7.030
   224   1 h        0.804     0.341     0.610     1.227
   225   1 h        0.803     0.333     0.630     1.247
   226   8 o        1.610    -0.648    26.354     6.929
   227   1 h        0.804     0.342     0.608     1.224
   228   1 h        0.806     0.310     0.691     1.306
   229   8 o        1.607    -0.678    27.136     7.031
   230   1 h        0.802     0.368     0.549     1.164
   231   1 h        0.805     0.324     0.653     1.269
   232   8 o        1.605    -0.659    26.657     6.968
   233   1 h        0.802     0.340     0.611     1.228
   234   1 h        0.805     0.323     0.655     1.271
   235   8 o        1.607    -0.685    27.303     7.052
   236   1 h        0.803     0.331     0.636     1.252
   237   1 h        0.803     0.359     0.568     1.184
   238   8 o        1.607    -0.675    27.057     7.020
   239   1 h        0.804     0.337     0.621     1.238
   240   1 h        0.804     0.352     0.584     1.200
   241   8 o        1.606    -0.682    27.227     7.042
   242   1 h        0.803     0.339     0.614     1.231
   243   1 h        0.803     0.341     0.611     1.228
   244   8 o        1.608    -0.675    27.067     7.022
   245   1 h        0.805     0.320     0.664     1.280
   246   1 h        0.803     0.359     0.567     1.183
   247   8 o        1.607    -0.691    27.471     7.074
   248   1 h        0.804     0.345     0.600     1.217
   249   1 h        0.803     0.355     0.578     1.194
   250   8 o        1.608    -0.687    27.358     7.059
   251   1 h        0.804     0.349     0.590     1.207
   252   1 h        0.804     0.332     0.632     1.249
   253   8 o        1.608    -0.672    26.980     7.010
   254   1 h        0.804     0.339     0.614     1.231
   255   1 h        0.803     0.326     0.649     1.265
   256   8 o        1.608    -0.673    27.009     7.014
   257   1 h        0.803     0.345     0.600     1.217
   258   1 h        0.805     0.331     0.635     1.251
   259   8 o        1.608    -0.669    26.896     6.999
   260   1 h        0.805     0.326     0.648     1.264
   261   1 h        0.803     0.339     0.614     1.231
   262   8 o        1.606    -0.698    27.671     7.100
   263   1 h        0.803     0.350     0.590     1.206
   264   1 h        0.803     0.349     0.590     1.207
   265   8 o        1.607    -0.679    27.168     7.035
   266   1 h        0.805     0.315     0.676     1.292
   267   1 h        0.802     0.374     0.536     1.150
   268   8 o        1.608    -0.683    27.257     7.046
   269   1 h        0.804     0.347     0.596     1.212
   270   1 h        0.805     0.335     0.624     1.241
   271   8 o        1.607    -0.692    27.493     7.077
   272   1 h        0.803     0.353     0.582     1.199
   273   1 h        0.804     0.340     0.611     1.228
   274   8 o        1.609    -0.665    26.803     6.987
   275   1 h        0.805     0.334     0.626     1.243
   276   1 h        0.804     0.337     0.620     1.237
   277   8 o        1.606    -0.693    27.540     7.083
   278   1 h        0.803     0.350     0.589     1.206
   279   1 h        0.803     0.340     0.612     1.229
   280   8 o        1.608    -0.689    27.408     7.066
   281   1 h        0.804     0.347     0.596     1.213
   282   1 h        0.804     0.357     0.573     1.189
   283   8 o        1.609    -0.662    26.707     6.975
   284   1 h        0.805     0.339     0.614     1.231
   285   1 h        0.805     0.331     0.635     1.251
   286   8 o        1.608    -0.690    27.434     7.069
   287   1 h        0.803     0.344     0.602     1.219
   288   1 h        0.805     0.323     0.656     1.272
   289   8 o        1.608    -0.672    26.987     7.011
   290   1 h        0.803     0.357     0.573     1.189
   291   1 h        0.806     0.308     0.698     1.312
   292   8 o        1.608    -0.673    27.002     7.013
   293   1 h        0.805     0.313     0.683     1.298
   294   1 h        0.803     0.363     0.560     1.175
   295   8 o        1.608    -0.670    26.930     7.004
   296   1 h        0.803     0.340     0.613     1.230
   297   1 h        0.805     0.332     0.633     1.250
   298   8 o        1.608    -0.693    27.529     7.081
   299   1 h        0.804     0.353     0.581     1.197
   300   1 h        0.804     0.343     0.605     1.222
   301   8 o        1.607    -0.670    26.916     7.002
   302   1 h        0.803     0.360     0.567     1.182
   303   1 h        0.804     0.327     0.646     1.263
   304   8 o        1.608    -0.668    26.886     6.998
   305   1 h        0.803     0.367     0.551     1.166
   306   1 h        0.805     0.312     0.686     1.301
   307   8 o        1.608    -0.678    27.143     7.032
   308   1 h        0.804     0.363     0.560     1.175
   309   1 h        0.804     0.345     0.599     1.216
   310   8 o        1.604    -0.699    27.698     7.103
   311   1 h        0.802     0.361     0.563     1.179
   312   1 h        0.803     0.355     0.577     1.194
   313   8 o        1.605    -0.712    28.047     7.148
   314   1 h        0.802     0.359     0.568     1.184
   315   1 h        0.803     0.343     0.606     1.223
   316   8 o        1.608    -0.687    27.372     7.061
   317   1 h        0.804     0.337     0.619     1.236
   318   1 h        0.803     0.342     0.609     1.226
   319   8 o        1.609    -0.651    26.453     6.942
   320   1 h        0.805     0.333     0.629     1.245
   321   1 h        0.804     0.340     0.612     1.229
   322   8 o        1.608    -0.662    26.727     6.977
   323   1 h        0.803     0.326     0.649     1.265
   324   1 h        0.804     0.349     0.590     1.207
   325   8 o        1.608    -0.660    26.669     6.970
   326   1 h        0.805     0.316     0.676     1.291
   327   1 h        0.803     0.371     0.541     1.156
   328   8 o        1.608    -0.691    27.462     7.073
   329   1 h        0.804     0.338     0.618     1.234
   330   1 h        0.803     0.359     0.567     1.183
   331   8 o        1.608    -0.684    27.297     7.051
   332   1 h        0.805     0.323     0.656     1.272
   333   1 h        0.804     0.338     0.617     1.234
   334   8 o        1.608    -0.696    27.612     7.092
   335   1 h        0.805     0.340     0.613     1.230
   336   1 h        0.804     0.331     0.635     1.251
   337   8 o        1.606    -0.706    27.885     7.127
   338   1 h        0.804     0.353     0.581     1.197
   339   1 h        0.803     0.339     0.615     1.232
   340   8 o        1.606    -0.698    27.664     7.099
   341   1 h        0.802     0.364     0.558     1.173
   342   1 h        0.805     0.316     0.674     1.289
   343   8 o        1.608    -0.679    27.162     7.034
   344   1 h        0.803     0.354     0.580     1.196
   345   1 h        0.803     0.352     0.583     1.199
   346   8 o        1.609    -0.660    26.677     6.971
   347   1 h        0.804     0.349     0.590     1.207
   348   1 h        0.804     0.333     0.629     1.245
   349   8 o        1.607    -0.679    27.171     7.035
   350   1 h        0.803     0.330     0.636     1.253
   351   1 h        0.804     0.356     0.575     1.191
   352   8 o        1.607    -0.672    26.978     7.010
   353   1 h        0.806     0.312     0.685     1.300
   354   1 h        0.802     0.359     0.569     1.185
   355   8 o        1.607    -0.660    26.670     6.970
   356   1 h        0.804     0.330     0.637     1.254
   357   1 h        0.803     0.333     0.629     1.245
   358   8 o        1.606    -0.686    27.352     7.058
   359   1 h        0.803     0.328     0.642     1.259
   360   1 h        0.804     0.350     0.587     1.204
   361   8 o        1.607    -0.685    27.315     7.054
   362   1 h        0.805     0.322     0.659     1.275
   363   1 h        0.802     0.360     0.565     1.181
   364   8 o        1.608    -0.680    27.183     7.037
   365   1 h        0.805     0.353     0.581     1.198
   366   1 h        0.803     0.348     0.593     1.210
   367   8 o        1.607    -0.699    27.686     7.101
   368   1 h        0.803     0.352     0.583     1.199
   369   1 h        0.804     0.349     0.591     1.208
   370   8 o        1.609    -0.662    26.726     6.977
   371   1 h        0.803     0.350     0.588     1.204
   372   1 h        0.806     0.317     0.673     1.288
   373   8 o        1.608    -0.689    27.425     7.068
   374   1 h        0.803     0.344     0.602     1.219
   375   1 h        0.805     0.328     0.644     1.260
   376   8 o        1.607    -0.697    27.644     7.096
   377   1 h        0.803     0.362     0.561     1.176
   378   1 h        0.804     0.319     0.666     1.282
   379   8 o        1.608    -0.686    27.345     7.058
   380   1 h        0.803     0.355     0.577     1.193
   381   1 h        0.804     0.337     0.621     1.238
   382   8 o        1.608    -0.676    27.081     7.023
   383   1 h        0.803     0.364     0.556     1.172
   384   1 h        0.805     0.338     0.618     1.235
   385   8 o        1.605    -0.660    26.673     6.970
   386   1 h        0.801     0.351     0.587     1.204
   387   1 h        0.806     0.303     0.711     1.325
   388   8 o        1.608    -0.691    27.464     7.073
   389   1 h        0.805     0.350     0.588     1.204
   390   1 h        0.803     0.349     0.590     1.206
   391   8 o        1.607    -0.692    27.490     7.076
   392   1 h        0.805     0.314     0.680     1.296
   393   1 h        0.802     0.355     0.576     1.192
   394   8 o        1.608    -0.689    27.415     7.067
   395   1 h        0.803     0.343     0.604     1.221
   396   1 h        0.805     0.330     0.638     1.254
   397   8 o        1.607    -0.674    27.033     7.017
   398   1 h        0.802     0.372     0.540     1.154
   399   1 h        0.806     0.304     0.709     1.323
   400   8 o        1.609    -0.671    26.943     7.006
   401   1 h        0.806     0.305     0.705     1.319
   402   1 h        0.803     0.349     0.590     1.207
   403   8 o        1.609    -0.671    26.959     7.008
   404   1 h        0.803     0.345     0.600     1.216
   405   1 h        0.805     0.334     0.628     1.245
   406   8 o        1.607    -0.686    27.353     7.059
   407   1 h        0.804     0.354     0.579     1.195
   408   1 h        0.803     0.343     0.604     1.221
   409   8 o        1.610    -0.660    26.678     6.971
   410   1 h        0.804     0.329     0.641     1.258
   411   1 h        0.805     0.342     0.608     1.225
   412   8 o        1.608    -0.683    27.259     7.047
   413   1 h        0.804     0.351     0.585     1.202
   414   1 h        0.804     0.359     0.568     1.184
   415   8 o        1.608    -0.684    27.287     7.050
   416   1 h        0.804     0.326     0.647     1.264
   417   1 h        0.804     0.352     0.583     1.200
   418   8 o        1.610    -0.659    26.633     6.965
   419   1 h        0.805     0.334     0.626     1.243
   420   1 h        0.805     0.344     0.603     1.220
   421   8 o        1.605    -0.690    27.438     7.069
   422   1 h        0.803     0.353     0.581     1.198
   423   1 h        0.802     0.333     0.630     1.247
   424   8 o        1.606    -0.684    27.290     7.050
   425   1 h        0.803     0.347     0.595     1.212
   426   1 h        0.804     0.323     0.657     1.273
   427   8 o        1.606    -0.683    27.273     7.048
   428   1 h        0.803     0.358     0.570     1.186
   429   1 h        0.803     0.330     0.637     1.254
   430   8 o        1.607    -0.687    27.371     7.061
   431   1 h        0.802     0.369     0.546     1.161
   432   1 h        0.805     0.330     0.637     1.254
   433   8 o        1.608    -0.683    27.273     7.048
   434   1 h        0.805     0.321     0.661     1.277
   435   1 h        0.803     0.349     0.592     1.209
   436   8 o        1.608    -0.665    26.792     6.986
   437   1 h        0.805     0.321     0.662     1.278
   438   1 h        0.803     0.345     0.601     1.217
   439   8 o        1.605    -0.694    27.553     7.084
   440   1 h        0.803     0.328     0.642     1.259
   441   1 h        0.802     0.356     0.574     1.191
   442   8 o        1.608    -0.685    27.303     7.052
   443   1 h        0.804     0.340     0.613     1.230
   444   1 h        0.804     0.325     0.650     1.266
   445   8 o        1.609    -0.675    27.049     7.019
   446   1 h        0.804     0.359     0.569     1.184
   447   1 h        0.805     0.333     0.629     1.246
   448   8 o        1.608    -0.668    26.869     6.996
   449   1 h        0.804     0.341     0.609     1.225
   450   1 h        0.804     0.335     0.625     1.242
   451   8 o        1.606    -0.667    26.838     6.992
   452   1 h        0.805     0.320     0.665     1.281
   453   1 h        0.802     0.352     0.585     1.201
   454   8 o        1.609    -0.691    27.485     7.076
   455   1 h        0.804     0.336     0.622     1.239
   456   1 h        0.804     0.351     0.586     1.203
   457   8 o        1.608    -0.658    26.628     6.964
   458   1 h        0.804     0.323     0.655     1.271
   459   1 h        0.804     0.347     0.595     1.212
   460   8 o        1.606    -0.707    27.898     7.129
   461   1 h        0.803     0.348     0.593     1.209
   462   1 h        0.803     0.350     0.589     1.205
   463   8 o        1.607    -0.673    27.003     7.013
   464   1 h        0.805     0.323     0.656     1.273
   465   1 h        0.802     0.349     0.591     1.208
   466   8 o        1.610    -0.666    26.814     6.989
   467   1 h        0.805     0.325     0.650     1.266
   468   1 h        0.804     0.341     0.610     1.226
   469   8 o        1.610    -0.651    26.444     6.940
   470   1 h        0.806     0.316     0.676     1.291
   471   1 h        0.804     0.344     0.603     1.220
   472   8 o        1.608    -0.673    27.015     7.015
   473   1 h        0.803     0.350     0.588     1.204
   474   1 h        0.806     0.312     0.685     1.300
   475   8 o        1.608    -0.681    27.212     7.040
   476   1 h        0.804     0.347     0.595     1.211
   477   1 h        0.804     0.356     0.574     1.190
   478   8 o        1.607    -0.683    27.272     7.048
   479   1 h        0.802     0.354     0.579     1.195
   480   1 h        0.805     0.320     0.665     1.280
   481   8 o        1.609    -0.680    27.188     7.037
   482   1 h        0.805     0.347     0.595     1.212
   483   1 h        0.805     0.324     0.653     1.269
   484   8 o        1.607    -0.673    26.997     7.013
   485   1 h        0.802     0.347     0.596     1.213
   486   1 h        0.806     0.317     0.673     1.289
   487   8 o        1.609    -0.681    27.202     7.039
   488   1 h        0.805     0.342     0.608     1.224
   489   1 h        0.804     0.335     0.625     1.242
   490   8 o        1.609    -0.672    26.986     7.011
   491   1 h        0.805     0.319     0.668     1.283
   492   1 h        0.803     0.351     0.585     1.202
   493   8 o        1.608    -0.686    27.353     7.059
   494   1 h        0.804     0.358     0.571     1.187
   495   1 h        0.803     0.342     0.608     1.225
   496   8 o        1.608    -0.672    26.988     7.011
   497   1 h        0.806     0.303     0.713     1.326
   498   1 h        0.802     0.356     0.575     1.192
   499   8 o        1.605    -0.695    27.591     7.089
   500   1 h        0.802     0.360     0.565     1.181
   501   1 h        0.803     0.327     0.645     1.261
   502   8 o        1.607    -0.680    27.177     7.036
   503   1 h        0.803     0.337     0.619     1.236
   504   1 h        0.804     0.342     0.606     1.223
   505   8 o        1.608    -0.671    26.947     7.006
   506   1 h        0.803     0.367     0.551     1.166
   507   1 h        0.805     0.323     0.656     1.272
   508   8 o        1.608    -0.676    27.093     7.025
   509   1 h        0.805     0.348     0.592     1.209
   510   1 h        0.803     0.357     0.572     1.188
   511   8 o        1.608    -0.672    26.984     7.011
   512   1 h        0.803     0.350     0.589     1.205
   513   1 h        0.805     0.330     0.638     1.254
   514   8 o        1.607    -0.693    27.523     7.081
   515   1 h        0.803     0.338     0.618     1.235
   516   1 h        0.804     0.328     0.643     1.260
   517   8 o        1.609    -0.670    26.934     7.004
   518   1 h        0.804     0.339     0.614     1.231
   519   1 h        0.805     0.339     0.615     1.232
   520   8 o        1.608    -0.662    26.730     6.978
   521   1 h        0.802     0.361     0.563     1.179
   522   1 h        0.806     0.315     0.677     1.292
   523   8 o        1.608    -0.654    26.506     6.948
   524   1 h        0.802     0.362     0.561     1.177
   525   1 h        0.806     0.309     0.695     1.310
   526   8 o        1.607    -0.700    27.712     7.105
   527   1 h        0.802     0.362     0.562     1.178
   528   1 h        0.805     0.317     0.673     1.289
   529   8 o        1.609    -0.689    27.432     7.069
   530   1 h        0.804     0.349     0.590     1.206
   531   1 h        0.804     0.333     0.629     1.246
   532   8 o        1.608    -0.655    26.531     6.952
   533   1 h        0.806     0.308     0.697     1.312
   534   1 h        0.802     0.341     0.610     1.227
   535   8 o        1.609    -0.682    27.231     7.043
   536   1 h        0.805     0.337     0.620     1.237
   537   1 h        0.804     0.342     0.606     1.223
   538   8 o        1.609    -0.674    27.023     7.016
   539   1 h        0.804     0.341     0.610     1.227
   540   1 h        0.805     0.325     0.651     1.267
   541   8 o        1.608    -0.679    27.157     7.033
   542   1 h        0.804     0.333     0.629     1.246
   543   1 h        0.804     0.328     0.643     1.260
   544   8 o        1.607    -0.684    27.284     7.050
   545   1 h        0.804     0.332     0.631     1.248
   546   1 h        0.803     0.326     0.649     1.266
   547   8 o        1.605    -0.716    28.143     7.160
   548   1 h        0.803     0.366     0.553     1.168
   549   1 h        0.803     0.337     0.621     1.238
   550   8 o        1.607    -0.670    26.936     7.005
   551   1 h        0.805     0.318     0.668     1.284
   552   1 h        0.803     0.364     0.558     1.173
   553   8 o        1.605    -0.701    27.750     7.110
   554   1 h        0.803     0.345     0.600     1.217
   555   1 h        0.803     0.330     0.638     1.255
   556   8 o        1.606    -0.695    27.578     7.088
   557   1 h        0.803     0.330     0.638     1.255
   558   1 h        0.802     0.361     0.565     1.180
   559   8 o        1.606    -0.680    27.194     7.038
   560   1 h        0.802     0.339     0.615     1.232
   561   1 h        0.804     0.362     0.560     1.176
   562   8 o        1.608    -0.674    27.027     7.017
   563   1 h        0.804     0.322     0.659     1.276
   564   1 h        0.804     0.353     0.582     1.199
   565   8 o        1.607    -0.663    26.750     6.980
   566   1 h        0.804     0.330     0.638     1.255
   567   1 h        0.803     0.348     0.593     1.209
   568   8 o        1.609    -0.685    27.327     7.055
   569   1 h        0.803     0.338     0.618     1.235
   570   1 h        0.804     0.344     0.602     1.219
   571   8 o        1.610    -0.686    27.348     7.058
   572   1 h        0.805     0.344     0.601     1.218
   573   1 h        0.805     0.348     0.592     1.209
   574   8 o        1.609    -0.683    27.273     7.048
   575   1 h        0.805     0.332     0.632     1.248
   576   1 h        0.804     0.340     0.613     1.230
   577   8 o        1.608    -0.666    26.824     6.990
   578   1 h        0.803     0.338     0.618     1.235
   579   1 h        0.805     0.325     0.651     1.268
   580   8 o        1.606    -0.678    27.128     7.030
   581   1 h        0.805     0.320     0.663     1.279
   582   1 h        0.802     0.365     0.554     1.169
   583   8 o        1.610    -0.655    26.546     6.954
   584   1 h        0.805     0.336     0.622     1.239
   585   1 h        0.805     0.318     0.670     1.285
   586   8 o        1.605    -0.696    27.608     7.091
   587   1 h        0.805     0.309     0.693     1.308
   588   1 h        0.802     0.366     0.553     1.169
   589   8 o        1.606    -0.710    27.978     7.139
   590   1 h        0.804     0.341     0.611     1.227
   591   1 h        0.803     0.346     0.597     1.214
   592   8 o        1.607    -0.693    27.530     7.081
   593   1 h        0.803     0.324     0.653     1.270
   594   1 h        0.803     0.347     0.595     1.212
   595   8 o        1.606    -0.675    27.047     7.019
   596   1 h        0.806     0.311     0.690     1.304
   597   1 h        0.801     0.356     0.575     1.191
   598   8 o        1.608    -0.658    26.612     6.962
   599   1 h        0.803     0.339     0.614     1.231
   600   1 h        0.805     0.320     0.663     1.279
   601   8 o        1.608    -0.680    27.173     7.035
   602   1 h        0.805     0.325     0.651     1.268
   603   1 h        0.803     0.348     0.594     1.210
   604   8 o        1.606    -0.691    27.476     7.074
   605   1 h        0.803     0.343     0.605     1.222
   606   1 h        0.803     0.333     0.630     1.247
   607   8 o        1.607    -0.673    27.003     7.013
   608   1 h        0.804     0.346     0.599     1.215
   609   1 h        0.804     0.334     0.628     1.245
   610   8 o        1.607    -0.687    27.357     7.059
   611   1 h        0.805     0.330     0.638     1.255
   612   1 h        0.803     0.349     0.590     1.207
   613   8 o        1.609    -0.680    27.178     7.036
   614   1 h        0.804     0.334     0.627     1.244
   615   1 h        0.804     0.344     0.603     1.219
   616   8 o        1.608    -0.667    26.845     6.993
   617   1 h        0.802     0.351     0.585     1.202
   618   1 h        0.806     0.309     0.695     1.310
   619   8 o        1.609    -0.662    26.731     6.978
   620   1 h        0.805     0.336     0.621     1.238
   621   1 h        0.804     0.336     0.621     1.238
   622   8 o        1.608    -0.649    26.385     6.933
   623   1 h        0.806     0.300     0.722     1.334
   624   1 h        0.803     0.340     0.612     1.229
   625   8 o        1.605    -0.688    27.397     7.064
   626   1 h        0.801     0.359     0.568     1.184
   627   1 h        0.806     0.308     0.698     1.312
   628   8 o        1.607    -0.684    27.295     7.051
   629   1 h        0.803     0.346     0.599     1.216
   630   1 h        0.804     0.349     0.591     1.207
   631   8 o        1.607    -0.670    26.931     7.004
   632   1 h        0.803     0.332     0.632     1.249
   633   1 h        0.804     0.363     0.559     1.174
   634   8 o        1.608    -0.672    26.983     7.011
   635   1 h        0.803     0.332     0.633     1.250
   636   1 h        0.804     0.335     0.624     1.240
   637   8 o        1.608    -0.677    27.111     7.027
   638   1 h        0.804     0.338     0.616     1.233
   639   1 h        0.804     0.337     0.618     1.235
   640   8 o        1.607    -0.664    26.770     6.983
   641   1 h        0.803     0.333     0.631     1.248
   642   1 h        0.804     0.334     0.627     1.243
   643   8 o        1.609    -0.676    27.082     7.024
   644   1 h        0.805     0.329     0.641     1.258
   645   1 h        0.804     0.336     0.621     1.238
   646   8 o        1.607    -0.672    26.987     7.011
   647   1 h        0.805     0.328     0.642     1.259
   648   1 h        0.803     0.334     0.626     1.243
   649   8 o        1.608    -0.683    27.274     7.048
   650   1 h        0.802     0.345     0.601     1.218
   651   1 h        0.806     0.320     0.664     1.280
   652   8 o        1.608    -0.660    26.669     6.970
   653   1 h        0.806     0.306     0.703     1.317
   654   1 h        0.803     0.351     0.587     1.204
   655   8 o        1.607    -0.674    27.022     7.016
   656   1 h        0.804     0.333     0.630     1.247
   657   1 h        0.803     0.345     0.600     1.217
   658   8 o        1.608    -0.680    27.188     7.037
   659   1 h        0.803     0.354     0.580     1.196
   660   1 h        0.804     0.325     0.651     1.267
   661   8 o        1.608    -0.689    27.409     7.066
   662   1 h        0.804     0.357     0.573     1.189
   663   1 h        0.804     0.340     0.613     1.230
   664   8 o        1.608    -0.668    26.870     6.996
   665   1 h        0.805     0.324     0.654     1.270
   666   1 h        0.803     0.339     0.615     1.232
   667   8 o        1.608    -0.685    27.302     7.052
   668   1 h        0.804     0.325     0.650     1.266
   669   1 h        0.804     0.351     0.586     1.202
   670   8 o        1.607    -0.680    27.179     7.036
   671   1 h        0.804     0.337     0.620     1.237
   672   1 h        0.803     0.352     0.583     1.199
   673   8 o        1.608    -0.660    26.659     6.969
   674   1 h        0.805     0.356     0.573     1.189
   675   1 h        0.803     0.335     0.625     1.242
   676   8 o        1.609    -0.670    26.927     7.003
   677   1 h        0.805     0.339     0.614     1.230
   678   1 h        0.804     0.331     0.636     1.252
   679   8 o        1.606    -0.677    27.111     7.027
   680   1 h        0.803     0.329     0.641     1.258
   681   1 h        0.802     0.340     0.612     1.229
   682   8 o        1.607    -0.682    27.233     7.043
   683   1 h        0.804     0.357     0.573     1.189
   684   1 h        0.804     0.324     0.654     1.270
   685   8 o        1.607    -0.684    27.289     7.050
   686   1 h        0.804     0.338     0.618     1.235
   687   1 h        0.804     0.330     0.636     1.253
   688   8 o        1.608    -0.673    27.015     7.015
   689   1 h        0.804     0.337     0.620     1.237
   690   1 h        0.804     0.329     0.641     1.257
   691   8 o        1.607    -0.680    27.189     7.037
   692   1 h        0.804     0.337     0.619     1.236
   693   1 h        0.803     0.339     0.614     1.231
   694   8 o        1.608    -0.679    27.171     7.035
   695   1 h        0.804     0.332     0.633     1.249
   696   1 h        0.804     0.338     0.617     1.234
   697   8 o        1.608    -0.672    26.984     7.011
   698   1 h        0.804     0.339     0.615     1.232
   699   1 h        0.804     0.329     0.641     1.258
   700   8 o        1.607    -0.697    27.635     7.095
   701   1 h        0.803     0.358     0.570     1.186
   702   1 h        0.804     0.339     0.614     1.231
   703   8 o        1.609    -0.660    26.671     6.970
   704   1 h        0.804     0.339     0.616     1.232
   705   1 h        0.805     0.319     0.666     1.282
   706   8 o        1.609    -0.668    26.863     6.995
   707   1 h        0.804     0.344     0.602     1.219
   708   1 h        0.804     0.352     0.584     1.200
   709   8 o        1.609    -0.637    26.093     6.894
   710   1 h        0.806     0.305     0.706     1.320
   711   1 h        0.803     0.347     0.595     1.212
   712   8 o        1.606    -0.690    27.435     7.069
   713   1 h        0.802     0.348     0.594     1.211
   714   1 h        0.805     0.333     0.630     1.247
   715   8 o        1.607    -0.682    27.230     7.043
   716   1 h        0.802     0.362     0.562     1.178
   717   1 h        0.805     0.327     0.646     1.262
   718   8 o        1.608    -0.702    27.775     7.113
   719   1 h        0.804     0.341     0.610     1.227
   720   1 h        0.804     0.341     0.609     1.226
   721   8 o        1.609    -0.667    26.845     6.993
   722   1 h        0.805     0.344     0.603     1.220
   723   1 h        0.804     0.332     0.633     1.250
   724   8 o        1.607    -0.664    26.759     6.982
   725   1 h        0.804     0.330     0.638     1.254
   726   1 h        0.803     0.336     0.623     1.240
   727   8 o        1.609    -0.679    27.164     7.034
   728   1 h        0.804     0.337     0.619     1.235
   729   1 h        0.805     0.339     0.614     1.231
   730   8 o        1.607    -0.679    27.151     7.032
   731   1 h        0.803     0.327     0.646     1.262
   732   1 h        0.804     0.355     0.578     1.194
   733   8 o        1.609    -0.671    26.959     7.008
   734   1 h        0.804     0.342     0.606     1.223
   735   1 h        0.805     0.325     0.651     1.267
   736   8 o        1.609    -0.666    26.827     6.991
   737   1 h        0.804     0.358     0.570     1.186
   738   1 h        0.805     0.322     0.657     1.273
   739   8 o        1.609    -0.673    26.998     7.013
   740   1 h        0.805     0.322     0.658     1.274
   741   1 h        0.804     0.349     0.591     1.208
   742   8 o        1.607    -0.679    27.172     7.035
   743   1 h        0.801     0.370     0.544     1.158
   744   1 h        0.806     0.307     0.701     1.315
   745   8 o        1.607    -0.674    27.034     7.017
   746   1 h        0.804     0.344     0.602     1.219
   747   1 h        0.803     0.329     0.640     1.257
   748   8 o        1.608    -0.689    27.432     7.069
   749   1 h        0.804     0.337     0.619     1.236
   750   1 h        0.804     0.354     0.578     1.194
   751   8 o        1.606    -0.684    27.290     7.051
   752   1 h        0.802     0.347     0.595     1.212
   753   1 h        0.804     0.340     0.613     1.230
   754   8 o        1.610    -0.634    26.022     6.885
   755   1 h        0.805     0.321     0.661     1.277
   756   1 h        0.805     0.342     0.608     1.224

 Mol. C6AA /au·bohr⁶  :    2899512.023076
 Mol. C8AA /au·bohr⁸  :   52609885.145256
 Mol. α(0) /au        :       2393.121614


Wiberg/Mayer (AO) data.
largest (>0.10) Wiberg bond orders for each atom

 ---------------------------------------------------------------------------
     #   Z sym  total        # sym  WBO       # sym  WBO       # sym  WBO
 ---------------------------------------------------------------------------
     1   8 o    1.859 --     2 h    0.899     3 h    0.849
     2   1 h    0.903 --     1 o    0.899
     3   1 h    0.888 --     1 o    0.849
     4   8 o    1.858 --     6 h    0.814     5 h    0.794
     5   1 h    0.881 --     4 o    0.794
     6   1 h    0.883 --     4 o    0.814
     7   8 o    1.852 --     9 h    0.843     8 h    0.797
     8   1 h    0.873 --     7 o    0.797
     9   1 h    0.890 --     7 o    0.843
    10   8 o    1.836 --    12 h    0.829    11 h    0.822
    11   1 h    0.882 --    10 o    0.822
    12   1 h    0.884 --    10 o    0.829
    13   8 o    1.801 --    15 h    0.844    14 h    0.836
    14   1 h    0.892 --    13 o    0.836
    15   1 h    0.887 --    13 o    0.844
    16   8 o    1.828 --    18 h    0.857    17 h    0.802
    17   1 h    0.876 --    16 o    0.802
    18   1 h    0.894 --    16 o    0.857
    19   8 o    1.869 --    20 h    0.798    21 h    0.797
    20   1 h    0.874 --    19 o    0.798
    21   1 h    0.869 --    19 o    0.797
    22   8 o    1.828 --    23 h    0.865    24 h    0.833
    23   1 h    0.895 --    22 o    0.865
    24   1 h    0.879 --    22 o    0.833
    25   8 o    1.857 --    27 h    0.857    26 h    0.812
    26   1 h    0.876 --    25 o    0.812
    27   1 h    0.887 --    25 o    0.857
    28   8 o    1.887 --    29 h    0.821    30 h    0.814
    29   1 h    0.885 --    28 o    0.821
    30   1 h    0.875 --    28 o    0.814
    31   8 o    1.862 --    33 h    0.813    32 h    0.809
    32   1 h    0.880 --    31 o    0.809
    33   1 h    0.880 --    31 o    0.813
    34   8 o    1.837 --    35 h    0.798    36 h    0.793
    35   1 h    0.881 --    34 o    0.798
    36   1 h    0.867 --    34 o    0.793
    37   8 o    1.842 --    39 h    0.833    38 h    0.828
    38   1 h    0.888 --    37 o    0.828
    39   1 h    0.884 --    37 o    0.833
    40   8 o    1.878 --    42 h    0.830    41 h    0.817
    41   1 h    0.877 --    40 o    0.817
    42   1 h    0.879 --    40 o    0.830
    43   8 o    1.837 --    44 h    0.817    45 h    0.808
    44   1 h    0.882 --    43 o    0.817
    45   1 h    0.877 --    43 o    0.808
    46   8 o    1.806 --    47 h    0.861    48 h    0.800
    47   1 h    0.892 --    46 o    0.861
    48   1 h    0.876 --    46 o    0.800
    49   8 o    1.767 --    50 h    0.834    51 h    0.816
    50   1 h    0.890 --    49 o    0.834
    51   1 h    0.890 --    49 o    0.816
    52   8 o    1.832 --    53 h    0.841    54 h    0.833
    53   1 h    0.888 --    52 o    0.841
    54   1 h    0.882 --    52 o    0.833
    55   8 o    1.855 --    56 h    0.882    57 h    0.814
    56   1 h    0.901 --    55 o    0.882
    57   1 h    0.878 --    55 o    0.814
    58   8 o    1.875 --    59 h    0.846    60 h    0.814
    59   1 h    0.888 --    58 o    0.846
    60   1 h    0.886 --    58 o    0.814
    61   8 o    1.833 --    62 h    0.861    63 h    0.814
    62   1 h    0.891 --    61 o    0.861
    63   1 h    0.883 --    61 o    0.814
    64   8 o    1.845 --    66 h    0.857    65 h    0.818
    65   1 h    0.880 --    64 o    0.818
    66   1 h    0.883 --    64 o    0.857
    67   8 o    1.858 --    69 h    0.821    68 h    0.808   105 h    0.106
    68   1 h    0.880 --    67 o    0.808
    69   1 h    0.884 --    67 o    0.821
    70   8 o    1.804 --    71 h    0.850    72 h    0.837
    71   1 h    0.889 --    70 o    0.850
    72   1 h    0.897 --    70 o    0.837
    73   8 o    1.834 --    75 h    0.872    74 h    0.839
    74   1 h    0.876 --    73 o    0.839
    75   1 h    0.894 --    73 o    0.872
    76   8 o    1.835 --    77 h    0.823    78 h    0.812
    77   1 h    0.887 --    76 o    0.823
    78   1 h    0.885 --    76 o    0.812
    79   8 o    1.841 --    81 h    0.807    80 h    0.805
    80   1 h    0.878 --    79 o    0.805
    81   1 h    0.880 --    79 o    0.807
    82   8 o    1.853 --    83 h    0.843    84 h    0.805
    83   1 h    0.883 --    82 o    0.843
    84   1 h    0.869 --    82 o    0.805
    85   8 o    1.836 --    86 h    0.837    87 h    0.824
    86   1 h    0.890 --    85 o    0.837
    87   1 h    0.878 --    85 o    0.824
    88   8 o    1.868 --    90 h    0.811    89 h    0.806
    89   1 h    0.875 --    88 o    0.806
    90   1 h    0.870 --    88 o    0.811
    91   8 o    1.856 --    93 h    0.842    92 h    0.821
    92   1 h    0.882 --    91 o    0.821
    93   1 h    0.889 --    91 o    0.842
    94   8 o    1.876 --    95 h    0.809    96 h    0.807
    95   1 h    0.882 --    94 o    0.809
    96   1 h    0.875 --    94 o    0.807
    97   8 o    1.835 --    98 h    0.827    99 h    0.820
    98   1 h    0.874 --    97 o    0.827
    99   1 h    0.888 --    97 o    0.820
   100   8 o    1.850 --   102 h    0.818   101 h    0.815
   101   1 h    0.882 --   100 o    0.815
   102   1 h    0.881 --   100 o    0.818
   103   8 o    1.858 --   104 h    0.798   105 h    0.747
   104   1 h    0.877 --   103 o    0.798
   105   1 h    0.867 --   103 o    0.747    67 o    0.106
   106   8 o    1.866 --   108 h    0.861   107 h    0.818
   107   1 h    0.872 --   106 o    0.818
   108   1 h    0.892 --   106 o    0.861
   109   8 o    1.857 --   110 h    0.836   111 h    0.818
   110   1 h    0.879 --   109 o    0.836
   111   1 h    0.876 --   109 o    0.818
   112   8 o    1.878 --   114 h    0.831   113 h    0.816
   113   1 h    0.881 --   112 o    0.816
   114   1 h    0.887 --   112 o    0.831
   115   8 o    1.852 --   116 h    0.842   117 h    0.805
   116   1 h    0.894 --   115 o    0.842
   117   1 h    0.873 --   115 o    0.805
   118   8 o    1.889 --   119 h    0.830   120 h    0.802   588 h    0.109
   119   1 h    0.880 --   118 o    0.830
   120   1 h    0.873 --   118 o    0.802
   121   8 o    1.878 --   122 h    0.817   123 h    0.801
   122   1 h    0.878 --   121 o    0.817
   123   1 h    0.871 --   121 o    0.801
   124   8 o    1.827 --   125 h    0.818   126 h    0.807
   125   1 h    0.882 --   124 o    0.818
   126   1 h    0.887 --   124 o    0.807
   127   8 o    1.810 --   129 h    0.864   128 h    0.837
   128   1 h    0.883 --   127 o    0.837
   129   1 h    0.892 --   127 o    0.864
   130   8 o    1.851 --   131 h    0.863   132 h    0.798
   131   1 h    0.890 --   130 o    0.863
   132   1 h    0.883 --   130 o    0.798
   133   8 o    1.878 --   135 h    0.839   134 h    0.809
   134   1 h    0.878 --   133 o    0.809
   135   1 h    0.890 --   133 o    0.839
   136   8 o    1.833 --   138 h    0.872   137 h    0.811
   137   1 h    0.880 --   136 o    0.811
   138   1 h    0.899 --   136 o    0.872
   139   8 o    1.866 --   141 h    0.820   140 h    0.810
   140   1 h    0.885 --   139 o    0.810
   141   1 h    0.880 --   139 o    0.820
   142   8 o    1.825 --   144 h    0.872   143 h    0.801
   143   1 h    0.869 --   142 o    0.801
   144   1 h    0.897 --   142 o    0.872
   145   8 o    1.839 --   147 h    0.818   146 h    0.815
   146   1 h    0.890 --   145 o    0.815
   147   1 h    0.882 --   145 o    0.818
   148   8 o    1.843 --   150 h    0.829   149 h    0.796
   149   1 h    0.879 --   148 o    0.796
   150   1 h    0.880 --   148 o    0.829
   151   8 o    1.864 --   153 h    0.835   152 h    0.780
   152   1 h    0.868 --   151 o    0.780
   153   1 h    0.895 --   151 o    0.835
   154   8 o    1.828 --   155 h    0.861   156 h    0.801
   155   1 h    0.893 --   154 o    0.861
   156   1 h    0.874 --   154 o    0.801
   157   8 o    1.853 --   158 h    0.800   159 h    0.793
   158   1 h    0.877 --   157 o    0.800
   159   1 h    0.873 --   157 o    0.793
   160   8 o    1.816 --   162 h    0.839   161 h    0.835
   161   1 h    0.879 --   160 o    0.835
   162   1 h    0.888 --   160 o    0.839
   163   8 o    1.845 --   164 h    0.832   165 h    0.800
   164   1 h    0.890 --   163 o    0.832
   165   1 h    0.877 --   163 o    0.800
   166   8 o    1.857 --   167 h    0.842   168 h    0.827
   167   1 h    0.884 --   166 o    0.842
   168   1 h    0.894 --   166 o    0.827
   169   8 o    1.837 --   170 h    0.843   171 h    0.804
   170   1 h    0.895 --   169 o    0.843
   171   1 h    0.871 --   169 o    0.804
   172   8 o    1.815 --   174 h    0.855   173 h    0.841
   173   1 h    0.892 --   172 o    0.841
   174   1 h    0.891 --   172 o    0.855
   175   8 o    1.848 --   177 h    0.809   176 h    0.801
   176   1 h    0.878 --   175 o    0.801
   177   1 h    0.881 --   175 o    0.809
   178   8 o    1.815 --   180 h    0.851   179 h    0.820
   179   1 h    0.880 --   178 o    0.820
   180   1 h    0.893 --   178 o    0.851
   181   8 o    1.859 --   183 h    0.803   182 h    0.802
   182   1 h    0.871 --   181 o    0.802
   183   1 h    0.880 --   181 o    0.803
   184   8 o    1.812 --   186 h    0.843   185 h    0.832
   185   1 h    0.883 --   184 o    0.832
   186   1 h    0.891 --   184 o    0.843
   187   8 o    1.784 --   188 h    0.821   189 h    0.805
   188   1 h    0.888 --   187 o    0.821
   189   1 h    0.883 --   187 o    0.805
   190   8 o    1.855 --   192 h    0.852   191 h    0.850
   191   1 h    0.883 --   190 o    0.850
   192   1 h    0.881 --   190 o    0.852
   193   8 o    1.863 --   195 h    0.832   194 h    0.822
   194   1 h    0.881 --   193 o    0.822
   195   1 h    0.889 --   193 o    0.832
   196   8 o    1.872 --   197 h    0.806   198 h    0.776
   197   1 h    0.887 --   196 o    0.806
   198   1 h    0.866 --   196 o    0.776
   199   8 o    1.826 --   200 h    0.872   201 h    0.784
   200   1 h    0.892 --   199 o    0.872
   201   1 h    0.872 --   199 o    0.784
   202   8 o    1.865 --   204 h    0.843   203 h    0.799
   203   1 h    0.877 --   202 o    0.799
   204   1 h    0.891 --   202 o    0.843
   205   8 o    1.841 --   206 h    0.867   207 h    0.801
   206   1 h    0.895 --   205 o    0.867
   207   1 h    0.886 --   205 o    0.801
   208   8 o    1.829 --   209 h    0.859   210 h    0.831
   209   1 h    0.888 --   208 o    0.859
   210   1 h    0.879 --   208 o    0.831
   211   8 o    1.821 --   212 h    0.865   213 h    0.822
   212   1 h    0.893 --   211 o    0.865
   213   1 h    0.879 --   211 o    0.822
   214   8 o    1.848 --   216 h    0.803   215 h    0.800
   215   1 h    0.876 --   214 o    0.800
   216   1 h    0.876 --   214 o    0.803
   217   8 o    1.856 --   219 h    0.840   218 h    0.835
   218   1 h    0.886 --   217 o    0.835
   219   1 h    0.893 --   217 o    0.840
   220   8 o    1.877 --   222 h    0.885   221 h    0.804
   221   1 h    0.874 --   220 o    0.804
   222   1 h    0.901 --   220 o    0.885
   223   8 o    1.841 --   224 h    0.838   225 h    0.822
   224   1 h    0.884 --   223 o    0.838
   225   1 h    0.889 --   223 o    0.822
   226   8 o    1.826 --   228 h    0.892   227 h    0.841
   227   1 h    0.883 --   226 o    0.841
   228   1 h    0.904 --   226 o    0.892
   229   8 o    1.868 --   231 h    0.871   230 h    0.776
   230   1 h    0.865 --   229 o    0.776
   231   1 h    0.895 --   229 o    0.871
   232   8 o    1.900 --   234 h    0.858   233 h    0.786
   233   1 h    0.884 --   232 o    0.786
   234   1 h    0.895 --   232 o    0.858
   235   8 o    1.881 --   236 h    0.821   237 h    0.795
   236   1 h    0.891 --   235 o    0.821
   237   1 h    0.871 --   235 o    0.795
   238   8 o    1.867 --   239 h    0.840   240 h    0.824
   239   1 h    0.887 --   238 o    0.840
   240   1 h    0.876 --   238 o    0.824
   241   8 o    1.843 --   243 h    0.831   242 h    0.825
   242   1 h    0.885 --   241 o    0.825
   243   1 h    0.884 --   241 o    0.831
   244   8 o    1.848 --   245 h    0.869   246 h    0.795
   245   1 h    0.898 --   244 o    0.869
   246   1 h    0.871 --   244 o    0.795
   247   8 o    1.877 --   248 h    0.817   249 h    0.791
   248   1 h    0.881 --   247 o    0.817
   249   1 h    0.874 --   247 o    0.791
   250   8 o    1.804 --   252 h    0.850   251 h    0.821
   251   1 h    0.878 --   250 o    0.821
   252   1 h    0.890 --   250 o    0.850
   253   8 o    1.857 --   255 h    0.827   254 h    0.823
   254   1 h    0.885 --   253 o    0.823
   255   1 h    0.894 --   253 o    0.827
   256   8 o    1.841 --   258 h    0.857   257 h    0.823
   257   1 h    0.881 --   256 o    0.823
   258   1 h    0.890 --   256 o    0.857
   259   8 o    1.844 --   260 h    0.866   261 h    0.813
   260   1 h    0.894 --   259 o    0.866
   261   1 h    0.885 --   259 o    0.813
   262   8 o    1.850 --   264 h    0.817   263 h    0.802
   263   1 h    0.878 --   262 o    0.802
   264   1 h    0.878 --   262 o    0.817
   265   8 o    1.844 --   266 h    0.881   267 h    0.783
   266   1 h    0.900 --   265 o    0.881
   267   1 h    0.860 --   265 o    0.783
   268   8 o    1.822 --   270 h    0.856   269 h    0.829
   269   1 h    0.880 --   268 o    0.829
   270   1 h    0.887 --   268 o    0.856
   271   8 o    1.845 --   273 h    0.839   272 h    0.797
   272   1 h    0.875 --   271 o    0.797
   273   1 h    0.884 --   271 o    0.839
   274   8 o    1.854 --   275 h    0.843   276 h    0.824
   275   1 h    0.888 --   274 o    0.843
   276   1 h    0.886 --   274 o    0.824
   277   8 o    1.870 --   278 h    0.809   279 h    0.802
   278   1 h    0.878 --   277 o    0.809
   279   1 h    0.884 --   277 o    0.802
   280   8 o    1.865 --   281 h    0.824   282 h    0.807
   281   1 h    0.880 --   280 o    0.824
   282   1 h    0.873 --   280 o    0.807
   283   8 o    1.822 --   285 h    0.864   284 h    0.857
   284   1 h    0.885 --   283 o    0.857
   285   1 h    0.890 --   283 o    0.864
   286   8 o    1.790 --   288 h    0.870   287 h    0.821
   287   1 h    0.882 --   286 o    0.821
   288   1 h    0.896 --   286 o    0.870
   289   8 o    1.821 --   291 h    0.900   290 h    0.798
   290   1 h    0.873 --   289 o    0.798
   291   1 h    0.905 --   289 o    0.900
   292   8 o    1.830 --   293 h    0.884   294 h    0.808
   293   1 h    0.902 --   292 o    0.884
   294   1 h    0.868 --   292 o    0.808
   295   8 o    1.832 --   297 h    0.860   296 h    0.832
   296   1 h    0.885 --   295 o    0.832
   297   1 h    0.890 --   295 o    0.860
   298   8 o    1.849 --   300 h    0.819   299 h    0.814
   299   1 h    0.875 --   298 o    0.814
   300   1 h    0.882 --   298 o    0.819
   301   8 o    1.871 --   303 h    0.857   302 h    0.799
   302   1 h    0.871 --   301 o    0.799
   303   1 h    0.893 --   301 o    0.857
   304   8 o    1.838 --   306 h    0.885   305 h    0.802
   305   1 h    0.865 --   304 o    0.802
   306   1 h    0.903 --   304 o    0.885
   307   8 o    1.886 --   309 h    0.828   308 h    0.807
   308   1 h    0.868 --   307 o    0.807
   309   1 h    0.881 --   307 o    0.828
   310   8 o    1.885 --   312 h    0.808   311 h    0.776
   311   1 h    0.869 --   310 o    0.776
   312   1 h    0.874 --   310 o    0.808
   313   8 o    1.853 --   315 h    0.803   314 h    0.774
   314   1 h    0.871 --   313 o    0.774
   315   1 h    0.883 --   313 o    0.803
   316   8 o    1.839 --   317 h    0.850   318 h    0.820
   317   1 h    0.886 --   316 o    0.850
   318   1 h    0.883 --   316 o    0.820
   319   8 o    1.859 --   320 h    0.862   321 h    0.841
   320   1 h    0.889 --   319 o    0.862
   321   1 h    0.884 --   319 o    0.841
   322   8 o    1.875 --   324 h    0.835   323 h    0.829
   323   1 h    0.894 --   322 o    0.829
   324   1 h    0.878 --   322 o    0.835
   325   8 o    1.859 --   326 h    0.885   327 h    0.799
   326   1 h    0.900 --   325 o    0.885
   327   1 h    0.862 --   325 o    0.799
   328   8 o    1.867 --   329 h    0.826   330 h    0.796   626 h    0.104
   329   1 h    0.886 --   328 o    0.826
   330   1 h    0.871 --   328 o    0.796
   331   8 o    1.808 --   332 h    0.858   333 h    0.834
   332   1 h    0.896 --   331 o    0.858
   333   1 h    0.886 --   331 o    0.834
   334   8 o    1.800 --   335 h    0.835   336 h    0.818
   335   1 h    0.885 --   334 o    0.835
   336   1 h    0.890 --   334 o    0.818
   337   8 o    1.842 --   338 h    0.807   339 h    0.799
   338   1 h    0.875 --   337 o    0.807
   339   1 h    0.885 --   337 o    0.799
   340   8 o    1.816 --   342 h    0.886   341 h    0.774
   341   1 h    0.868 --   340 o    0.774
   342   1 h    0.900 --   340 o    0.886
   343   8 o    1.893 --   345 h    0.813   344 h    0.806
   344   1 h    0.875 --   343 o    0.806
   345   1 h    0.876 --   343 o    0.813
   346   8 o    1.882 --   348 h    0.834   347 h    0.833
   347   1 h    0.878 --   346 o    0.833
   348   1 h    0.889 --   346 o    0.834
   349   8 o    1.865 --   350 h    0.819   351 h    0.810
   350   1 h    0.891 --   349 o    0.819
   351   1 h    0.873 --   349 o    0.810
   352   8 o    1.838 --   353 h    0.893   354 h    0.783
   353   1 h    0.902 --   352 o    0.893
   354   1 h    0.871 --   352 o    0.783
   355   8 o    1.874 --   357 h    0.832   356 h    0.829
   356   1 h    0.891 --   355 o    0.829
   357   1 h    0.889 --   355 o    0.832
   358   8 o    1.848 --   360 h    0.825   359 h    0.819
   359   1 h    0.892 --   358 o    0.819
   360   1 h    0.877 --   358 o    0.825
   361   8 o    1.843 --   362 h    0.863   363 h    0.785
   362   1 h    0.896 --   361 o    0.863
   363   1 h    0.870 --   361 o    0.785
[...]
   370   8 o    1.821 --   372 h    0.894   371 h    0.831
   371   1 h    0.877 --   370 o    0.831
   372   1 h    0.900 --   370 o    0.894
   373   8 o    1.799 --   375 h    0.865   374 h    0.818
   374   1 h    0.881 --   373 o    0.818
   375   1 h    0.893 --   373 o    0.865
   376   8 o    1.831 --   378 h    0.842   377 h    0.790
   377   1 h    0.869 --   376 o    0.790
   378   1 h    0.898 --   376 o    0.842
   379   8 o    1.861 --   381 h    0.831   380 h    0.806
   380   1 h    0.874 --   379 o    0.806
   381   1 h    0.887 --   379 o    0.831
   382   8 o    1.875 --   384 h    0.855   383 h    0.791
   383   1 h    0.867 --   382 o    0.791
   384   1 h    0.886 --   382 o    0.855
   385   8 o    1.852 --   387 h    0.903   386 h    0.782
   386   1 h    0.877 --   385 o    0.782
   387   1 h    0.908 --   385 o    0.903
   388   8 o    1.863 --   389 h    0.834   390 h    0.791
   389   1 h    0.877 --   388 o    0.834
   390   1 h    0.878 --   388 o    0.791
   391   8 o    1.816 --   392 h    0.868   393 h    0.794
   392   1 h    0.901 --   391 o    0.868
   393   1 h    0.874 --   391 o    0.794
   394   8 o    1.828 --   396 h    0.863   395 h    0.810
   395   1 h    0.882 --   394 o    0.810
   396   1 h    0.891 --   394 o    0.863
   397   8 o    1.837 --   399 h    0.899   398 h    0.773
   398   1 h    0.861 --   397 o    0.773
   399   1 h    0.908 --   397 o    0.899
   400   8 o    1.798 --   401 h    0.901   402 h    0.810
   401   1 h    0.907 --   400 o    0.901
   402   1 h    0.878 --   400 o    0.810
   403   8 o    1.856 --   405 h    0.849   404 h    0.812
   404   1 h    0.881 --   403 o    0.812
   405   1 h    0.889 --   403 o    0.849
   406   8 o    1.856 --   407 h    0.827   408 h    0.817
   407   1 h    0.875 --   406 o    0.827
   408   1 h    0.882 --   406 o    0.817
   409   8 o    1.833 --   411 h    0.860   410 h    0.846
   410   1 h    0.892 --   409 o    0.846
   411   1 h    0.883 --   409 o    0.860
   412   8 o    1.868 --   413 h    0.830   414 h    0.817
   413   1 h    0.876 --   412 o    0.830
   414   1 h    0.871 --   412 o    0.817
   415   8 o    1.827 --   416 h    0.856   417 h    0.829
   416   1 h    0.894 --   415 o    0.856
   417   1 h    0.876 --   415 o    0.829
   418   8 o    1.841 --   419 h    0.861   420 h    0.858
   419   1 h    0.888 --   418 o    0.861
   420   1 h    0.882 --   418 o    0.858
   421   8 o    1.861 --   423 h    0.809   422 h    0.806
   422   1 h    0.875 --   421 o    0.806
   423   1 h    0.889 --   421 o    0.809
   424   8 o    1.855 --   426 h    0.838   425 h    0.800
   425   1 h    0.879 --   424 o    0.800
   426   1 h    0.896 --   424 o    0.838
   427   8 o    1.862 --   429 h    0.827   428 h    0.819
   428   1 h    0.872 --   427 o    0.819
   429   1 h    0.891 --   427 o    0.827
   430   8 o    1.860 --   432 h    0.856   431 h    0.783
   431   1 h    0.864 --   430 o    0.783
   432   1 h    0.891 --   430 o    0.856
   433   8 o    1.812 --   434 h    0.876   435 h    0.804
   434   1 h    0.897 --   433 o    0.876
   435   1 h    0.879 --   433 o    0.804
   436   8 o    1.832 --   437 h    0.880   438 h    0.814
   437   1 h    0.897 --   436 o    0.880
   438   1 h    0.881 --   436 o    0.814
   439   8 o    1.854 --   440 h    0.828   441 h    0.791
   440   1 h    0.892 --   439 o    0.828
   441   1 h    0.873 --   439 o    0.791
   442   8 o    1.822 --   444 h    0.837   443 h    0.827
   443   1 h    0.885 --   442 o    0.827
   444   1 h    0.894 --   442 o    0.837
   445   8 o    1.855 --   447 h    0.852   446 h    0.819
   446   1 h    0.871 --   445 o    0.819
   447   1 h    0.889 --   445 o    0.852
   448   8 o    1.848 --   450 h    0.841   449 h    0.838
   449   1 h    0.883 --   448 o    0.838
   450   1 h    0.888 --   448 o    0.841
   451   8 o    1.866 --   452 h    0.863   453 h    0.790
   452   1 h    0.898 --   451 o    0.863
   453   1 h    0.876 --   451 o    0.790
   454   8 o    1.834 --   455 h    0.832   456 h    0.810
   455   1 h    0.887 --   454 o    0.832
   456   1 h    0.877 --   454 o    0.810
   457   8 o    1.867 --   458 h    0.849   459 h    0.828
   458   1 h    0.895 --   457 o    0.849
   459   1 h    0.880 --   457 o    0.828
   460   8 o    1.845 --   461 h    0.806   462 h    0.800
   461   1 h    0.879 --   460 o    0.806
   462   1 h    0.878 --   460 o    0.800
   463   8 o    1.847 --   464 h    0.867   465 h    0.807
   464   1 h    0.896 --   463 o    0.867
   465   1 h    0.878 --   463 o    0.807
   466   8 o    1.814 --   467 h    0.880   468 h    0.844
   467   1 h    0.894 --   466 o    0.880
   468   1 h    0.884 --   466 o    0.844
   469   8 o    1.828 --   470 h    0.896   471 h    0.843
   470   1 h    0.900 --   469 o    0.896
   471   1 h    0.882 --   469 o    0.843
   472   8 o    1.808 --   474 h    0.894   473 h    0.808
   473   1 h    0.877 --   472 o    0.808
   474   1 h    0.902 --   472 o    0.894
   475   8 o    1.880 --   476 h    0.820   477 h    0.809
   476   1 h    0.879 --   475 o    0.820
   477   1 h    0.873 --   475 o    0.809
   478   8 o    1.846 --   480 h    0.861   479 h    0.799
   479   1 h    0.875 --   478 o    0.799
   480   1 h    0.898 --   478 o    0.861
   481   8 o    1.808 --   483 h    0.860   482 h    0.840
   482   1 h    0.880 --   481 o    0.840
   483   1 h    0.895 --   481 o    0.860
   484   8 o    1.821 --   486 h    0.891   485 h    0.802
   485   1 h    0.880 --   484 o    0.802
   486   1 h    0.900 --   484 o    0.891
   487   8 o    1.825 --   489 h    0.854   488 h    0.844
   488   1 h    0.883 --   487 o    0.844
   489   1 h    0.888 --   487 o    0.854
   490   8 o    1.842 --   491 h    0.866   492 h    0.806
   491   1 h    0.898 --   490 o    0.866
   492   1 h    0.876 --   490 o    0.806
   493   8 o    1.854 --   494 h    0.834   495 h    0.812
   494   1 h    0.872 --   493 o    0.834
   495   1 h    0.883 --   493 o    0.812
   496   8 o    1.817 --   497 h    0.903   498 h    0.796
   497   1 h    0.908 --   496 o    0.903
   498   1 h    0.873 --   496 o    0.796
   499   8 o    1.870 --   501 h    0.827   500 h    0.777
   500   1 h    0.870 --   499 o    0.777
   501   1 h    0.893 --   499 o    0.827
   502   8 o    1.849 --   504 h    0.830   503 h    0.820
   503   1 h    0.886 --   502 o    0.820
   504   1 h    0.883 --   502 o    0.830
   505   8 o    1.850 --   507 h    0.872   506 h    0.804
   506   1 h    0.866 --   505 o    0.804
   507   1 h    0.896 --   505 o    0.872
   508   8 o    1.875 --   509 h    0.847   510 h    0.810
   509   1 h    0.879 --   508 o    0.847
   510   1 h    0.873 --   508 o    0.810
   511   8 o    1.841 --   513 h    0.869   512 h    0.820
   512   1 h    0.878 --   511 o    0.820
   513   1 h    0.891 --   511 o    0.869
   514   8 o    1.791 --   516 h    0.841   515 h    0.826
   515   1 h    0.886 --   514 o    0.826
   516   1 h    0.892 --   514 o    0.841
   517   8 o    1.832 --   519 h    0.864   518 h    0.845
   518   1 h    0.885 --   517 o    0.845
   519   1 h    0.885 --   517 o    0.864
   520   8 o    1.849 --   522 h    0.894   521 h    0.799
   521   1 h    0.870 --   520 o    0.799
   522   1 h    0.901 --   520 o    0.894
   523   8 o    1.860 --   525 h    0.900   524 h    0.795
   524   1 h    0.869 --   523 o    0.795
   525   1 h    0.905 --   523 o    0.900
   526   8 o    1.812 --   528 h    0.864   527 h    0.797
   527   1 h    0.869 --   526 o    0.797
   528   1 h    0.900 --   526 o    0.864
   529   8 o    1.844 --   531 h    0.839   530 h    0.804
   530   1 h    0.878 --   529 o    0.804
   531   1 h    0.889 --   529 o    0.839
   532   8 o    1.838 --   533 h    0.901   534 h    0.806
   533   1 h    0.905 --   532 o    0.901
   534   1 h    0.884 --   532 o    0.806
   535   8 o    1.822 --   536 h    0.855   537 h    0.832
   536   1 h    0.886 --   535 o    0.855
   537   1 h    0.883 --   535 o    0.832
   538   8 o    1.812 --   540 h    0.875   539 h    0.827
   539   1 h    0.884 --   538 o    0.827
   540   1 h    0.894 --   538 o    0.875
   541   8 o    1.815 --   542 h    0.846   543 h    0.837
   542   1 h    0.889 --   541 o    0.846
   543   1 h    0.893 --   541 o    0.837
   544   8 o    1.804 --   545 h    0.841   546 h    0.830
   545   1 h    0.889 --   544 o    0.841
   546   1 h    0.894 --   544 o    0.830
   547   8 o    1.833 --   549 h    0.815   548 h    0.795
   548   1 h    0.866 --   547 o    0.795
   549   1 h    0.887 --   547 o    0.815
   550   8 o    1.866 --   551 h    0.867   552 h    0.778
   551   1 h    0.899 --   550 o    0.867
   552   1 h    0.868 --   550 o    0.778
   553   8 o    1.833 --   555 h    0.821   554 h    0.802
   554   1 h    0.881 --   553 o    0.802
   555   1 h    0.891 --   553 o    0.821
   556   8 o    1.856 --   557 h    0.829   558 h    0.792
   557   1 h    0.891 --   556 o    0.829
   558   1 h    0.870 --   556 o    0.792
   559   8 o    1.887 --   561 h    0.820   560 h    0.804
   560   1 h    0.885 --   559 o    0.804
   561   1 h    0.869 --   559 o    0.820
   562   8 o    1.845 --   563 h    0.843   564 h    0.832
   563   1 h    0.896 --   562 o    0.843
   564   1 h    0.876 --   562 o    0.832
   565   8 o    1.889 --   566 h    0.841   567 h    0.817
   566   1 h    0.891 --   565 o    0.841
   567   1 h    0.879 --   565 o    0.817
   568   8 o    1.852 --   569 h    0.833   570 h    0.829
   569   1 h    0.886 --   568 o    0.833
   570   1 h    0.882 --   568 o    0.829
   571   8 o    1.822 --   572 h    0.834   573 h    0.828
   572   1 h    0.881 --   571 o    0.834
   573   1 h    0.879 --   571 o    0.828
   574   8 o    1.822 --   575 h    0.854   576 h    0.828
   575   1 h    0.890 --   574 o    0.854
   576   1 h    0.885 --   574 o    0.828
   577   8 o    1.839 --   579 h    0.872   578 h    0.817
   578   1 h    0.886 --   577 o    0.817
   579   1 h    0.895 --   577 o    0.872
   580   8 o    1.867 --   581 h    0.883   582 h    0.765
   581   1 h    0.897 --   580 o    0.883
   582   1 h    0.867 --   580 o    0.765
   583   8 o    1.809 --   585 h    0.890   584 h    0.861
   584   1 h    0.887 --   583 o    0.861
   585   1 h    0.899 --   583 o    0.890
   586   8 o    1.824 --   587 h    0.894   588 h    0.750
   587   1 h    0.904 --   586 o    0.894
   588   1 h    0.866 --   586 o    0.750   118 o    0.109
   589   8 o    1.828 --   590 h    0.825   591 h    0.786
   590   1 h    0.884 --   589 o    0.825
   591   1 h    0.880 --   589 o    0.786
   592   8 o    1.822 --   593 h    0.834   594 h    0.816
   593   1 h    0.895 --   592 o    0.834
   594   1 h    0.879 --   592 o    0.816
   595   8 o    1.838 --   596 h    0.893   597 h    0.783
   596   1 h    0.903 --   595 o    0.893
   597   1 h    0.873 --   595 o    0.783
   598   8 o    1.866 --   600 h    0.857   599 h    0.811
   599   1 h    0.885 --   598 o    0.811
   600   1 h    0.897 --   598 o    0.857
   601   8 o    1.825 --   602 h    0.865   603 h    0.810
   602   1 h    0.895 --   601 o    0.865
   603   1 h    0.879 --   601 o    0.810
   604   8 o    1.831 --   606 h    0.829   605 h    0.815
   605   1 h    0.882 --   604 o    0.815
   606   1 h    0.889 --   604 o    0.829
   607   8 o    1.853 --   608 h    0.830   609 h    0.828
   608   1 h    0.881 --   607 o    0.830
   609   1 h    0.889 --   607 o    0.828
   610   8 o    1.817 --   611 h    0.860   612 h    0.809
   611   1 h    0.891 --   610 o    0.860
   612   1 h    0.878 --   610 o    0.809
   613   8 o    1.835 --   614 h    0.844   615 h    0.843
   614   1 h    0.888 --   613 o    0.844
   615   1 h    0.882 --   613 o    0.843
   616   8 o    1.828 --   618 h    0.896   617 h    0.796
   617   1 h    0.877 --   616 o    0.796
   618   1 h    0.905 --   616 o    0.896
   619   8 o    1.836 --   620 h    0.865   621 h    0.854
   620   1 h    0.887 --   619 o    0.865
   621   1 h    0.887 --   619 o    0.854
   622   8 o    1.830 --   623 h    0.907   624 h    0.821
   623   1 h    0.910 --   622 o    0.907
   624   1 h    0.884 --   622 o    0.821
   625   8 o    1.823 --   627 h    0.900   626 h    0.765
   626   1 h    0.871 --   625 o    0.765   328 o    0.104
   627   1 h    0.905 --   625 o    0.900
   628   8 o    1.870 --   630 h    0.830   629 h    0.803
   629   1 h    0.880 --   628 o    0.803
   630   1 h    0.878 --   628 o    0.830
   631   8 o    1.892 --   632 h    0.826   633 h    0.816
   632   1 h    0.890 --   631 o    0.826
   633   1 h    0.868 --   631 o    0.816
   634   8 o    1.839 --   636 h    0.840   635 h    0.833
   635   1 h    0.890 --   634 o    0.833
   636   1 h    0.887 --   634 o    0.840
   637   8 o    1.822 --   639 h    0.843   638 h    0.839
   638   1 h    0.885 --   637 o    0.839
   639   1 h    0.886 --   637 o    0.843
   640   8 o    1.859 --   642 h    0.836   641 h    0.823
   641   1 h    0.889 --   640 o    0.823
   642   1 h    0.888 --   640 o    0.836
   643   8 o    1.821 --   644 h    0.863   645 h    0.834
   644   1 h    0.892 --   643 o    0.863
   645   1 h    0.887 --   643 o    0.834
   646   8 o    1.825 --   647 h    0.852   648 h    0.828
   647   1 h    0.892 --   646 o    0.852
   648   1 h    0.888 --   646 o    0.828
   649   8 o    1.803 --   651 h    0.893   650 h    0.806
   650   1 h    0.881 --   649 o    0.806
   651   1 h    0.898 --   649 o    0.893
   652   8 o    1.836 --   653 h    0.904   654 h    0.807
   653   1 h    0.906 --   652 o    0.904
   654   1 h    0.877 --   652 o    0.807
   655   8 o    1.872 --   656 h    0.825   657 h    0.809
   656   1 h    0.889 --   655 o    0.825
   657   1 h    0.881 --   655 o    0.809
   658   8 o    1.838 --   660 h    0.855   659 h    0.814
   659   1 h    0.875 --   658 o    0.814
   660   1 h    0.894 --   658 o    0.855
   661   8 o    1.854 --   663 h    0.832   662 h    0.804
   662   1 h    0.873 --   661 o    0.804
   663   1 h    0.884 --   661 o    0.832
   664   8 o    1.830 --   665 h    0.863   666 h    0.821
   665   1 h    0.895 --   664 o    0.863
   666   1 h    0.885 --   664 o    0.821
   667   8 o    1.821 --   668 h    0.852   669 h    0.840
   668   1 h    0.894 --   667 o    0.852
   669   1 h    0.877 --   667 o    0.840
   670   8 o    1.859 --   671 h    0.833   672 h    0.816
   671   1 h    0.887 --   670 o    0.833
   672   1 h    0.876 --   670 o    0.816
   673   8 o    1.874 --   674 h    0.844   675 h    0.833
   674   1 h    0.873 --   673 o    0.844
   675   1 h    0.888 --   673 o    0.833
   676   8 o    1.829 --   677 h    0.866   678 h    0.847
   677   1 h    0.885 --   676 o    0.866
   678   1 h    0.891 --   676 o    0.847
   679   8 o    1.871 --   680 h    0.822   681 h    0.814
   680   1 h    0.892 --   679 o    0.822
   681   1 h    0.884 --   679 o    0.814
   682   8 o    1.849 --   684 h    0.825   683 h    0.817
   683   1 h    0.873 --   682 o    0.817
   684   1 h    0.895 --   682 o    0.825
   685   8 o    1.813 --   687 h    0.840   686 h    0.833
   686   1 h    0.886 --   685 o    0.833
   687   1 h    0.891 --   685 o    0.840
   688   8 o    1.830 --   690 h    0.841   689 h    0.839
   689   1 h    0.886 --   688 o    0.839
   690   1 h    0.892 --   688 o    0.841
   691   8 o    1.842 --   692 h    0.841   693 h    0.820
   692   1 h    0.886 --   691 o    0.841
   693   1 h    0.885 --   691 o    0.820
   694   8 o    1.829 --   695 h    0.840   696 h    0.829
   695   1 h    0.890 --   694 o    0.840
   696   1 h    0.886 --   694 o    0.829
   697   8 o    1.838 --   699 h    0.843   698 h    0.832
   698   1 h    0.885 --   697 o    0.832
   699   1 h    0.892 --   697 o    0.843
   700   8 o    1.848 --   702 h    0.834   701 h    0.803
   701   1 h    0.872 --   700 o    0.803
   702   1 h    0.885 --   700 o    0.834
   703   8 o    1.840 --   705 h    0.859   704 h    0.829
   704   1 h    0.885 --   703 o    0.829
   705   1 h    0.898 --   703 o    0.859
   706   8 o    1.871 --   708 h    0.833   707 h    0.825
   707   1 h    0.881 --   706 o    0.825
   708   1 h    0.876 --   706 o    0.833
   709   8 o    1.864 --   710 h    0.900   711 h    0.823
   710   1 h    0.907 --   709 o    0.900
   711   1 h    0.879 --   709 o    0.823
   712   8 o    1.839 --   714 h    0.848   713 h    0.799
   713   1 h    0.879 --   712 o    0.799
   714   1 h    0.889 --   712 o    0.848
   715   8 o    1.862 --   717 h    0.871   716 h    0.783
   716   1 h    0.869 --   715 o    0.783
   717   1 h    0.893 --   715 o    0.871
   718   8 o    1.803 --   720 h    0.835   719 h    0.830
   719   1 h    0.884 --   718 o    0.830
   720   1 h    0.883 --   718 o    0.835
   721   8 o    1.843 --   722 h    0.849   723 h    0.838
   722   1 h    0.882 --   721 o    0.849
   723   1 h    0.890 --   721 o    0.838
   724   8 o    1.878 --   725 h    0.835   726 h    0.813
   725   1 h    0.891 --   724 o    0.835
   726   1 h    0.887 --   724 o    0.813
   727   8 o    1.828 --   729 h    0.852   728 h    0.842
   728   1 h    0.886 --   727 o    0.842
   729   1 h    0.885 --   727 o    0.852
   730   8 o    1.861 --   731 h    0.830   732 h    0.830
   731   1 h    0.893 --   730 o    0.830
   732   1 h    0.874 --   730 o    0.830
   733   8 o    1.820 --   735 h    0.874   734 h    0.838
   734   1 h    0.883 --   733 o    0.838
   735   1 h    0.894 --   733 o    0.874
   736   8 o    1.842 --   738 h    0.879   737 h    0.825
   737   1 h    0.872 --   736 o    0.825
   738   1 h    0.896 --   736 o    0.879
   739   8 o    1.821 --   740 h    0.888   741 h    0.824
   740   1 h    0.896 --   739 o    0.888
   741   1 h    0.878 --   739 o    0.824
   742   8 o    1.830 --   744 h    0.898   743 h    0.781
   743   1 h    0.863 --   742 o    0.781
   744   1 h    0.906 --   742 o    0.898
   745   8 o    1.863 --   747 h    0.826   746 h    0.824
   746   1 h    0.882 --   745 o    0.824
   747   1 h    0.892 --   745 o    0.826
   748   8 o    1.836 --   749 h    0.842   750 h    0.802
   749   1 h    0.886 --   748 o    0.842
   750   1 h    0.874 --   748 o    0.802
   751   8 o    1.857 --   753 h    0.832   752 h    0.799
   752   1 h    0.879 --   751 o    0.799
   753   1 h    0.885 --   751 o    0.832
   754   8 o    1.868 --   755 h    0.886   756 h    0.848
   755   1 h    0.897 --   754 o    0.886
   756   1 h    0.883 --   754 o    0.848
 ---------------------------------------------------------------------------

Topologies differ in total number of bonds
Writing topology from bond orders to xtbtopo.mol

molecular dipole:
                 x           y           z       tot (Debye)
 q only:        4.633       0.790      -2.684
   full:        5.412       1.048      -3.577      16.702
molecular quadrupole (traceless):
                xx          xy          yy          xz          yz          zz
 q only:       -8.078      17.600     -17.402    -131.075      58.125      25.479
  q+dip:       15.898      44.952     -37.617    -181.944      76.508      21.719
   full:       18.629      46.656     -38.515    -183.065      76.656      19.886


           -------------------------------------------------
          | TOTAL ENERGY            -1283.565773204430 Eh   |
          | GRADIENT NORM               0.125592382461 Eh/α |
          | HOMO-LUMO GAP               7.346136230638 eV   |
           -------------------------------------------------

------------------------------------------------------------------------
 * finished run on 2022/11/24 at 12:21:40.224     
------------------------------------------------------------------------
 total:
 * wall-time:     0 d,  0 h,  0 min, 23.540 sec
 *  cpu-time:     0 d,  0 h,  0 min, 38.293 sec
 * ratio c/w:     1.627 speedup
 SCF:
 * wall-time:     0 d,  0 h,  0 min, 22.544 sec
 *  cpu-time:     0 d,  0 h,  0 min, 36.581 sec
 * ratio c/w:     1.623 speedup

