756
 energy: -1283.290535216079 gnorm: 0.020772319205 xtb: 6.5.1 (579679a)
o            6.72666471822004       -6.95155642645493       -1.25851392383893
h            6.39460570352708       -7.82850990409385       -1.45428415987581
h            7.63999845998363       -7.04392840508494       -0.93752721281918
o           -0.54558780328186        3.02604839335201        4.29731661920750
h           -1.26153559795858        3.33418065766462        3.69897558091969
h            0.09462830212072        3.76059898020268        4.31346510470940
o            0.58156849014390       -1.67609846469640       -1.89112388244714
h            0.06739633304725       -1.98827231223396       -1.11337564680416
h            0.32960461862012       -2.28823718310426       -2.59398094253821
o           -5.77038417054069        2.49355118775555       -1.27037725303829
h           -5.07929089635827        2.07933499728551       -1.81263244892908
h           -5.61895977398933        3.45165942356494       -1.31862596996192
o           -4.12288104119102        1.91877270788183        1.11095394342906
h           -4.72161599714251        2.62753049482570        1.37821118123353
h           -3.61793852523853        1.63971267737243        1.88294075320607
o           -2.57742047227467       -5.44200615840645        1.21660053352746
h           -3.04746711906504       -4.74273227468300        0.71674375230276
h           -2.79437837894559       -5.30151122454120        2.14421036476641
o            0.17932375026305       -3.90465708403753       -3.48540062893501
h           -0.77263969611695       -3.79944892499812       -3.27605222925754
h            0.61463634357560       -4.25184987422600       -2.67865438138223
o            0.13794612650199       -4.72347675656960        1.34196533149657
h           -0.16859183015845       -5.21316288383784        2.11346657601889
h            1.09842593859145       -4.82367241817376        1.30626646520845
o           -0.97003311940305       -2.67475445914430       -0.00194835751913
h           -0.58877697577498       -3.42698040945470        0.48944467889058
h           -1.84285770902515       -2.95138680147909       -0.30778376924477
o            1.33093810501941        2.11199885315478       -4.87877138196191
h            1.96737369847270        2.38677654426190       -5.56738494327434
h            1.06476480781422        2.91996338799428       -4.40232664116497
o           -2.25477113510870       -0.50354074418277       -3.59902918279285
h           -2.88017162248588        0.13675837791199       -3.20241455928938
h           -1.61060315597284        0.05029040273446       -4.08548666916042
o           -1.48836780081342        2.98866023182083       -2.51687226899205
h           -0.89126604101073        3.61710826601548       -2.97953717476754
h           -1.01674571016946        2.13617542241197       -2.59208254501421
o           -3.68524710319373       -3.79642974987816       -0.52182071088691
h           -3.80182314087816       -4.41410508677252       -1.26749752320543
h           -4.53723103614877       -3.34858331052813       -0.41211270076526
o           -3.73377800189125        1.56549253145833       -2.82862912516788
h           -3.80037933661179        1.85186340618956       -3.76153369341588
h           -3.00239682564667        2.10593795981750       -2.49058174713139
o           -1.58936480614314        2.93359981252917        0.18887807007626
h           -1.42669934763511        3.07383870131853       -0.76195735300808
h           -0.82992152060236        3.33568513842507        0.65292599142366
o            0.05189392298564        0.88538808245616       -2.49774957446601
h            0.75829055804783        1.46646943544510       -2.19579614598038
h            0.30449045665047       -0.03184765874531       -2.28410746308699
o           -2.69447506321463        0.75298982933985        3.08334843503596
h           -2.06902189604238        0.26385436782018        3.63766483150817
h           -3.58434590935471        0.59071229499524        3.46835423191625
o           -4.19137569513671       -1.31228533275005        7.43829024849740
h           -5.15273462114452       -1.16256893674011        7.38901338296922
h           -4.06399212755474       -2.18809359559524        7.03100618858391
o           -0.19813142901816       -6.18667009791866        3.87301591167294
h           -0.98585523113525       -6.64481802141308        4.17828970135072
h            0.15178886821741       -5.69647578199785        4.64684892607904
o           -3.59553621911679        1.07370775518465        6.38386169362402
h           -2.93224789145462        1.50981107872394        6.94411027494564
h           -3.72459649674299        0.16833555558211        6.73401812653776
o           -2.66989494849492       -2.29045318339839        2.17491858621763
h           -1.92639114987532       -2.85452241466602        2.40354536090635
h           -2.98632704523757       -1.92178000300304        3.02519974013073
o            3.62535126975081        0.18979379499134        1.63609069720830
h            3.28053797104126       -0.28308891413588        2.41403004413312
h            2.96910639423528        0.86853698051968        1.45218988986999
o            0.44369410363547       -1.47983405110552        2.08604530096274
h            0.97497830444455       -1.93635083175080        1.40588158796641
h           -0.01665465155503       -2.16097515751084        2.61030785792347
o           -0.31902571650169        5.19378774393583       -0.98222356707209
h           -0.07009327139699        5.16273158661685       -0.04838384211118
h           -0.76356525985892        6.04462050989812       -1.12343530467115
o           -1.43319906163174       -0.83804424754888        8.03236952658035
h           -1.27316866807895        0.00180902513198        7.57303749239558
h           -2.38113472088543       -0.89786821279819        8.19430834785608
o           -5.15641766460268        0.40906069884876        4.00364711735338
h           -5.65900527487385        1.24184598468540        4.00394366812584
h           -5.55515013120936       -0.15046108364042        3.30720628706728
o           -7.97195222468591        0.27618476107633       -1.69549239049735
h           -7.16681716698351       -0.15025650595958       -2.05597203505316
h           -7.73450994931486        0.57541766751434       -0.79713088844478
o            2.90217305234511        3.07314130288295        1.57205069804953
h            3.17929559713407        3.99634511143082        1.67753203216351
h            3.38755972111238        2.75185792029069        0.79016254339126
o           -2.20145763945534       -3.04667811013799       -2.70481763885475
h           -3.10655532398279       -3.25950543009251       -2.98858253192819
h           -2.09241068797215       -2.11991001992081       -2.97377162660209
o            3.24369495505926       -2.39964266236823       -2.30282445295085
h            3.15573705421985       -3.29298972508616       -2.69490952867410
h            2.33728586275333       -2.10896798043604       -2.10120279935672
o           -3.87488361649959       -5.58218230260153       -2.55105903772023
h           -3.33597798009762       -5.43823279775694       -3.35033847946546
h           -4.79949829981670       -5.59010441786678       -2.84941466043950
o           -5.70881129815350       -0.59890618073522       -2.82233696015196
h           -5.60607227188481       -0.00319324350359       -3.59033437109928
h           -5.18258869537463       -0.22864308348692       -2.09374285794864
o            1.75157507789380        0.80613997830875        5.77223188786942
h            1.67744960207114        0.99558849373207        4.82699176796592
h            0.86925745185268        0.98711399281823        6.14425465495436
o            4.21633137532104       -2.70489340824807        2.45776028617632
h            4.49278568477233       -3.60504636373450        2.71286966260769
h            4.94951244059857       -2.11294480026728        2.71151733983314
o            2.44881847610562       -1.20873158715726        3.67699379855937
h            3.01475058150042       -1.94444060080030        3.36577114293348
h            1.63464478624247       -1.20428507086978        3.10466947385797
o            3.09702003536756        2.89280753741392        4.29895259995557
h            2.91368515597672        2.85958763839569        3.34531619253120
h            3.89353261236933        3.42269315855234        4.42503759505815
o           -3.60592588545267        4.73960697707344       -2.64058504471449
h           -2.78709904432097        4.24600714096791       -2.76712745587422
h           -4.31366742569074        4.26375882352124       -3.11334478115325
o           -5.94955947591729        5.19864532348474       -1.42493933249817
h           -6.78575945673694        4.96982265431471       -0.98252424574430
h           -6.16202129810575        5.56750451016345       -2.30060642765640
o            0.99734825506874       -2.03900306902722        5.80191317581545
h            1.15882740608714       -1.53266559150403        6.61714373158100
h            1.68254117849888       -1.75682693320696        5.16614509330015
o           -2.92868994378464       -4.60283497476231        3.88783408889829
h           -3.40286578209188       -4.15483386342664        4.61082970112089
h           -2.02002813178747       -4.24646415942563        3.88208186363168
o           -0.56382831998949       -3.34337265091152        3.72323228226957
h           -0.78327435952990       -2.98782158069866        4.60575228629183
h            0.31687400890130       -3.76163502960661        3.79025120035139
o            0.94967291469205        1.19604095253484        3.16287706415738
h            0.92963654645080        1.25133581350470        2.19626647443667
h            0.37594034992118        1.92008352096036        3.50110921107728
o            0.07007251369909       -3.08842953226476       -7.68977769296476
h            0.35544243952330       -3.90579236273218       -7.24624815711450
h            0.84612997239860       -2.73453291259807       -8.13902345898522
o            3.86364598984230       -3.11768712455004        5.29601666815087
h            4.75823297384537       -3.02622673773568        4.95910013290909
h            3.76825132579266       -2.40279375457595        5.96847124626294
o           -8.76632946818595        2.48262658656915        2.33452140110996
h           -8.07560457256904        2.41049378126152        3.02341588519636
h           -8.93201991651369        3.43816512001705        2.25753935465218
o           -9.00964005721183        5.17947252216398        2.69305378734613
h           -8.12505694898087        5.55352226436034        2.89925968271537
h           -9.39226419791329        5.75917509728080        2.02851971260012
o           -8.51308761558092       -2.49984880347137        0.49541350833684
h           -8.41029351331755       -2.80365296588528        1.42437612085065
h           -8.92729978935145       -1.61979803691967        0.55260981433050
o            3.01459613381448       -6.66762611889739        4.31474257659093
h            2.40389029137406       -5.91416984380093        4.16106884034816
h            2.56686016245411       -7.45076336564009        3.98524085146129
o            6.90202182425071       -3.78028813617574        4.61870723919006
h            6.67011702316636       -3.47634478107481        5.52574310173774
h            6.21171074599591       -4.40101916218650        4.31750367463473
o            1.34805815683088        3.14083801490236       -1.40321289021424
h            2.12420848602242        3.64936476552291       -1.08284827003649
h            0.64512191024764        3.81499344235611       -1.43543942522403
o            4.05696532600662       -5.44162507494223       -1.41287682131731
h            3.14394035431421       -5.07433268321832       -1.38832087809547
h            3.98484841939754       -6.40733750664582       -1.50358094050200
o           -8.77965906654881        5.71828394057442       -2.47332156803239
h           -8.14050974174726        6.20450819166401       -3.01012370992941
h           -8.52528942604890        4.77176739808959       -2.54940071657402
o            5.53440358583424        1.92777028384719        2.40972844813247
h            5.42895888741688        2.71862374187417        1.83566004149291
h            4.89130984709890        1.25403246185475        2.11839032116204
o            0.38876741083132        2.40638252544313       -7.82472645174493
h            0.66656631595809        1.54382862396792       -7.47615586788411
h           -0.55649204977056        2.31441338357560       -8.03085295142130
o           -7.51748894024965       -2.84133017288971       -2.73057255686530
h           -8.41313149025459       -2.53161961742361       -2.51684052079467
h           -6.95747044030614       -2.62666511490546       -1.96107243215751
o           -4.01876611715063        2.99942996142177        4.46534371141843
h           -3.76549205664881        2.20297866491429        4.94918612852882
h           -3.90181904030087        3.74805827326624        5.07963110872694
o            2.90669266992552       -5.01618943451287        1.30850803480036
h            3.04133943293363       -5.96949953956729        1.20002053776575
h            3.73513400026509       -4.59605275769179        1.01062397403729
o           -2.70022050008167       -8.43389510542813        2.50414451477273
h           -2.67423479169238       -7.99761848120429        3.36941609579531
h           -3.60932718533748       -8.35253309877657        2.18635393175657
o            2.40998260310908        0.07284924884110       -3.61360504594049
h            1.92666534264974        0.82476864698055       -4.02160476568711
h            2.08209246782958       -0.73305996908903       -4.04868093067545
o            2.59589757416001       -1.93611258997325       -8.37853459426410
h            2.85681812625273       -2.62205682473339       -7.73446388711893
h            3.43136159854826       -1.50872060042544       -8.62065652350075
o           -0.72414597971590       -0.51460771195632        4.39082563653216
h           -0.07154017736255       -0.04277947423108        3.83154606582015
h           -0.20853051965303       -1.14873189942379        4.92778659191442
o           -0.74679756021442       -7.03395100941085       -4.48223236775185
h           -1.39330362083333       -6.32563047012643       -4.64681775098164
h           -1.11001860411562       -7.54059916320525       -3.73279623428227
o            0.89806790148010        1.27002141157097        0.45309508586329
h            0.92668597252458        2.06802195373519       -0.11286949522849
h            1.45656612926429        0.62017731996185       -0.02473010660547
o           -1.08177736513570       -5.35854314704989       -1.22889767098629
h           -1.21498392197714       -5.39758831032762       -0.27132425462710
h           -1.70837989440159       -4.71856866842489       -1.58163426766052
o            5.00725587074135       -5.15145357386340        3.30348983661210
h            5.30544180897681       -5.65717876524369        2.52444981588916
h            4.37034804363188       -5.73275818843163        3.75702723173392
o           -3.57774839756685       -0.94734184090860       -5.88183459540070
h           -3.84279735577639       -1.89242965792585       -5.98602602973383
h           -3.07130528945338       -0.90995386377716       -5.03786569240142
o           -6.17393285820048       -5.12241361725751        0.42449163101670
h           -6.47201706644528       -4.47949528020534       -0.22469233285394
h           -5.67210709005830       -4.59639603426005        1.08667067878180
o           -0.97828499833769        0.92976371173939       -5.40072330053695
h           -0.11428318799708        1.36555269480825       -5.25027524509500
h           -0.94191585771166        0.45997935132457       -6.24774046595318
o          -11.24769444777199        4.38023974171419       -0.05870781865350
h          -10.80704346265410        5.18231388630032        0.23856535296645
h          -11.44702725117844        4.54973574098887       -1.01758534409119
o            3.13764061439904       -5.35940795816971        6.75094403806710
h            3.31244181468162       -6.07189262516739        6.12291854173367
h            3.52810651277265       -4.55834267019045        6.36221972693204
o            0.79596909915246        1.97132613860606        8.42372014257214
h           -0.16978877524776        1.99512419339827        8.41946403676707
h            1.06474264661612        2.56496436153020        7.69891378051737
o            2.66527985472320       -0.02295051327065       -0.95531503216880
h            3.32784264885268        0.67819036557925       -0.77954274077620
h            2.52652183489656       -0.03112954611178       -1.92230022455483
o            5.32784447839828        4.24107740422530        1.13326506905922
h            6.12825674183821        4.41362519771707        0.61353771457802
h            5.32592205257654        4.90405774631569        1.84408367041120
o           -5.43750212552459        0.82241198009905       -5.04608899723884
h           -4.77700947850322        0.21045120287517       -5.43339643630544
h           -6.24112232656723        0.73981037906263       -5.56221668665410
o            5.75606550226889       -6.87800851067856        1.35258500161095
h            5.94233141208781       -6.71151185152580        0.41303425448001
h            6.63295837311378       -6.88578781785671        1.78781123533209
o           -2.27800500105360        1.91635217020634       -8.03483376455183
h           -2.13336817667255        0.95753260736311       -8.06722763984648
h           -3.07842322459316        2.09693404185271       -8.52730287066207
o            4.45364171410417       -1.78817350229876       -4.54096931240212
h            3.97983633796225       -1.86666311261665       -3.67980361619846
h            4.20949363085550       -2.56653674318449       -5.04971063660279
o           -8.21588045715482       -3.28731535321275        3.00893691153953
h           -8.15582738492628       -4.27157549999597        2.86887999933372
h           -9.06504681647174       -3.10208087759829        3.43140344414428
o           -9.78753003404181       -1.60540723785482       -2.05693996536336
h          -10.52196558520284       -1.72607012516015       -1.42433751245389
h           -9.23734339618664       -0.84900619153172       -1.75718645777359
o           -9.24250499040758       -4.71595270546783       -0.99776192883067
h           -9.17263428139015       -4.56589460398979       -1.95873343067449
h           -8.97504696132174       -3.89153866935457       -0.55308223238641
o           -9.24159042309252        6.38906092814165        0.13159869029061
h           -8.59444566783248        7.08382708198350        0.37050157782606
h           -9.20315696415804        6.33177321225650       -0.84295710389301
o           -4.86870548579571        7.34059657226107       -0.25033584047478
h           -4.43355071686793        7.74571419117517       -1.01041719085643
h           -5.18809351466377        6.47792920109667       -0.59247137283233
o           -3.55387646558197        4.72759654528743        0.05917770650943
h           -3.71507819312605        4.85684160279652       -0.89363457289145
h           -2.90266580609914        3.99622867134189        0.11960422220357
o           -1.02266155772025        4.72495839963233        6.81662118767412
h           -0.20662939742944        4.25026228317303        6.57336855554240
h           -0.87262793964031        5.62252188755875        6.48612234953669
o            0.96185827666169        5.13222115354784        3.88460172479832
h            1.89398247768199        5.36622825203721        4.03101581211405
h            0.43212853920830        5.78913124250125        4.37685607352826
o            0.05091710297614        4.77718100918736       -6.51674311659553
h            0.18205717810939        3.93211329249019       -6.99034784335601
h            0.90554266938639        5.22773994418542       -6.49353820124844
o            2.91657767470829        3.02215858991318       -6.89423551537331
h            2.26999108839679        2.88384122064545       -7.59340527010608
h            2.84072070754603        3.96030683567449       -6.61176779867959
o            4.27537619674320        2.05118703769709       -0.57596802666345
h            5.20803916951339        1.94599996855609       -0.28594296157097
h            4.33834083330126        2.19592084106869       -1.54025716659954
o            2.63323600539600        5.41480325983070       -5.75651812872722
h            3.44539109304674        5.92718273549333       -5.79226831431010
h            2.68122378114378        4.93788091977784       -4.89331064991299
o           -1.32935120636678        7.23318779092628       -3.97914050742687
h           -1.70276511172237        6.43210541704839       -4.38605112607509
h           -0.37072148090545        7.11027416512950       -3.93877598877192
o           -5.06349941462332       -3.49817901904900        2.19301104283901
h           -4.13923527697384       -3.17855599910302        2.13330337277827
h           -5.61029253839333       -2.70112456619778        2.10937897729791
o            1.10915272309631       -6.88495089043458       -0.47598594753918
h            1.88594877582741       -7.19234814931498        0.00367457405892
h            0.34834544748129       -7.32587632542658       -0.05486436470990
o            7.52480401747058       -2.57649211136081       -0.70917501850496
h            7.13268632595016       -2.47656407643145       -1.60010833224647
h            8.33109365916564       -2.01244874999114       -0.72288856323261
o            1.97093350674246       -4.26204869837988        3.71294829652381
h            2.60812871282548       -3.80282521578485        4.28661697730036
h            2.37996352039391       -4.37751937366666        2.83561211432015
o            4.16489962579304        7.72788702772958       -0.00336230628831
h            4.17640367342553        7.47726107948159       -0.93802269487280
h            5.08648054709125        7.69254344390819        0.28131061080069
o           -6.81717929322194       -0.96409103565467        6.81334918417772
h           -6.71121822435265       -1.60089813337350        6.07849756045477
h           -7.46332475837459       -0.32306128492753        6.50347224682701
o           -6.49883425165734       -2.06140655504851       -7.48699338507889
h           -6.79139127761476       -1.85335459375123       -6.57086973337421
h           -7.25405713839001       -2.44977268601705       -7.92744887381442
o           -4.01878784404876        7.40755897894866       -2.92445144697780
h           -3.30970962353512        7.77317954822707       -3.45780002879541
h           -3.79483455182659        6.46130383883932       -2.80666386650621
o           -6.42020712845193        6.50808583509910       -3.77896057399923
h           -5.67224072204640        7.07348286304282       -3.50779011945734
h           -6.15476471487904        6.14695391900355       -4.63448956932585
o            4.24831651115343        0.45400275317902        4.73685641192843
h            3.48632019764942       -0.09459035002435        4.48636076856843
h            3.93502701261992        1.37174336223386        4.66762140025166
o           -4.83660508917385       -3.07224435586617       -3.47255298412676
h           -5.17982103333151       -2.18235297552778       -3.24696054035630
h           -5.53452820582278       -3.70333846451514       -3.24461788037382
o            0.81887893222665       -5.06926628458824       -5.89258116230339
h            0.56266836299708       -4.69174135141398       -5.02565543663452
h            0.47690941065389       -5.96682210291598       -5.87485960344802
o            1.60411752547468       -4.38846654125115       -1.25914607688028
h            1.76021987649195       -3.70120832821255       -0.58564112736616
h            1.11566059019238       -5.11531440831595       -0.83545602228900
o           -5.59165780172265        4.15210714057995        1.59770904916945
h           -4.85720263816303        4.49400809515916        1.02637020067634
h           -6.39102915995924        4.12252608222408        1.03099819714686
o           -7.27282156384882       -1.60385159919920       -5.01790333435359
h           -7.23234592530444       -2.10174250370632       -4.16373541020098
h           -7.64130422436232       -0.72658966318931       -4.78189983784926
o          -11.42370414854215        4.86781162497853       -2.62917533617308
h          -10.60342406544527        5.37356943425577       -2.72813292639191
h          -11.25666443743988        4.01364947252524       -3.07861012687567
o            5.68349601150179        6.15755809071971        3.03612518141717
h            6.45435172418427        5.86515819134806        3.54032595403885
h            6.03028105092840        6.66748471371041        2.28496037760830
o           -5.60213235865083        3.47689818222346       -4.04296743720551
h           -5.51701502954775        4.11417648039902       -4.77781870342797
h           -5.53970166224254        2.59482373795985       -4.43712810733627
o            1.46908435080274        3.69674828052670        6.36012613202617
h            2.09831673602408        4.33546640076830        6.70381925413954
h            1.91224693838733        3.29738748667803        5.58416447771739
o            3.99940935214674        0.36087203791924       -6.04403050895276
h            3.05903416959168        0.45795488551222       -6.28072494019254
h            4.05815628039609       -0.40430192849001       -5.43086290784033
o           -1.89593105730102       -5.26382948633731        6.92772109616650
h           -2.20446938657565       -5.97758383691756        6.35256947102701
h           -0.92880481532822       -5.23167082202069        6.81544790788288
o            5.47826355214268        4.02401008956435       -2.30257448787398
h            5.94221693989833        3.30716644377093       -2.75629461717908
h            6.13468903724156        4.35273219066605       -1.65968216341982
o           -6.10058594330569       -2.42873337426917       -0.49216734783820
h           -5.70879505145479       -1.54492073726683       -0.40185907801668
h           -6.95589644445233       -2.39777605784124       -0.00447934798420
o            9.75375834897511        2.75978295865519        4.40187340410705
h            9.08928110472301        2.33538668742986        3.80260583450542
h           10.56518170299366        2.79997855212631        3.88667569950552
o           -9.52865446535947       -0.07417447091819        1.06259957821524
h           -9.55553642996542        0.81457200652617        0.65940845232178
h           -9.08730019260710        0.02026361301995        1.93079607636628
o           -6.55746710731744        2.71321686227565        3.73330323783507
h           -6.05608011973462        3.13025285798444        3.01747361504742
h           -6.44250938548268        3.29083900398587        4.50553540758988
o           -7.81106478301228        4.14675606967594        0.13772809872186
h           -8.40025609694865        4.91830139679462        0.26195862429612
h           -8.37890324233005        3.39325631738353       -0.10121934150930
o           -5.99352628503821        2.01847417753201        6.97851846915371
h           -6.24066171380983        1.45386723491470        7.71169370913155
h           -5.11714810914585        1.68513099485864        6.66118114139493
o           -1.71023436102950       -2.69159012458200        6.07250148281137
h           -1.47292304904662       -2.10577793173192        6.81402455481496
h           -1.92659368135648       -3.56477853627019        6.45283971942455
o            0.62899096454400       -4.79788550356634        6.08713918195285
h            1.49177056079765       -5.08822148792978        6.45706855873194
h            0.69981833077300       -3.82758705708786        6.03419326916504
o           -2.40611673246739        5.08636852800169       -5.34621056289424
h           -1.70493223432159        5.09318111296957       -6.01068504354641
h           -2.61491811449583        4.13408379605173       -5.19862383268697
o            3.31273385695421        4.77016025843880       -0.81943958957493
h            4.15962062228241        4.31520045304812       -0.70933951368971
h            3.12808494928560        5.21967800493375        0.03147620697996
o            4.58639774968757        1.54912139807719       -3.22515203047962
h            5.31014310294065        0.94891366126251       -2.95462059917886
h            3.83936106629540        0.98254046124273       -3.47898929892949
o            1.61761406132276        8.18027815985764        3.93288643761845
h            2.26111756012011        7.48891351330050        4.18289941282293
h            2.10813001911383        8.99841921525292        3.86632987149315
o            4.23695228570816        4.45246988411296        6.56538873048228
h            4.01471347162691        3.57036007925231        6.92602263612397
h            5.07134383999580        4.30430434755922        6.10476393151792
o            5.86002390062434        3.41736530854707        4.57084875223012
h            5.76481688945698        2.78005748787444        3.83248799783284
h            6.66501379933972        3.92840451123417        4.37853591197238
o            5.32620545675031       -4.03135324198269        0.43224240469770
h            5.28778795191448       -3.10953931850588        0.10811019047008
h            5.15143358136528       -4.59888003152920       -0.33523624489778
o            7.53785536025971       -3.70251930999119        1.89711617069117
h            6.75538424115509       -3.79680506964368        1.31357736723018