      -----------------------------------------------------------      
     |                   =====================                   |     
     |                           x T B                           |     
     |                   =====================                   |     
     |                         S. Grimme                         |     
     |          Mulliken Center for Theoretical Chemistry        |     
     |                    University of Bonn                     |     
      -----------------------------------------------------------      

   * xtb version 6.5.1 (579679a) compiled by 'ehlert@majestix' on 2022-07-11

   xtb is free software: you can redistribute it and/or modify it under
   the terms of the GNU Lesser General Public License as published by
   the Free Software Foundation, either version 3 of the License, or
   (at your option) any later version.
   
   xtb is distributed in the hope that it will be useful,
   but WITHOUT ANY WARRANTY; without even the implied warranty of
   MERCHANTABILITY or FITNESS FOR A PARTICULAR PURPOSE.  See the
   GNU Lesser General Public License for more details.
   
   Cite this work as:
   * C. Bannwarth, E. Caldeweyher, S. Ehlert, A. Hansen, P. Pracht,
     J. Seibert, S. Spicher, S. Grimme, WIREs Comput. Mol. Sci., 2020, 11,
     e01493. DOI: 10.1002/wcms.1493
   
   for GFN2-xTB:
   * C. Bannwarth, S. Ehlert and S. Grimme., J. Chem. Theory Comput., 2019,
     15, 1652-1671. DOI: 10.1021/acs.jctc.8b01176
   for GFN1-xTB:
   * S. Grimme, C. Bannwarth, P. Shushkov, J. Chem. Theory Comput., 2017,
     13, 1989-2009. DOI: 10.1021/acs.jctc.7b00118
   for GFN0-xTB:
   * P. Pracht, E. Caldeweyher, S. Ehlert, S. Grimme, ChemRxiv, 2019, preprint.
     DOI: 10.26434/chemrxiv.8326202.v1
   for GFN-FF:
   * S. Spicher and S. Grimme, Angew. Chem. Int. Ed., 2020, 59, 15665-15673.
     DOI: 10.1002/anie.202004239
   
   for ALPB and GBSA implicit solvation:
   * S. Ehlert, M. Stahn, S. Spicher, S. Grimme, J. Chem. Theory Comput.,
     2021, 17, 4250-4261. DOI: 10.1021/acs.jctc.1c00471
   
   for DFT-D4:
   * E. Caldeweyher, C. Bannwarth and S. Grimme, J. Chem. Phys., 2017,
     147, 034112. DOI: 10.1063/1.4993215
   * E. Caldeweyher, S. Ehlert, A. Hansen, H. Neugebauer, S. Spicher,
     C. Bannwarth and S. Grimme, J. Chem. Phys., 2019, 150, 154122.
     DOI: 10.1063/1.5090222
   * E. Caldeweyher, J.-M. Mewes, S. Ehlert and S. Grimme, Phys. Chem. Chem. Phys.
     2020, 22, 8499-8512. DOI: 10.1039/D0CP00502A
   
   for sTDA-xTB:
   * S. Grimme and C. Bannwarth, J. Chem. Phys., 2016, 145, 054103.
     DOI: 10.1063/1.4959605
   
   in the mass-spec context:
   * V. Asgeirsson, C. Bauer and S. Grimme, Chem. Sci., 2017, 8, 4879.
     DOI: 10.1039/c7sc00601b
   * J. Koopman and S. Grimme, ACS Omega 2019, 4, 12, 15120-15133.
     DOI: 10.1021/acsomega.9b02011
   
   for metadynamics refer to:
   * S. Grimme, J. Chem. Theory Comput., 2019, 155, 2847-2862
     DOI: 10.1021/acs.jctc.9b00143
   
   for SPH calculations refer to:
   * S. Spicher and S. Grimme, J. Chem. Theory Comput., 2021, 17, 1701-1714
     DOI: 10.1021/acs.jctc.0c01306
   
   with help from (in alphabetical order)
   P. Atkinson, C. Bannwarth, F. Bohle, G. Brandenburg, E. Caldeweyher
   M. Checinski, S. Dohm, S. Ehlert, S. Ehrlich, I. Gerasimov, C. Hölzer
   A. Katbashev, J. Koopman, C. Lavigne, S. Lehtola, F. März, M. Müller,
   F. Musil, H. Neugebauer, J. Pisarek, C. Plett, P. Pracht, F. Pultar,
   J. Seibert, P. Shushkov, S. Spicher, M. Stahn, M. Steiner, T. Strunk,
   J. Stückrath, T. Rose, and J. Unsleber
   
 * started run on 2022/11/24 at 12:04:44.003     

           -------------------------------------------------
          |                Calculation Setup                |
           -------------------------------------------------

          program call               : xtb solvent_cluster.coord --gfn2 --input xcontrol --opt 1
          hostname                   : cn0430
          coordinate file            : solvent_cluster.coord
          omp threads                :                     2

   ID    Z sym.   atoms
    1    8 o      1, 4, 7, 10, 13, 16, 19, 22, 25, 28, 31, 34, 37, 40, 43,
                  46, 49, 52, 55, 58, 61, 64, 67, 70, 73, 76, 79, 82, 85, 88,
                  91, 94, 97, 100, 103, 106, 109, 112, 115, 118, 121, 124,
                  127, 130, 133, 136, 139, 142, 145, 148, 151, 154, 157, 160,
                  163, 166, 169, 172, 175, 178, 181, 184, 187, 190, 193, 196,
                  199, 202, 205, 208, 211, 214, 217, 220, 223, 226, 229, 232,
                  235, 238, 241, 244, 247, 250, 253, 256, 259, 262, 265, 268,
                  271, 274, 277, 280, 283, 286, 289, 292, 295, 298, 301, 304,
                  307, 310, 313, 316, 319, 322, 325, 328, 331, 334, 337, 340,
                  343, 346, 349, 352, 355, 358, 361, 364, 367, 370, 373, 376,
                  379, 382, 385, 388, 391, 394, 397, 400, 403, 406, 409, 412,
                  415, 418, 421, 424, 427, 430, 433, 436, 439, 442, 445, 448,
                  451, 454, 457, 460, 463, 466, 469, 472, 475, 478, 481, 484,
                  487, 490, 493, 496, 499, 502, 505, 508, 511, 514, 517, 520,
                  523, 526, 529, 532, 535, 538, 541, 544, 547, 550, 553, 556,
                  559, 562, 565, 568, 571, 574, 577, 580, 583, 586, 589, 592,
                  595, 598, 601, 604, 607, 610, 613, 616, 619, 622, 625, 628,
                  631, 634, 637, 640, 643, 646, 649, 652, 655, 658, 661, 664,
                  667, 670, 673, 676, 679, 682, 685, 688, 691, 694, 697, 700,
                  703, 706, 709, 712, 715, 718, 721, 724, 727, 730, 733, 736,
                  739, 742, 745, 748, 751, 754
    2    1 h      2, 3, 5, 6, 8, 9, 11, 12, 14, 15, 17, 18, 20, 21, 23, 24,
                  26, 27, 29, 30, 32, 33, 35, 36, 38, 39, 41, 42, 44, 45, 47,
                  48, 50, 51, 53, 54, 56, 57, 59, 60, 62, 63, 65, 66, 68, 69,
                  71, 72, 74, 75, 77, 78, 80, 81, 83, 84, 86, 87, 89, 90, 92,
                  93, 95, 96, 98, 99, 101, 102, 104, 105, 107, 108, 110, 111,
                  113, 114, 116, 117, 119, 120, 122, 123, 125, 126, 128, 129,
                  131, 132, 134, 135, 137, 138, 140, 141, 143, 144, 146, 147,
                  149, 150, 152, 153, 155, 156, 158, 159, 161, 162, 164, 165,
                  167, 168, 170, 171, 173, 174, 176, 177, 179, 180, 182, 183,
                  185, 186, 188, 189, 191, 192, 194, 195, 197, 198, 200, 201,
                  203, 204, 206, 207, 209, 210, 212, 213, 215, 216, 218, 219,
                  221, 222, 224, 225, 227, 228, 230, 231, 233, 234, 236, 237,
                  239, 240, 242, 243, 245, 246, 248, 249, 251, 252, 254, 255,
                  257, 258, 260, 261, 263, 264, 266, 267, 269, 270, 272, 273,
                  275, 276, 278, 279, 281, 282, 284, 285, 287, 288, 290, 291,
                  293, 294, 296, 297, 299, 300, 302, 303, 305, 306, 308, 309,
                  311, 312, 314, 315, 317, 318, 320, 321, 323, 324, 326, 327,
                  329, 330, 332, 333, 335, 336, 338, 339, 341, 342, 344, 345,
                  347, 348, 350, 351, 353, 354, 356, 357, 359, 360, 362, 363,
                  365, 366, 368, 369, 371, 372, 374, 375, 377, 378, 380, 381,
                  383, 384, 386, 387, 389, 390, 392, 393, 395, 396, 398, 399,
                  401, 402, 404, 405, 407, 408, 410, 411, 413, 414, 416, 417,
                  419, 420, 422, 423, 425, 426, 428, 429, 431, 432, 434, 435,
                  437, 438, 440, 441, 443, 444, 446, 447, 449, 450, 452, 453,
                  455, 456, 458, 459, 461, 462, 464, 465, 467, 468, 470, 471,
                  473, 474, 476, 477, 479, 480, 482, 483, 485, 486, 488, 489,
                  491, 492, 494, 495, 497, 498, 500, 501, 503, 504, 506, 507,
                  509, 510, 512, 513, 515, 516, 518, 519, 521, 522, 524, 525,
                  527, 528, 530, 531, 533, 534, 536, 537, 539, 540, 542, 543,
                  545, 546, 548, 549, 551, 552, 554, 555, 557, 558, 560, 561,
                  563, 564, 566, 567, 569, 570, 572, 573, 575, 576, 578, 579,
                  581, 582, 584, 585, 587, 588, 590, 591, 593, 594, 596, 597,
                  599, 600, 602, 603, 605, 606, 608, 609, 611, 612, 614, 615,
                  617, 618, 620, 621, 623, 624, 626, 627, 629, 630, 632, 633,
                  635, 636, 638, 639, 641, 642, 644, 645, 647, 648, 650, 651,
                  653, 654, 656, 657, 659, 660, 662, 663, 665, 666, 668, 669,
                  671, 672, 674, 675, 677, 678, 680, 681, 683, 684, 686, 687,
                  689, 690, 692, 693, 695, 696, 698, 699, 701, 702, 704, 705,
                  707, 708, 710, 711, 713, 714, 716, 717, 719, 720, 722, 723,
                  725, 726, 728, 729, 731, 732, 734, 735, 737, 738, 740, 741,
                  743, 744, 746, 747, 749, 750, 752, 753, 755, 756

molecular fragmentation (1/2 indicates fragments):
111222222222222222222222222222222222222222222222222222222222222222222222
222222222222222222222222222222222222222222222222222222222222222222222222
222222222222222222222222222222222222222222222222222222222222222222222222
222222222222222222222222222222222222222222222222222222222222222222222222
222222222222222222222222222222222222222222222222222222222222222222222222
222222222222222222222222222222222222222222222222222222222222222222222222
222222222222222222222222222222222222222222222222222222222222222222222222
222222222222222222222222222222222222222222222222222222222222222222222222
222222222222222222222222222222222222222222222222222222222222222222222222
222222222222222222222222222222222222222222222222222222222222222222222222
222222222222222222222222222222222222
# atoms in fragment 1/2:     3   753
 fragment masses (1/2) :       18.02     4521.84
CMA distance (Bohr)    :  19.580
constraining FC (au)   :  0.0500

           -------------------------------------------------
          |                 G F N 2 - x T B                 |
           -------------------------------------------------

        Reference                      10.1021/acs.jctc.8b01176
      * Hamiltonian:
        H0-scaling (s, p, d)           1.850000    2.230000    2.230000
        zeta-weighting                 0.500000
      * Dispersion:
        s8                             2.700000
        a1                             0.520000
        a2                             5.000000
        s9                             5.000000
      * Repulsion:
        kExp                           1.500000    1.000000
        rExp                           1.000000
      * Coulomb:
        alpha                          2.000000
        third order                    shell-resolved
        anisotropic                    true
        a3                             3.000000
        a5                             4.000000
        cn-shift                       1.200000
        cn-exp                         4.000000
        max-rad                        5.000000


          ...................................................
          :                      SETUP                      :
          :.................................................:
          :  # basis functions                1512          :
          :  # atomic orbitals                1512          :
          :  # shells                         1008          :
          :  # electrons                      2016          :
          :  max. iterations                   250          :
          :  Hamiltonian                  GFN2-xTB          :
          :  restarted?                      false          :
          :  GBSA solvation                  false          :
          :  PC potential                    false          :
          :  electronic temp.          300.0000000     K    :
          :  accuracy                    1.0000000          :
          :  -> integral cutoff          0.2500000E+02      :
          :  -> integral neglect         0.1000000E-07      :
          :  -> SCF convergence          0.1000000E-05 Eh   :
          :  -> wf. convergence          0.1000000E-03 e    :
          :  Broyden damping             0.4000000          :
          ...................................................

 iter      E             dE          RMSdq      gap      omega  full diag
   1  -1290.8854409 -0.129089E+04  0.406E+00    8.53       0.0  T
   2  -1290.9669551 -0.815141E-01  0.241E+00    7.62       1.0  T
   3  -1290.9988146 -0.318596E-01  0.214E-01    5.91       1.0  T
   4  -1291.0044438 -0.562912E-02  0.461E-02    6.40       1.0  T
   5  -1291.0045370 -0.932735E-04  0.308E-02    6.32       1.0  T
   6  -1291.0045775 -0.404698E-04  0.434E-03    6.36       1.0  T
   7  -1291.0045801 -0.254025E-05  0.753E-04    6.36       4.8  T
   8  -1291.0045801 -0.290834E-07  0.390E-04    6.36       9.3  T
   9  -1291.0045801 -0.146974E-07  0.592E-05    6.36      61.4  T

   *** convergence criteria satisfied after 9 iterations ***

         #    Occupation            Energy/Eh            Energy/eV
      -------------------------------------------------------------
         1        2.0000           -0.6957492             -18.9323
       ...           ...                  ...                  ...
      1002        2.0000           -0.3449213              -9.3858
      1003        2.0000           -0.3385264              -9.2118
      1004        2.0000           -0.3349242              -9.1138
      1005        2.0000           -0.3302171              -8.9857
      1006        2.0000           -0.3266722              -8.8892
      1007        2.0000           -0.3244795              -8.8295
      1008        2.0000           -0.3174158              -8.6373 (HOMO)
      1009                         -0.0837173              -2.2781 (LUMO)
      1010                         -0.0699391              -1.9031
      1011                         -0.0622734              -1.6945
      1012                         -0.0573156              -1.5596
      1013                         -0.0518262              -1.4103
       ...                                ...                  ...
      1512                          0.4993401              13.5877
      -------------------------------------------------------------
                  HL-Gap            0.2336985 Eh            6.3593 eV
             Fermi-level           -0.2005665 Eh           -5.4577 eV

 SCC (total)                   0 d,  0 h,  0 min, 20.973 sec
 SCC setup                      ...        0 min,  0.042 sec (  0.200%)
 Dispersion                     ...        0 min,  0.118 sec (  0.561%)
 classical contributions        ...        0 min,  0.023 sec (  0.110%)
 integral evaluation            ...        0 min,  0.630 sec (  3.005%)
 iterations                     ...        0 min,  7.748 sec ( 36.943%)
 molecular gradient             ...        0 min, 12.339 sec ( 58.831%)
 printout                       ...        0 min,  0.073 sec (  0.349%)

         :::::::::::::::::::::::::::::::::::::::::::::::::::::
         ::                     SUMMARY                     ::
         :::::::::::::::::::::::::::::::::::::::::::::::::::::
         :: total energy           -1283.237092324540 Eh    ::
         :: gradient norm              0.099601548007 Eh/a0 ::
         :: HOMO-LUMO gap              6.359259180573 eV    ::
         ::.................................................::
         :: SCC energy             -1291.004580094223 Eh    ::
         :: -> isotropic ES            7.173121873708 Eh    ::
         :: -> anisotropic ES         -1.592924113875 Eh    ::
         :: -> anisotropic XC         -0.130398821194 Eh    ::
         :: -> dispersion             -0.785260428428 Eh    ::
         :: repulsion energy           7.616869705033 Eh    ::
         :: add. restraining           0.000000000000 Eh    ::
         :: total charge               0.000000000000 e     ::
         :::::::::::::::::::::::::::::::::::::::::::::::::::::

      ----------------------------------------------------------- 
     |                       L-ANC optimizer                     |
      ----------------------------------------------------------- 
          low memory version by Sebastian Ehlert

          ...................................................
          :                      SETUP                      :
          :.................................................:
          :   energy convergence        0.1000000E-05 Eh    :
          :   grad. convergence         0.8000000E-03 Eh/a0 :
          :   optimization log               true           :
          :   writing optlog all                1     steps :
          :   Hessian reset                    20     steps :
          :   maximium step len.        1.0000000     a0    :
          :   LBFGS images                     20           :
          ...................................................
 * calculating model hessian...
Using Lindh-Hessian (1995)
 Shifting diagonal of input Hessian by   1.000014160156070E-002
 Lowest  eigenvalues of input Hessian
    0.010000    0.010000    0.010000   -0.000000   -0.000000   -0.000000
   -0.000000   -0.000000   -0.000000   -0.000000   -0.000000   -0.000000
   -0.000000   -0.000000   -0.000000   -0.000000   -0.000000   -0.000000
 Highest eigenvalues
    0.309940    0.313137    1.216854    1.226820    1.427092    1.441987
 

........................................................................
.............................. CYCLE    1 ..............................
........................................................................
   1  -1291.0047390 -0.129100E+04  0.131E-02    6.40       0.0  T
   2  -1291.0047404 -0.137852E-05  0.805E-03    6.40       1.0  T
   3  -1291.0047411 -0.735629E-06  0.637E-04    6.40       5.7  T
   4  -1291.0047412 -0.269977E-07  0.206E-04    6.41      17.6  T
     SCC iter.                  ...        0 min,  3.029 sec
     gradient                   ...        0 min, 12.443 sec
 * total energy  : -1283.2380892 Eh     change       -0.9968578E-03 Eh
   gradient norm :     0.0059151 Eh/a0  converged?    E=F G=F D=F
   step length   :     0.3049738 a0

........................................................................
.............................. CYCLE    2 ..............................
........................................................................
   1  -1291.0002687 -0.129100E+04  0.299E-02    6.50       0.0  T
   2  -1291.0002814 -0.127172E-04  0.180E-02    6.49       1.0  T
   3  -1291.0002853 -0.387245E-05  0.201E-03    6.49       1.8  T
   4  -1291.0002858 -0.459760E-06  0.633E-04    6.49       5.7  T
   5  -1291.0002858 -0.149910E-07  0.836E-05    6.49      43.5  T
     SCC iter.                  ...        0 min,  3.309 sec
     gradient                   ...        0 min, 12.462 sec
 * total energy  : -1283.2399251 Eh     change       -0.1835901E-02 Eh
   gradient norm :     0.0378355 Eh/a0  converged?    E=F G=F D=F
   step length   :     3.3358444 a0

........................................................................
.............................. CYCLE    3 ..............................
........................................................................
   1  -1291.0064276 -0.129101E+04  0.175E-02    6.56       0.0  T
   2  -1291.0064630 -0.354331E-04  0.941E-03    6.56       1.0  T
   3  -1291.0064685 -0.548977E-05  0.301E-03    6.57       1.2  T
   4  -1291.0064687 -0.261242E-06  0.380E-04    6.57       9.6  T
   5  -1291.0064687 -0.776936E-08  0.763E-05    6.57      47.6  T
     SCC iter.                  ...        0 min,  3.437 sec
     gradient                   ...        0 min, 12.514 sec
 * total energy  : -1283.2410344 Eh     change       -0.1109355E-02 Eh
   gradient norm :     0.0165402 Eh/a0  converged?    E=F G=F D=F
   step length   :     0.9690895 a0

........................................................................
.............................. CYCLE    4 ..............................
........................................................................
   1  -1291.0111423 -0.129101E+04  0.275E-02    6.56       0.0  T
   2  -1291.0111729 -0.305296E-04  0.164E-02    6.55       1.0  T
   3  -1291.0111781 -0.526178E-05  0.312E-03    6.55       1.2  T
   4  -1291.0111790 -0.835173E-06  0.550E-04    6.55       6.6  T
   5  -1291.0111790 -0.803834E-08  0.976E-05    6.55      37.3  T
     SCC iter.                  ...        0 min,  3.333 sec
     gradient                   ...        0 min, 12.399 sec
 * total energy  : -1283.2412334 Eh     change       -0.1989270E-03 Eh
   gradient norm :     0.0174191 Eh/a0  converged?    E=F G=F D=F
   step length   :     0.7262471 a0

........................................................................
.............................. CYCLE    5 ..............................
........................................................................
   1  -1291.0093223 -0.129101E+04  0.954E-03    6.54       0.0  T
   2  -1291.0093248 -0.251912E-05  0.568E-03    6.54       1.0  T
   3  -1291.0093252 -0.478401E-06  0.873E-04    6.54       4.2  T
   4  -1291.0093253 -0.829095E-07  0.198E-04    6.54      18.3  T
     SCC iter.                  ...        0 min,  2.603 sec
     gradient                   ...        0 min, 12.472 sec
 * total energy  : -1283.2417734 Eh     change       -0.5400801E-03 Eh
   gradient norm :     0.0051256 Eh/a0  converged?    E=F G=F D=F
   step length   :     0.2528846 a0

........................................................................
.............................. CYCLE    6 ..............................
........................................................................
   1  -1291.0087595 -0.129101E+04  0.993E-03    6.54       0.0  T
   2  -1291.0087624 -0.285232E-05  0.603E-03    6.54       1.0  T
   3  -1291.0087630 -0.618041E-06  0.927E-04    6.55       3.9  T
   4  -1291.0087631 -0.915788E-07  0.178E-04    6.55      20.4  T
     SCC iter.                  ...        0 min,  2.541 sec
     gradient                   ...        0 min, 12.543 sec
 * total energy  : -1283.2418417 Eh     change       -0.6825615E-04 Eh
   gradient norm :     0.0070170 Eh/a0  converged?    E=F G=F D=F
   step length   :     0.2287745 a0

........................................................................
.............................. CYCLE    7 ..............................
........................................................................
   1  -1291.0091722 -0.129101E+04  0.490E-03    6.55       0.0  T
   2  -1291.0091726 -0.421357E-06  0.304E-03    6.54       1.2  T
   3  -1291.0091727 -0.147589E-06  0.332E-04    6.54      10.9  T
   4  -1291.0091727 -0.124871E-07  0.830E-05    6.54      43.8  T
     SCC iter.                  ...        0 min,  2.510 sec
     gradient                   ...        0 min, 12.562 sec
 * total energy  : -1283.2419052 Eh     change       -0.6351415E-04 Eh
   gradient norm :     0.0015906 Eh/a0  converged?    E=F G=F D=F
   step length   :     0.0667493 a0

........................................................................
.............................. CYCLE    8 ..............................
........................................................................
   1  -1291.0094159 -0.129101E+04  0.179E-03    6.54       0.0  T
   2  -1291.0094160 -0.672778E-07  0.108E-03    6.54       3.4  T
   3  -1291.0094160 -0.156765E-07  0.149E-04    6.54      24.4  T
   4  -1291.0094160 -0.229420E-08  0.289E-05    6.54     125.9  T
     SCC iter.                  ...        0 min,  2.462 sec
     gradient                   ...        0 min, 12.603 sec
 * total energy  : -1283.2419392 Eh     change       -0.3397134E-04 Eh
   gradient norm :     0.0004870 Eh/a0  converged?    E=F G=T D=F
   step length   :     0.0882543 a0

........................................................................
.............................. CYCLE    9 ..............................
........................................................................
   1  -1291.0094013 -0.129101E+04  0.495E-03    6.55       0.0  T
   2  -1291.0094016 -0.357885E-06  0.299E-03    6.55       1.2  T
   3  -1291.0094017 -0.102306E-06  0.331E-04    6.55      11.0  T
   4  -1291.0094017 -0.118660E-07  0.806E-05    6.55      45.1  T
     SCC iter.                  ...        0 min,  2.484 sec
     gradient                   ...        0 min, 12.618 sec
 * total energy  : -1283.2419960 Eh     change       -0.5680236E-04 Eh
   gradient norm :     0.0012280 Eh/a0  converged?    E=F G=F D=F
   step length   :     0.2942643 a0

........................................................................
.............................. CYCLE   10 ..............................
........................................................................
   1  -1291.0098533 -0.129101E+04  0.341E-03    6.56       0.0  T
   2  -1291.0098535 -0.235834E-06  0.211E-03    6.56       1.7  T
   3  -1291.0098536 -0.769592E-07  0.260E-04    6.56      14.0  T
   4  -1291.0098536 -0.715590E-08  0.599E-05    6.56      60.7  T
     SCC iter.                  ...        0 min,  2.464 sec
     gradient                   ...        0 min, 12.604 sec
 * total energy  : -1283.2420207 Eh     change       -0.2471204E-04 Eh
   gradient norm :     0.0025508 Eh/a0  converged?    E=F G=F D=F
   step length   :     0.1412064 a0

........................................................................
.............................. CYCLE   11 ..............................
........................................................................
   1  -1291.0094780 -0.129101E+04  0.370E-03    6.57       0.0  T
   2  -1291.0094783 -0.249920E-06  0.228E-03    6.57       1.6  T
   3  -1291.0094784 -0.880787E-07  0.266E-04    6.57      13.7  T
   4  -1291.0094784 -0.720252E-08  0.651E-05    6.57      55.8  T
     SCC iter.                  ...        0 min,  2.445 sec
     gradient                   ...        0 min, 12.603 sec
 * total energy  : -1283.2420575 Eh     change       -0.3676360E-04 Eh
   gradient norm :     0.0011648 Eh/a0  converged?    E=F G=F D=F
   step length   :     0.2016102 a0

........................................................................
.............................. CYCLE   12 ..............................
........................................................................
   1  -1291.0078584 -0.129101E+04  0.126E-02    6.58       0.0  T
   2  -1291.0078607 -0.223796E-05  0.769E-03    6.57       1.0  T
   3  -1291.0078614 -0.711852E-06  0.798E-04    6.57       4.6  T
   4  -1291.0078615 -0.680097E-07  0.188E-04    6.57      19.3  T
     SCC iter.                  ...        0 min,  2.438 sec
     gradient                   ...        0 min, 12.617 sec
 * total energy  : -1283.2420727 Eh     change       -0.1523774E-04 Eh
   gradient norm :     0.0090667 Eh/a0  converged?    E=F G=F D=F
   step length   :     0.5736972 a0

........................................................................
.............................. CYCLE   13 ..............................
........................................................................
   1  -1291.0089183 -0.129101E+04  0.418E-03    6.56       0.0  T
   2  -1291.0089186 -0.288986E-06  0.258E-03    6.57       1.4  T
   3  -1291.0089187 -0.101254E-06  0.289E-04    6.57      12.6  T
   4  -1291.0089187 -0.827549E-08  0.678E-05    6.57      53.6  T
     SCC iter.                  ...        0 min,  2.419 sec
     gradient                   ...        0 min, 12.608 sec
 * total energy  : -1283.2421072 Eh     change       -0.3449791E-04 Eh
   gradient norm :     0.0039750 Eh/a0  converged?    E=F G=F D=F
   step length   :     0.1415507 a0

........................................................................
.............................. CYCLE   14 ..............................
........................................................................
   1  -1291.0091307 -0.129101E+04  0.913E-04    6.56       0.0  T
   2  -1291.0091307 -0.967339E-08  0.543E-04    6.56       6.7  T
   3  -1291.0091307 -0.240357E-08  0.547E-05    6.56      66.5  T
     SCC iter.                  ...        0 min,  1.803 sec
     gradient                   ...        0 min, 12.609 sec
 * total energy  : -1283.2421237 Eh     change       -0.1645181E-04 Eh
   gradient norm :     0.0027433 Eh/a0  converged?    E=F G=F D=F
   step length   :     0.0465418 a0

........................................................................
.............................. CYCLE   15 ..............................
........................................................................
   1  -1291.0095641 -0.129101E+04  0.607E-03    6.54       0.0  T
   2  -1291.0095642 -0.109380E-06  0.368E-03    6.54       1.0  T
   3  -1291.0095642 -0.605510E-07  0.185E-04    6.54      19.7  T
   4  -1291.0095642 -0.187515E-08  0.555E-05    6.54      65.5  T
     SCC iter.                  ...        0 min,  2.383 sec
     gradient                   ...        0 min, 12.589 sec
 * total energy  : -1283.2421773 Eh     change       -0.5360579E-04 Eh
   gradient norm :     0.0012663 Eh/a0  converged?    E=F G=F D=F
   step length   :     0.0974741 a0

........................................................................
.............................. CYCLE   16 ..............................
........................................................................
   1  -1291.0057430 -0.129101E+04  0.226E-02    6.50       0.0  T
   2  -1291.0057454 -0.240575E-05  0.138E-02    6.50       1.0  T
   3  -1291.0057464 -0.105922E-05  0.830E-04    6.49       4.4  T
   4  -1291.0057465 -0.505793E-07  0.260E-04    6.49      14.0  T
   5  -1291.0057465 -0.175714E-08  0.407E-05    6.49      89.5  T
     SCC iter.                  ...        0 min,  2.925 sec
     gradient                   ...        0 min, 12.573 sec
 * total energy  : -1283.2420372 Eh     change        0.1400858E-03 Eh
   gradient norm :     0.0200119 Eh/a0  converged?    E=F G=F D=F
   step length   :     0.4835623 a0

........................................................................
.............................. CYCLE   17 ..............................
........................................................................
   1  -1291.0089151 -0.129101E+04  0.111E-02    6.51       0.0  T
   2  -1291.0089156 -0.488434E-06  0.669E-03    6.51       1.0  T
   3  -1291.0089158 -0.190483E-06  0.384E-04    6.51       9.5  T
   4  -1291.0089158 -0.119278E-07  0.121E-04    6.51      30.1  T
     SCC iter.                  ...        0 min,  2.390 sec
     gradient                   ...        0 min, 12.545 sec
 * total energy  : -1283.2422494 Eh     change       -0.2122552E-03 Eh
   gradient norm :     0.0043561 Eh/a0  converged?    E=F G=F D=F
   step length   :     0.2054706 a0

........................................................................
.............................. CYCLE   18 ..............................
........................................................................
   1  -1291.0095560 -0.129101E+04  0.255E-03    6.52       0.0  T
   2  -1291.0095561 -0.856960E-07  0.155E-03    6.52       2.3  T
   3  -1291.0095561 -0.274908E-07  0.167E-04    6.51      21.8  T
   4  -1291.0095561 -0.262503E-08  0.407E-05    6.51      89.4  T
     SCC iter.                  ...        0 min,  2.389 sec
     gradient                   ...        0 min, 12.514 sec
 * total energy  : -1283.2422748 Eh     change       -0.2541589E-04 Eh
   gradient norm :     0.0031503 Eh/a0  converged?    E=F G=F D=F
   step length   :     0.0821178 a0

........................................................................
.............................. CYCLE   19 ..............................
........................................................................
   1  -1291.0092200 -0.129101E+04  0.124E-02    6.52       0.0  T
   2  -1291.0092214 -0.140731E-05  0.760E-03    6.51       1.0  T
   3  -1291.0092220 -0.612425E-06  0.606E-04    6.51       6.0  T
   4  -1291.0092220 -0.305085E-07  0.170E-04    6.51      21.4  T
     SCC iter.                  ...        0 min,  2.379 sec
     gradient                   ...        0 min, 12.488 sec
 * total energy  : -1283.2423471 Eh     change       -0.7220557E-04 Eh
   gradient norm :     0.0042921 Eh/a0  converged?    E=F G=F D=F
   step length   :     0.3998246 a0

........................................................................
.............................. CYCLE   20 ..............................
........................................................................
   1  -1291.0072014 -0.129101E+04  0.153E-02    6.50       0.0  T
   2  -1291.0072029 -0.144333E-05  0.928E-03    6.49       1.0  T
   3  -1291.0072034 -0.559794E-06  0.644E-04    6.49       5.6  T
   4  -1291.0072035 -0.345940E-07  0.194E-04    6.49      18.8  T
     SCC iter.                  ...        0 min,  2.373 sec
     gradient                   ...        0 min, 12.448 sec
 * total energy  : -1283.2422463 Eh     change        0.1007020E-03 Eh
   gradient norm :     0.0183586 Eh/a0  converged?    E=F G=F D=F
   step length   :     0.4402878 a0
 * RMSD in coord.:     0.1187033 a0     energy gain  -0.5154023E-02 Eh
 * calculating model hessian...
Using Lindh-Hessian (1995)
 Shifting diagonal of input Hessian by   1.000001687338269E-002
 Lowest  eigenvalues of input Hessian
    0.010000   -0.000000   -0.000000   -0.000000   -0.000000   -0.000000
   -0.000000   -0.000000   -0.000000   -0.000000   -0.000000   -0.000000
   -0.000000   -0.000000   -0.000000   -0.000000   -0.000000   -0.000000
 Highest eigenvalues
    0.298472    0.315041    1.193008    1.219728    1.408054    1.446085
 

........................................................................
.............................. CYCLE   21 ..............................
........................................................................
   1  -1291.0089379 -0.129101E+04  0.926E-03    6.50       0.0  T
   2  -1291.0089390 -0.109687E-05  0.575E-03    6.50       1.0  T
   3  -1291.0089396 -0.577327E-06  0.523E-04    6.50       7.0  T
   4  -1291.0089396 -0.154171E-07  0.149E-04    6.50      24.4  T
     SCC iter.                  ...        0 min,  2.337 sec
     gradient                   ...        0 min, 12.521 sec
 * total energy  : -1283.2424746 Eh     change       -0.2282530E-03 Eh
   gradient norm :     0.0072871 Eh/a0  converged?    E=F G=F D=F
   step length   :     0.0873963 a0

........................................................................
.............................. CYCLE   22 ..............................
........................................................................
   1  -1291.0107147 -0.129101E+04  0.592E-03    6.49       0.0  T
   2  -1291.0107151 -0.457143E-06  0.359E-03    6.49       1.0  T
   3  -1291.0107153 -0.184512E-06  0.390E-04    6.48       9.3  T
   4  -1291.0107153 -0.114328E-07  0.114E-04    6.48      31.9  T
     SCC iter.                  ...        0 min,  2.356 sec
     gradient                   ...        0 min, 12.473 sec
 * total energy  : -1283.2425191 Eh     change       -0.4448234E-04 Eh
   gradient norm :     0.0043918 Eh/a0  converged?    E=F G=F D=F
   step length   :     0.0752109 a0

........................................................................
.............................. CYCLE   23 ..............................
........................................................................
   1  -1291.0102024 -0.129101E+04  0.443E-03    6.48       0.0  T
   2  -1291.0102025 -0.151519E-06  0.273E-03    6.48       1.3  T
   3  -1291.0102026 -0.865537E-07  0.190E-04    6.48      19.1  T
   4  -1291.0102026 -0.112823E-08  0.496E-05    6.48      73.3  T
     SCC iter.                  ...        0 min,  2.309 sec
     gradient                   ...        0 min, 12.431 sec
 * total energy  : -1283.2425701 Eh     change       -0.5105026E-04 Eh
   gradient norm :     0.0012825 Eh/a0  converged?    E=F G=F D=F
   step length   :     0.0596927 a0

........................................................................
.............................. CYCLE   24 ..............................
........................................................................
   1  -1290.9980117 -0.129100E+04  0.379E-02    6.47       0.0  T
   2  -1290.9980296 -0.179030E-04  0.229E-02    6.48       1.0  T
   3  -1290.9980369 -0.729164E-05  0.239E-03    6.49       1.5  T
   4  -1290.9980374 -0.481921E-06  0.780E-04    6.48       4.7  T
   5  -1290.9980374 -0.173616E-07  0.865E-05    6.48      42.0  T
     SCC iter.                  ...        0 min,  2.938 sec
     gradient                   ...        0 min, 12.481 sec
 * total energy  : -1283.2394898 Eh     change        0.3080383E-02 Eh
   gradient norm :     0.0643693 Eh/a0  converged?    E=F G=F D=F
   step length   :     0.5759739 a0

........................................................................
.............................. CYCLE   25 ..............................
........................................................................
   1  -1291.0079338 -0.129101E+04  0.259E-02    6.49       0.0  T
   2  -1291.0079443 -0.105257E-04  0.156E-02    6.49       1.0  T
   3  -1291.0079491 -0.478574E-05  0.193E-03    6.48       1.9  T
   4  -1291.0079494 -0.281545E-06  0.643E-04    6.48       5.7  T
   5  -1291.0079494 -0.160016E-07  0.702E-05    6.48      51.8  T
     SCC iter.                  ...        0 min,  2.938 sec
     gradient                   ...        0 min, 12.448 sec
 * total energy  : -1283.2425651 Eh     change       -0.3075353E-02 Eh
   gradient norm :     0.0144977 Eh/a0  converged?    E=F G=F D=F
   step length   :     0.3582083 a0

........................................................................
.............................. CYCLE   26 ..............................
........................................................................
   1  -1291.0090441 -0.129101E+04  0.203E-03    6.48       0.0  T
   2  -1291.0090442 -0.783070E-07  0.120E-03    6.48       3.0  T
   3  -1291.0090443 -0.290354E-07  0.165E-04    6.48      22.0  T
   4  -1291.0090443 -0.227033E-08  0.536E-05    6.48      67.8  T
     SCC iter.                  ...        0 min,  2.351 sec
     gradient                   ...        0 min, 12.419 sec
 * total energy  : -1283.2426588 Eh     change       -0.9373039E-04 Eh
   gradient norm :     0.0075612 Eh/a0  converged?    E=F G=F D=F
   step length   :     0.0174092 a0

........................................................................
.............................. CYCLE   27 ..............................
........................................................................
   1  -1291.0100783 -0.129101E+04  0.230E-03    6.48       0.0  T
   2  -1291.0100784 -0.702732E-07  0.136E-03    6.48       2.7  T
   3  -1291.0100784 -0.237565E-07  0.154E-04    6.48      23.6  T
   4  -1291.0100784 -0.208684E-08  0.479E-05    6.48      76.0  T
     SCC iter.                  ...        0 min,  2.355 sec
     gradient                   ...        0 min, 12.355 sec
 * total energy  : -1283.2427031 Eh     change       -0.4424897E-04 Eh
   gradient norm :     0.0009494 Eh/a0  converged?    E=F G=F D=F
   step length   :     0.0311949 a0

........................................................................
.............................. CYCLE   28 ..............................
........................................................................
   1  -1291.0102936 -0.129101E+04  0.237E-03    6.48       0.0  T
   2  -1291.0102936 -0.234538E-07  0.144E-03    6.48       2.5  T
   3  -1291.0102936 -0.128350E-07  0.817E-05    6.48      44.5  T
   4  -1291.0102936 -0.354703E-09  0.249E-05    6.48     146.0  T
     SCC iter.                  ...        0 min,  2.280 sec
     gradient                   ...        0 min, 12.328 sec
 * total energy  : -1283.2427244 Eh     change       -0.2131926E-04 Eh
   gradient norm :     0.0014534 Eh/a0  converged?    E=F G=F D=F
   step length   :     0.0438974 a0

........................................................................
.............................. CYCLE   29 ..............................
........................................................................
   1  -1291.0057922 -0.129101E+04  0.276E-02    6.49       0.0  T
   2  -1291.0057978 -0.563136E-05  0.168E-02    6.48       1.0  T
   3  -1291.0058007 -0.287327E-05  0.131E-03    6.48       2.8  T
   4  -1291.0058008 -0.116683E-06  0.437E-04    6.48       8.3  T
   5  -1291.0058008 -0.690557E-08  0.555E-05    6.48      65.5  T
     SCC iter.                  ...        0 min,  2.920 sec
     gradient                   ...        0 min, 12.134 sec
 * total energy  : -1283.2426122 Eh     change        0.1121856E-03 Eh
   gradient norm :     0.0217948 Eh/a0  converged?    E=F G=F D=F
   step length   :     0.4950016 a0

........................................................................
.............................. CYCLE   30 ..............................
........................................................................
   1  -1291.0097913 -0.129101E+04  0.146E-02    6.48       0.0  T
   2  -1291.0097931 -0.178916E-05  0.890E-03    6.48       1.0  T
   3  -1291.0097941 -0.995175E-06  0.791E-04    6.48       4.6  T
   4  -1291.0097941 -0.348500E-07  0.250E-04    6.48      14.5  T
     SCC iter.                  ...        0 min,  2.285 sec
     gradient                   ...        0 min, 12.097 sec
 * total energy  : -1283.2428468 Eh     change       -0.2345800E-03 Eh
   gradient norm :     0.0035817 Eh/a0  converged?    E=F G=F D=F
   step length   :     0.2480309 a0

........................................................................
.............................. CYCLE   31 ..............................
........................................................................
   1  -1291.0097831 -0.129101E+04  0.343E-03    6.48       0.0  T
   2  -1291.0097832 -0.318855E-07  0.209E-03    6.48       1.7  T
   3  -1291.0097832 -0.164612E-07  0.873E-05    6.48      41.7  T
   4  -1291.0097832 -0.350838E-09  0.257E-05    6.48     141.4  T
     SCC iter.                  ...        0 min,  2.296 sec
     gradient                   ...        0 min, 12.077 sec
 * total energy  : -1283.2428817 Eh     change       -0.3495010E-04 Eh
   gradient norm :     0.0033242 Eh/a0  converged?    E=F G=F D=F
   step length   :     0.0592223 a0

........................................................................
.............................. CYCLE   32 ..............................
........................................................................
   1  -1291.0052712 -0.129101E+04  0.266E-02    6.45       0.0  T
   2  -1291.0052760 -0.486306E-05  0.161E-02    6.45       1.0  T
   3  -1291.0052782 -0.218719E-05  0.119E-03    6.46       3.1  T
   4  -1291.0052783 -0.110653E-06  0.385E-04    6.45       9.5  T
   5  -1291.0052783 -0.401792E-08  0.435E-05    6.45      83.5  T
     SCC iter.                  ...        0 min,  2.953 sec
     gradient                   ...        0 min, 12.080 sec
 * total energy  : -1283.2424560 Eh     change        0.4257077E-03 Eh
   gradient norm :     0.0304769 Eh/a0  converged?    E=F G=F D=F
   step length   :     0.4336613 a0

........................................................................
.............................. CYCLE   33 ..............................
........................................................................
   1  -1291.0101383 -0.129101E+04  0.228E-02    6.47       0.0  T
   2  -1291.0101425 -0.419990E-05  0.138E-02    6.47       1.0  T
   3  -1291.0101446 -0.211731E-05  0.117E-03    6.47       3.1  T
   4  -1291.0101447 -0.881189E-07  0.383E-04    6.47       9.5  T
   5  -1291.0101447 -0.557998E-08  0.452E-05    6.47      80.4  T
     SCC iter.                  ...        0 min,  2.871 sec
     gradient                   ...        0 min, 12.082 sec
 * total energy  : -1283.2429316 Eh     change       -0.4755247E-03 Eh
   gradient norm :     0.0014594 Eh/a0  converged?    E=F G=F D=F
   step length   :     0.3644871 a0

........................................................................
.............................. CYCLE   34 ..............................
........................................................................
   1  -1291.0101681 -0.129101E+04  0.468E-03    6.47       0.0  T
   2  -1291.0101682 -0.140752E-06  0.287E-03    6.47       1.3  T
   3  -1291.0101683 -0.785317E-07  0.185E-04    6.47      19.6  T
   4  -1291.0101683 -0.151658E-08  0.546E-05    6.47      66.6  T
     SCC iter.                  ...        0 min,  2.307 sec
     gradient                   ...        0 min, 12.133 sec
 * total energy  : -1283.2429786 Eh     change       -0.4699313E-04 Eh
   gradient norm :     0.0023628 Eh/a0  converged?    E=F G=F D=F
   step length   :     0.0690095 a0

........................................................................
.............................. CYCLE   35 ..............................
........................................................................
   1  -1291.0008296 -0.129100E+04  0.359E-02    6.46       0.0  T
   2  -1291.0008388 -0.924435E-05  0.217E-02    6.46       1.0  T
   3  -1291.0008431 -0.427766E-05  0.169E-03    6.46       2.2  T
   4  -1291.0008433 -0.213021E-06  0.562E-04    6.46       6.5  T
   5  -1291.0008433 -0.100799E-07  0.666E-05    6.46      54.6  T
     SCC iter.                  ...        0 min,  2.948 sec
     gradient                   ...        0 min, 12.119 sec
 * total energy  : -1283.2416155 Eh     change        0.1363102E-02 Eh
   gradient norm :     0.0423736 Eh/a0  converged?    E=F G=F D=F
   step length   :     0.5402767 a0

........................................................................
.............................. CYCLE   36 ..............................
........................................................................
   1  -1291.0103385 -0.129101E+04  0.339E-02    6.47       0.0  T
   2  -1291.0103464 -0.792424E-05  0.205E-02    6.47       1.0  T
   3  -1291.0103507 -0.428081E-05  0.164E-03    6.47       2.2  T
   4  -1291.0103508 -0.149036E-06  0.525E-04    6.47       6.9  T
   5  -1291.0103508 -0.120961E-07  0.682E-05    6.47      53.3  T
     SCC iter.                  ...        0 min,  2.947 sec
     gradient                   ...        0 min, 12.081 sec
 * total energy  : -1283.2430074 Eh     change       -0.1391897E-02 Eh
   gradient norm :     0.0016151 Eh/a0  converged?    E=F G=F D=F
   step length   :     0.5021906 a0

........................................................................
.............................. CYCLE   37 ..............................
........................................................................
   1  -1291.0102739 -0.129101E+04  0.355E-03    6.47       0.0  T
   2  -1291.0102740 -0.666810E-07  0.217E-03    6.47       1.7  T
   3  -1291.0102740 -0.377945E-07  0.132E-04    6.47      27.5  T
   4  -1291.0102740 -0.770797E-09  0.390E-05    6.47      93.3  T
     SCC iter.                  ...        0 min,  2.316 sec
     gradient                   ...        0 min, 12.083 sec
 * total energy  : -1283.2430402 Eh     change       -0.3288098E-04 Eh
   gradient norm :     0.0013760 Eh/a0  converged?    E=F G=F D=F
   step length   :     0.0529156 a0

........................................................................
.............................. CYCLE   38 ..............................
........................................................................
   1  -1291.0014807 -0.129100E+04  0.375E-02    6.48       0.0  T
   2  -1291.0014928 -0.120948E-04  0.227E-02    6.48       1.0  T
   3  -1291.0014985 -0.568732E-05  0.195E-03    6.48       1.9  T
   4  -1291.0014988 -0.295412E-06  0.668E-04    6.48       5.4  T
   5  -1291.0014988 -0.162495E-07  0.808E-05    6.48      45.0  T
     SCC iter.                  ...        0 min,  2.867 sec
     gradient                   ...        0 min, 12.090 sec
 * total energy  : -1283.2416272 Eh     change        0.1413013E-02 Eh
   gradient norm :     0.0433403 Eh/a0  converged?    E=F G=F D=F
   step length   :     0.5763069 a0

........................................................................
.............................. CYCLE   39 ..............................
........................................................................
   1  -1291.0090808 -0.129101E+04  0.243E-02    6.47       0.0  T
   2  -1291.0090865 -0.571706E-05  0.147E-02    6.47       1.0  T
   3  -1291.0090896 -0.309815E-05  0.142E-03    6.47       2.6  T
   4  -1291.0090898 -0.123537E-06  0.470E-04    6.47       7.7  T
   5  -1291.0090898 -0.103576E-07  0.556E-05    6.47      65.4  T
     SCC iter.                  ...        0 min,  2.888 sec
     gradient                   ...        0 min, 12.066 sec
 * total energy  : -1283.2431044 Eh     change       -0.1477192E-02 Eh
   gradient norm :     0.0077979 Eh/a0  converged?    E=F G=F D=F
   step length   :     0.3529340 a0

........................................................................
.............................. CYCLE   40 ..............................
........................................................................
   1  -1291.0092222 -0.129101E+04  0.215E-03    6.47       0.0  T
   2  -1291.0092223 -0.899220E-07  0.131E-03    6.47       2.8  T
   3  -1291.0092223 -0.301841E-07  0.180E-04    6.47      20.2  T
   4  -1291.0092223 -0.275440E-08  0.428E-05    6.47      85.0  T
     SCC iter.                  ...        0 min,  2.318 sec
     gradient                   ...        0 min, 12.050 sec
 * total energy  : -1283.2431276 Eh     change       -0.2323341E-04 Eh
   gradient norm :     0.0052888 Eh/a0  converged?    E=F G=F D=F
   step length   :     0.0166052 a0

........................................................................
.............................. CYCLE   41 ..............................
........................................................................
   1  -1291.0110285 -0.129101E+04  0.354E-03    6.47       0.0  T
   2  -1291.0110288 -0.245816E-06  0.215E-03    6.47       1.7  T
   3  -1291.0110289 -0.782281E-07  0.302E-04    6.47      12.0  T
   4  -1291.0110289 -0.754790E-08  0.728E-05    6.47      50.0  T
     SCC iter.                  ...        0 min,  2.320 sec
     gradient                   ...        0 min, 12.063 sec
 * total energy  : -1283.2431467 Eh     change       -0.1902388E-04 Eh
   gradient norm :     0.0024313 Eh/a0  converged?    E=F G=F D=F
   step length   :     0.0287644 a0

........................................................................
.............................. CYCLE   42 ..............................
........................................................................
   1  -1291.0107590 -0.129101E+04  0.216E-03    6.47       0.0  T
   2  -1291.0107590 -0.461068E-07  0.132E-03    6.47       2.8  T
   3  -1291.0107590 -0.147165E-07  0.121E-04    6.47      30.2  T
   4  -1291.0107590 -0.150999E-08  0.284E-05    6.47     128.0  T
     SCC iter.                  ...        0 min,  2.303 sec
     gradient                   ...        0 min, 12.077 sec
 * total energy  : -1283.2431545 Eh     change       -0.7869927E-05 Eh
   gradient norm :     0.0029616 Eh/a0  converged?    E=F G=F D=F
   step length   :     0.0265064 a0
 * RMSD in coord.:     0.0426353 a0     energy gain  -0.9081899E-03 Eh
 * calculating model hessian...
Using Lindh-Hessian (1995)
 Shifting diagonal of input Hessian by   1.000017955369458E-002
 Lowest  eigenvalues of input Hessian
    0.010000    0.010000    0.010000   -0.000000   -0.000000   -0.000000
   -0.000000   -0.000000   -0.000000   -0.000000   -0.000000   -0.000000
   -0.000000   -0.000000   -0.000000   -0.000000   -0.000000   -0.000000
 Highest eigenvalues
    0.313493    0.314868    1.217358    1.226753    1.442393    1.442769
 

........................................................................
.............................. CYCLE   43 ..............................
........................................................................
   1  -1291.0105245 -0.129101E+04  0.206E-03    6.47       0.0  T
   2  -1291.0105245 -0.397656E-07  0.125E-03    6.47       2.9  T
   3  -1291.0105245 -0.228251E-07  0.120E-04    6.47      30.4  T
   4  -1291.0105245 -0.920636E-09  0.410E-05    6.47      88.7  T
     SCC iter.                  ...        0 min,  2.314 sec
     gradient                   ...        0 min, 12.144 sec
 * total energy  : -1283.2431703 Eh     change       -0.1578843E-04 Eh
   gradient norm :     0.0010668 Eh/a0  converged?    E=F G=F D=F
   step length   :     0.0321112 a0

........................................................................
.............................. CYCLE   44 ..............................
........................................................................
   1  -1291.0091253 -0.129101E+04  0.108E-02    6.46       0.0  T
   2  -1291.0091261 -0.830569E-06  0.657E-03    6.46       1.0  T
   3  -1291.0091265 -0.412942E-06  0.531E-04    6.46       6.8  T
   4  -1291.0091266 -0.223404E-07  0.189E-04    6.46      19.2  T
     SCC iter.                  ...        0 min,  2.332 sec
     gradient                   ...        0 min, 12.102 sec
 * total energy  : -1283.2431740 Eh     change       -0.3629132E-05 Eh
   gradient norm :     0.0073226 Eh/a0  converged?    E=F G=F D=F
   step length   :     0.1700632 a0

........................................................................
.............................. CYCLE   45 ..............................
........................................................................
   1  -1291.0099471 -0.129101E+04  0.301E-03    6.46       0.0  T
   2  -1291.0099472 -0.101965E-06  0.182E-03    6.46       2.0  T
   3  -1291.0099472 -0.550144E-07  0.188E-04    6.46      19.3  T
   4  -1291.0099472 -0.238833E-08  0.643E-05    6.46      56.5  T
     SCC iter.                  ...        0 min,  2.313 sec
     gradient                   ...        0 min, 12.137 sec
 * total energy  : -1283.2431986 Eh     change       -0.2468844E-04 Eh
   gradient norm :     0.0029875 Eh/a0  converged?    E=F G=F D=F
   step length   :     0.0443446 a0

........................................................................
.............................. CYCLE   46 ..............................
........................................................................
   1  -1291.0102611 -0.129101E+04  0.998E-04    6.46       0.0  T
   2  -1291.0102611 -0.575506E-08  0.605E-04    6.46       6.0  T
   3  -1291.0102611 -0.302907E-08  0.436E-05    6.46      83.3  T
     SCC iter.                  ...        0 min,  1.733 sec
     gradient                   ...        0 min, 12.207 sec
 * total energy  : -1283.2432059 Eh     change       -0.7240761E-05 Eh
   gradient norm :     0.0013852 Eh/a0  converged?    E=F G=F D=F
   step length   :     0.0152852 a0

........................................................................
.............................. CYCLE   47 ..............................
........................................................................
   1  -1291.0105243 -0.129101E+04  0.482E-03    6.45       0.0  T
   2  -1291.0105243 -0.454720E-07  0.293E-03    6.45       1.2  T
   3  -1291.0105243 -0.211262E-07  0.108E-04    6.45      33.5  T
   4  -1291.0105243 -0.691898E-09  0.322E-05    6.45     112.8  T
     SCC iter.                  ...        0 min,  2.293 sec
     gradient                   ...        0 min, 12.175 sec
 * total energy  : -1283.2432152 Eh     change       -0.9276815E-05 Eh
   gradient norm :     0.0011507 Eh/a0  converged?    E=F G=F D=F
   step length   :     0.0755332 a0

........................................................................
.............................. CYCLE   48 ..............................
........................................................................
   1  -1291.0104309 -0.129101E+04  0.326E-03    6.45       0.0  T
   2  -1291.0104310 -0.666971E-07  0.199E-03    6.45       1.8  T
   3  -1291.0104310 -0.385767E-07  0.140E-04    6.45      26.0  T
   4  -1291.0104310 -0.979753E-09  0.440E-05    6.45      82.6  T
     SCC iter.                  ...        0 min,  2.290 sec
     gradient                   ...        0 min, 12.200 sec
 * total energy  : -1283.2432169 Eh     change       -0.1689913E-05 Eh
   gradient norm :     0.0008674 Eh/a0  converged?    E=F G=F D=F
   step length   :     0.0491513 a0

........................................................................
.............................. CYCLE   49 ..............................
........................................................................
   1  -1291.0103593 -0.129101E+04  0.123E-03    6.45       0.0  T
   2  -1291.0103593 -0.127516E-07  0.766E-04    6.45       4.7  T
   3  -1291.0103593 -0.684554E-08  0.506E-05    6.45      71.9  T
     SCC iter.                  ...        0 min,  1.722 sec
     gradient                   ...        0 min, 12.195 sec
 * total energy  : -1283.2432183 Eh     change       -0.1432065E-05 Eh
   gradient norm :     0.0006165 Eh/a0  converged?    E=F G=T D=F
   step length   :     0.0123240 a0

........................................................................
.............................. CYCLE   50 ..............................
........................................................................
   1  -1291.0105184 -0.129101E+04  0.586E-04    6.45       0.0  T
   2  -1291.0105184 -0.129899E-08  0.356E-04    6.45      10.2  T
   3  -1291.0105184 -0.633918E-09  0.199E-05    6.45     182.4  T
     SCC iter.                  ...        0 min,  1.721 sec
     gradient                   ...        0 min, 12.268 sec
 * total energy  : -1283.2432185 Eh     change       -0.2532056E-06 Eh
   gradient norm :     0.0002975 Eh/a0  converged?    E=T G=T D=F
   step length   :     0.0085712 a0

   *** GEOMETRY OPTIMIZATION CONVERGED AFTER 50 CYCLES ***

------------------------------------------------------------------------
 total energy gain   :        -0.0061262 Eh       -3.8443 kcal/mol
 total RMSD          :         0.1438098 a0        0.0761 Å
 total power (kW/mol):        -0.3216874 (step)   -0.0198 (real)
------------------------------------------------------------------------

 L-ANCopt (total)              0 d,  0 h, 13 min, 32.495 sec
 setup                          ...        0 min,  0.030 sec (  0.004%)
 model hessian                  ...        0 min, 21.937 sec (  2.700%)
 ANC generation                 ...        0 min,  7.105 sec (  0.874%)
 coordinate transformation      ...        0 min,  0.003 sec (  0.000%)
 Rational function              ...        0 min,  0.000 sec (  0.000%)
 singlepoint calculation        ...       13 min,  3.072 sec ( 96.379%)
 optimization log               ...        0 min,  0.336 sec (  0.041%)
 hessian update                 ...        0 min,  0.001 sec (  0.000%)

================
 final structure:
================
$coord
       14.98976562579440      -12.15020491998990       -4.40938117786726      o
       14.56064943909303      -10.62866412230405       -3.47021658791534      h
       13.49110847148022      -12.62403209692056       -5.34521097070561      h
        0.84210418603408        6.41327075524885        7.49459308625655      o
        0.53120760272298        6.94161369008843        9.22364678595565      h
        1.03489115102883        7.91996354699911        6.45073670021429      h
       -2.35527168211931        1.60034596233397       -6.95733294151734      o
       -1.21180656666872        0.37063918751879       -6.25646233645809      h
       -3.05021680391200        2.59762103439587       -5.55104718728786      h
       -8.77808858264242        3.63303925985005        0.65844265605918      o
       -9.23772492793812        2.89459807135305       -0.97722368323060      h
      -10.32635253544336        4.14935400663320        1.48612381076181      h
       -6.36315386152513        7.84684976693818        0.02718191046283      o
       -7.21577593508095        8.82100420471556        1.34365581393355      h
       -7.15518330322783        6.15362686200789        0.11602307816489      h
       -8.63490136348589       -6.61527880468554       -1.90000475285000      o
       -9.81870438480358       -7.17156907951783       -3.18080642505291      h
       -8.02546115757102       -4.92514751295247       -2.36486708763683      h
       -3.31659193934479       -6.95947099975487       -2.49216437059250      o
       -2.10484421193772       -8.33240261552370       -2.52674436766182      h
       -4.09125723240619       -6.89112593330287       -0.81970863732787      h
        0.71404123053304      -10.22883665428106       -3.29723351736578      o
        0.53288992350099      -11.73965837043013       -2.26897139476605      h
        1.38497867708886      -10.80356171748652       -4.90107483473589      h
       -3.42769873973735       -4.63552326587185        6.78698706592203      o
       -3.74241954142216       -5.43971818819215        5.15481075755219      h
       -2.63403956417222       -5.90354953744659        7.86672721027420      h
       -3.73117871448412        6.69308835341856       -8.83901075114117      o
       -3.17773901074284        5.38494057983555      -10.01920562724100      h
       -2.44263056352834        6.95906466445703       -7.58398804022748      h
       -9.86028878773115        1.88462574147579       -3.88078985026653      o
       -8.96953455823103        2.89971742493208       -5.13776803617804      h
      -11.65610704038879        2.13807057430981       -4.23442806366994      h
       -8.13934931576679        5.14344620345061       -7.19786148199106      o
       -8.76604978018117        6.40397737404601       -5.98772819111693      h
       -6.37798716086211        5.59223568601622       -7.56608554286683      h
       -6.93131635947529       -2.15156662023017       -3.28235788023122      o
       -8.04841521912740       -0.72832182301390       -3.60999698853293      h
       -5.76984232561341       -2.31069305718103       -4.67816928112078      h
       -9.75686288314757        8.41163795284808       -3.75460036094222      o
      -11.25566523455717        8.41463812692898       -2.65600552525633      h
       -8.34658065503385        8.44806508333299       -2.56765618537740      h
       -3.70567593815433        4.43579449313530       -3.07039310003596      o
       -1.93341316253773        4.21503621773180       -2.61875028738006      h
       -3.92660877793592        6.22004937664903       -3.46289938535893      h
        1.51872421804404        4.41523531907027       -8.97310773029021      o
        0.00763081599385        3.38789030484802       -8.74546326688304      h
        1.32416139045752        5.89403510233938       -7.85335402337669      h
       -2.84000317795252        3.07282696161117        6.98824836388502      o
       -1.46294342315485        4.27632865006274        7.26191272769407      h
       -2.52334425122537        2.35594064869701        5.33649251254704      h
       -3.42610994943423       -0.95618928825603       14.95805529833202      o
       -2.64051268586309       -2.52440706786808       15.44515308972301      h
       -5.25281658191388       -1.23762979195281       14.98044875586694      h
       -5.09690812734453       -6.55692344508495        2.34479357635264      o
       -6.47333005560429       -5.36146770554694        2.58467392627599      h
       -5.78432527505075       -8.22606006652668        2.68594059162698      h
       -0.93549778480780        5.82329483111180       12.25569267016349      o
        0.37731599143183        5.96352237849400       13.55410077466289      h
       -2.55654848112683        5.64365917121980       13.10701965613602      h
       -8.71843301807818       -3.19923615406253        3.75169236977428      o
       -9.65984924749017       -2.58405462642142        2.28731247616270      h
       -8.54029056180504       -1.72090863522765        4.84661234706117      h
        4.59102787693492       -1.34248382082806        4.56904569482062      o
        5.40124057692905        0.18744181845639        4.02893131556690      h
        3.00612907194724       -0.89250240042396        5.36043668335309      h
        1.34372836032290       -2.38402536080286       -5.46655077733351      o
        2.56361207962716       -2.98282464896489       -6.70536164743682      h
        1.57697838074116       -3.48033710802301       -3.98391540275148      h
        0.95721013956458        8.41342333304280       -6.15473655935327      o
        0.52646738845110        9.72557015677478       -7.38248620074970      h
        2.51534814232237        8.98982284631808       -5.37298138415788      h
       -0.38602428910104        0.92838245638024       11.44846757757493      o
       -0.60801718614969        2.77649033350248       11.49428909416940      h
       -1.70049198202445        0.23878490904894       12.55732530664716      h
       -6.93700383724094        5.20956193525800        5.30669460626475      o
       -6.91734226145701        4.57155856583860        3.59243086919508      h
       -5.44774859278670        4.44297744521367        6.11016119815874      h
      -14.34700427735752        2.77928410661407       -0.23106268701028      o
      -13.30702881525956        1.27985907463222        0.01744919613491      h
      -15.68437477509904        2.30899747336097       -1.37148163717414      h
        1.17146247743140        3.24823334396446        3.35761808113181      o
       -0.04730578502219        4.44205369217931        2.67296444597800      h
        2.68424277736300        4.19823667347248        3.68191711261408      h
       -3.32662336189598       -4.01792322746407       -6.50993223820581      o
       -1.60613365302166       -3.36920445523319       -6.45939714680897      h
       -3.40495660319915       -5.19918012312252       -5.09372328414136      h
        7.38844792952656       -3.70514125436933       -4.26073719116359      o
        6.64493624593844       -3.17658958795780       -5.87261873176503      h
        7.93375706261489       -5.42357297382672       -4.59302158694413      h
       -6.23743556951017       -8.99636275923934       -6.16787619974445      o
       -5.50842825842525       -8.48288435939203       -4.54621261824497      h
       -4.82057625945501       -9.32511794441087       -7.31619253556008      h
      -12.21360842149525       -2.84746989468049       -4.86052995587810      o
      -11.06359317726519       -4.01329495715629       -5.71016540733425      h
      -12.25598233283897       -1.40958172276736       -5.99405100532932      h
        3.31895212390616       -4.14636792234806        9.27551944484536      o
        2.22842555139178       -2.90419851450267        8.41822462495823      h
        3.45293827554088       -3.70240591139471       11.04548356046113      h
        3.30700603253402      -10.84755278807698        1.80071502788824      o
        1.47226298065048      -10.99102324994096        1.62210624111082      h
        3.52657843044895      -10.18444907968969        3.50168675936657      h
        0.08255120146299       -5.91709813078527        3.14320199945919      o
        0.82789330346509       -6.04742766459797        1.46796553653773      h
        1.28403861609587       -6.60754629422306        4.34928359506609      h
        5.12367001994791        3.98671615953515        8.21664497544904      o
        3.47159160089412        4.73335838259683        7.81708629750950      h
        6.32530939802692        4.57834735018740        6.96590663476408      h
      -10.24376161118398       11.01009090016511       -8.14576865982413      o
       -8.60361781022063       11.76460526194840       -8.44297690210639      h
      -10.11819685675756       10.26019715473042       -6.46189619183784      h
      -13.44449410543535        8.29126820887959       -0.37051030575382      o
      -14.76748032332356        7.42067272958835       -1.29217168402049      h
      -13.13782346637483        7.30839899979882        1.13690903082208      h
       -0.59008971908671       -7.27423590858830       10.20301426444472      o
       -0.88082890901174       -7.02615034497078       11.97214162906480      h
        0.92791091401027       -6.30322973288801        9.78230474812874      h
      -10.32025674855923       -9.55032555915174        9.23757942451970      o
      -10.55060471872916       -8.96972740079560       10.95381948026219      h
      -10.85193755907037       -8.09209755819894        8.21795409046922      h
        1.99890150287282       -5.55983366046396       -1.63314300920627      o
        3.60903015258111       -5.61828541347412       -0.72673408774174      h
        1.70063199427726       -7.22769605198114       -2.34649992046123      h
       -1.68127248684062        7.04252101252418        1.53900281656204      o
       -0.45782799434745        7.93718746701183        0.54397855455800      h
       -3.36144181308913        7.32324150739210        0.78586905926419      h
        0.41442774619640       -1.16217655743591      -15.97495689837496      o
       -1.27488814901058       -1.29193495181597      -16.62185039924109      h
        0.17343650329885       -1.23798344981795      -14.12896276892241      h
        2.57268122727110       -8.89631735328249        6.38536978875530      o
        1.05392232103901       -9.67592500384480        7.02045696389120      h
        3.64247089188987       -8.56815459492691        7.84233995315762      h
       -9.20601011105367       10.02292815719232        3.50490733634129      o
      -10.45558987209700        8.71950707915768        3.73652844530837      h
       -8.85165644740714       10.73251177818877        5.18211296815562      h
      -12.22521243278807        5.50889548447287        4.08598123717721      o
      -11.57184716497490        5.76982795235815        5.78903064466421      h
      -13.09525272325476        3.87813690841541        4.16786434606186      h
      -11.91276551509236       -5.29486201372323        6.98311059417085      o
      -10.68133838536432       -4.67148839502275        5.73288342246537      h
      -13.26445435278132       -6.13826400665778        6.10039873406423      h
        1.39873264962269      -15.51394452342839        4.21096061667228      o
        0.71086383511588      -14.19454662507698        5.26979673181733      h
        0.52753300661541      -17.02918821889826        4.68223153315449      h
       11.13603268458660      -12.24213358317937        7.48675742207681      o
       10.82285160420478      -10.78650910207155        8.54526941992892      h
        9.55078325474500      -13.16649578649718        7.45949498907008      h
        1.05350805342596        3.20998536615122       -2.25236733925416      o
        1.74976754877870        4.80449232739056       -1.66564327348526      h
        2.33915290313122        1.94204059562195       -1.97970399408296      h
       10.27276238495078       -7.67648605667532       -5.75081521851285      o
       11.31735967188029       -7.19992928664437       -7.18809996616327      h
       11.41721670522813       -7.58590407928677       -4.32515831953860      h
      -17.01986643700359        6.47689759231384       -3.56202734977536      o
      -16.57200633205565        7.61929534746156       -4.95036232962813      h
      -18.78950632307969        6.02739344166126       -3.78582917565255      h
       13.02861097111377        0.97943960441334        2.95644459023115      o
       14.06495278122917        2.46707855265696        3.15669282538685      h
       14.13549562617303       -0.48299688161241        3.03347485056286      h
       -2.66257028618436        3.04530965276167      -12.14414926880979      o
       -2.36290182953168        1.28572348592304      -11.74342980573330      h
       -4.23094325406236        3.13680648200816      -13.13948544387603      h
      -18.48761294901398       -0.39571404769064        2.17576659284274      o
      -19.26113926078432       -2.03350391058101        1.82869871486889      h
      -18.72977663155805        0.56015158285515        0.60677699586008      h
       -3.77062427607069        9.14104243859685        5.52521320247109      o
       -5.27467358612488        8.06790119420551        5.61211792660907      h
       -2.59378472914700        8.20497786053779        4.44792096073813      h
        5.83570350471914       -9.38634831644182       -2.26360001448385      o
        7.39068788084376       -8.64253698354306       -1.58176670403309      h
        4.80494946419239       -9.79888847642505       -0.77923840113654      h
       -9.26888074536643      -14.02406305365272        6.73846830946611      o
       -9.70435805574844      -12.83353526472560        8.05446442747585      h
       -8.44746524708895      -12.98497942466393        5.43845675549254      h
        4.35826811473274        1.74160590271914       -6.07476906245006      o
        3.27189289369740        0.37065188345397       -5.51449586628094      h
        3.38872446521992        2.73015073210054       -7.32631770571469      h
       10.28575537108341       -1.25764421037531      -14.16932729932527      o
        9.96246411760012        0.36938478800053      -13.36650051742596      h
        8.65971036642743       -1.99029799390944      -14.55757631044103      h
       -7.08878602984633       -3.80832491725115       10.06773793114289      o
       -6.69801159634102       -2.05058224005958       10.47349682996601      h
       -6.01288226217420       -4.21912528006179        8.61769051035872      h
       -2.42714801633745      -10.42617231965098       -9.12832501721594      o
       -0.94473760380375       -9.36389208013323       -9.06399299697873      h
       -2.11271688224142      -11.93101083085153       -8.10585406976901      h
        4.59504289318901       -0.59396724020225       -1.32241306325213      o
        5.52970568123098       -1.81651830654994       -2.31854753414773      h
        5.80982168564807        0.17594424371093       -0.16269165591111      h
       -2.37502665155976      -14.48554952361001       -6.04283686623360      o
       -4.00775587106540      -15.14245918541476       -6.50337223636590      h
       -2.70155920437679      -13.59369080183193       -4.44023163712382      h
        6.22136239301008      -13.51924387491279        6.44012450572716      o
        4.92552573442019      -13.61861164839225        7.76222960752325      h
        5.65782899438960      -14.60671178859863        5.09089876745668      h
       -9.88607485306474       -1.01162113409651      -14.67735495625920      o
      -10.12054404284126       -2.63391320462295      -13.80753378329154      h
      -11.47113491516957       -0.63760383089901      -15.46575551602459      h
       -8.78531990339074       -5.02865118580839       -7.80409247687583      o
       -7.81210278914874       -6.50320505212126       -7.21618600863500      h
       -7.62633711320015       -3.61896820830851       -8.03357606012783      h
       -6.36293978940073       -0.60605624228766       -9.21740157107265      o
       -4.97144794354854        0.24225511485518       -8.34684241703809      h
       -5.82933578910796       -0.76139055105984      -10.96674059803666      h
      -22.35987916241967        5.37787811649610        3.82660850241253      o
      -20.53020034817714        5.24428588106769        3.51847705379518      h
      -22.71984198962005        7.15199285207627        3.83736025674997      h
        5.11906323998117       -8.78982834334220       10.97609787994289      o
        4.77781748312494       -7.47343895162859       12.18516120836355      h
        6.90298330808874       -8.73255941421192       10.60332162194594      h
       -2.65503102533179       10.83178735420136       10.15420581375811      o
       -2.82045150882028       10.12207250081047        8.45060021985883      h
       -0.94498634427546       10.49945021995124       10.71989488229179      h
       11.44908560129695       -2.50765684527022       -1.55719650424888      o
       10.89228219859607       -2.76619836971136        0.17744975303781      h
       10.04558875224521       -3.02574520946000       -2.64252829099285      h
        5.55101542572052        6.12726749066964        3.37366772506378      o
        6.59070067920203        4.74250970572698        2.79946398433707      h
        6.68964708252981        7.51172216716207        3.78542679592812      h
      -11.36425037387293        0.08422641479231       -9.18614002801292      o
      -11.81148245202411        1.81965495361347       -9.53505236884094      h
       -9.52092666434733       -0.01885574089094       -9.21043467003894      h
       10.54994864480720      -12.10525930328097        2.18235389423446      o
       12.27594988227643      -12.27791018816581        1.57210536408847      h
       10.69600316026369      -12.05921597878192        4.01358702091663      h
       -5.01187746578449       11.56962854960833       -8.68966342563653      o
       -4.61427074360671       11.06932138958444       -6.94497051026034      h
       -5.05518402340295        9.95349776689341       -9.55419523828369      h
        9.05569789034383        1.10531978452736       -7.24501357711316      o
        7.22954633935010        1.21731138824795       -6.93072059937011      h
        9.87086832189287        1.62256759672598       -5.65638707585368      h
      -13.90866715739115      -13.56557310909146        4.45583581860899      o
      -12.33692140418098      -14.06061657222386        5.28530300035890      h
      -14.46600685940308      -12.03271156663008        5.30248861468566      h
      -21.12113480367526       -4.56921357165015        1.01093379541615      o
      -20.73627118349693       -5.35372698422404       -0.63472315968403      h
      -22.68248252107391       -3.62599488345423        0.76442217226030      h
      -15.45528647810743       -5.02305913126481        2.39248436695904      o
      -16.17419116686896       -4.29036473543958        3.92533303566389      h
      -16.43802798782392       -6.54066849206691        1.99434145412745      h
      -16.09379845724816        9.63159817978446        5.21006909518197      o
      -15.04727875683748       11.12124532713391        5.55075793751975      h
      -17.34871209602248       10.18656684359275        3.99681940716922      h
      -10.57612244694720       14.37311523760565        1.26494081756399      o
       -9.33281722196521       15.49053208333286        2.02738923418515      h
      -10.23997277509614       12.68260033622734        1.94503977948819      h
       -3.80935135931640        9.54269443229753       -4.17942902043560      o
       -5.18811962649277       10.38669702605953       -3.31792544713776      h
       -2.26855826344588       10.12647313662009       -3.34343123493375      h
        2.37999389902007       10.01456465873019       11.04298155725526      o
        3.15903650243859        9.45468770181084       12.57847344026063      h
        3.60576131105964       10.98776649794125       10.10381766877009      h
        1.67369201805779       10.63970406249177        4.77729877546156      o
        2.96494230043124       11.15565111698074        5.99154411831566      h
        0.57175061207302       12.10593797057691        4.63871702253401      h
        1.56233665747522        3.95079731865447      -14.59192532952156      o
       -0.00823540452222        3.75150497094286      -13.59654868672914      h
        1.41234627032241        2.70783039071465      -15.91571180288326      h
        4.73408669242507        1.02662158309574      -11.89194101519001      o
        3.74772098351209        2.35763837414372      -12.70948412201225      h
[...]
   382   8 o      384   1 h                                       0.9703436
   385   8 o      386   1 h                                       0.9709021
   385   8 o      387   1 h                                       0.9686747
   388   8 o      389   1 h                                       0.9828110
   388   8 o      390   1 h                                       0.9723397
   391   8 o      392   1 h                                       0.9885173
   391   8 o      393   1 h                                       0.9559119
   394   8 o      395   1 h                                       0.9763756
   394   8 o      396   1 h                                       0.9788650
   397   8 o      398   1 h                                       0.9879530
   397   8 o      399   1 h                                       0.9721852
   400   8 o      401   1 h                                       0.9637595
   400   8 o      402   1 h                                       0.9910243
   403   8 o      404   1 h                                       0.9754093
   403   8 o      405   1 h                                       0.9729898
   406   8 o      407   1 h                                       0.9896794
   406   8 o      408   1 h                                       0.9567056
   409   8 o      410   1 h                                       0.9901732
   409   8 o      411   1 h                                       0.9627574
   412   8 o      413   1 h                                       0.9686104
   412   8 o      414   1 h                                       0.9788854
   415   8 o      416   1 h                                       0.9636653
   415   8 o      417   1 h                                       0.9859667
   418   8 o      419   1 h                                       0.9813147
   418   8 o      420   1 h                                       0.9628885
   421   8 o      422   1 h                                       0.9804809
   421   8 o      423   1 h                                       0.9811109
   424   8 o      425   1 h                                       0.9908732
   424   8 o      426   1 h                                       0.9719152
   427   8 o      428   1 h                                       0.9803806
   427   8 o      429   1 h                                       0.9673089
   430   8 o      431   1 h                                       0.9594445
   430   8 o      432   1 h                                       0.9811717
   433   8 o      434   1 h                                       0.9760897
   433   8 o      435   1 h                                       0.9727606
   436   8 o      437   1 h                                       0.9722152
   436   8 o      438   1 h                                       0.9742233
   439   8 o      440   1 h                                       0.9635473
   439   8 o      441   1 h                                       0.9713704
   442   8 o      443   1 h                                       0.9859375
   442   8 o      444   1 h                                       0.9709391
   445   8 o      446   1 h                                       0.9819415
   445   8 o      447   1 h                                       0.9891195
   448   8 o      449   1 h                                       0.9694690
   448   8 o      450   1 h                                       0.9706878
   451   8 o      452   1 h                                       0.9737475
   451   8 o      453   1 h                                       0.9786177
   454   8 o      455   1 h                                       0.9791915
   454   8 o      456   1 h                                       0.9716484
   457   8 o      458   1 h                                       0.9721274
   457   8 o      459   1 h                                       0.9660890
   460   8 o      461   1 h                                       0.9658129
   460   8 o      462   1 h                                       0.9718723
   463   8 o      464   1 h                                       0.9693219
   463   8 o      465   1 h                                       0.9661462
   466   8 o      467   1 h                                       0.9914623
   466   8 o      468   1 h                                       0.9756438
   469   8 o      470   1 h                                       0.9663936
   469   8 o      471   1 h                                       0.9771333
   472   8 o      473   1 h                                       0.9695680
   472   8 o      474   1 h                                       0.9680222
   475   8 o      476   1 h                                       0.9677760
   475   8 o      477   1 h                                       0.9764330
   478   8 o      479   1 h                                       0.9764847
   478   8 o      480   1 h                                       0.9723838
   481   8 o      482   1 h                                       0.9656915
   481   8 o      483   1 h                                       0.9682158
   484   8 o      485   1 h                                       0.9651879
   484   8 o      486   1 h                                       0.9676582
   487   8 o      488   1 h                                       0.9866678
   487   8 o      489   1 h                                       0.9577160
   490   8 o      491   1 h                                       0.9731309
   490   8 o      492   1 h                                       0.9706882
   493   8 o      494   1 h                                       0.9590426
   496   8 o      497   1 h                                       0.9965405
   496   8 o      498   1 h                                       0.9559151
   499   8 o      500   1 h                                       0.9752247
   499   8 o      501   1 h                                       0.9708937
   502   8 o      503   1 h                                       0.9778668
   502   8 o      504   1 h                                       0.9721908
   505   8 o      506   1 h                                       0.9833022
   505   8 o      507   1 h                                       0.9580840
   508   8 o      509   1 h                                       0.9824494
   508   8 o      510   1 h                                       0.9745646
   511   8 o      512   1 h                                       0.9811645
   511   8 o      513   1 h                                       0.9822853
   514   8 o      515   1 h                                       0.9573508
   514   8 o      516   1 h                                       0.9868196
   517   8 o      518   1 h                                       0.9834602
   517   8 o      519   1 h                                       0.9723338
   520   8 o      521   1 h                                       0.9967817
   520   8 o      522   1 h                                       0.9645626
   523   8 o      524   1 h                                       0.9585571
   523   8 o      525   1 h                                       0.9803950
   526   8 o      527   1 h                                       0.9695965
   526   8 o      528   1 h                                       0.9854605
   529   8 o      530   1 h                                       0.9852894
   529   8 o      531   1 h                                       0.9757577
   532   8 o      533   1 h                                       0.9612091
   532   8 o      534   1 h                                       0.9846804
   535   8 o      536   1 h                                       0.9787825
   535   8 o      537   1 h                                       0.9715815
   538   8 o      539   1 h                                       0.9890820
   538   8 o      540   1 h                                       0.9669453
   541   8 o      542   1 h                                       0.9673359
   541   8 o      543   1 h                                       0.9673814
   544   8 o      545   1 h                                       0.9726470
   544   8 o      546   1 h                                       0.9772153
   547   8 o      548   1 h                                       0.9675234
   547   8 o      549   1 h                                       0.9788563
   550   8 o      551   1 h                                       0.9770314
   550   8 o      552   1 h                                       0.9846065
   553   8 o      554   1 h                                       0.9690126
   553   8 o      555   1 h                                       0.9739131
   556   8 o      557   1 h                                       0.9746207
   556   8 o      558   1 h                                       0.9880509
   559   8 o      560   1 h                                       0.9747652
   559   8 o      561   1 h                                       0.9598509
   562   8 o      563   1 h                                       0.9711191
   562   8 o      564   1 h                                       0.9731527
   565   8 o      566   1 h                                       0.9720722
   565   8 o      567   1 h                                       0.9906524
   568   8 o      569   1 h                                       0.9911268
   568   8 o      570   1 h                                       0.9955234
   571   8 o      572   1 h                                       0.9835627
   571   8 o      573   1 h                                       0.9792802
   574   8 o      575   1 h                                       0.9772358
   574   8 o      576   1 h                                       0.9736371
   577   8 o      578   1 h                                       0.9651247
   577   8 o      579   1 h                                       0.9711727
   580   8 o      581   1 h                                       0.9560904
   580   8 o      582   1 h                                       0.9750816
   583   8 o      584   1 h                                       0.9724538
   583   8 o      585   1 h                                       0.9819792
   586   8 o      587   1 h                                       0.9749940
   586   8 o      588   1 h                                       0.9642170
   589   8 o      590   1 h                                       0.9834162
   589   8 o      591   1 h                                       0.9775224
   592   8 o      593   1 h                                       0.9804360
   592   8 o      594   1 h                                       0.9656128
   595   8 o      596   1 h                                       0.9934830
   595   8 o      597   1 h                                       0.9559642
   598   8 o      599   1 h                                       0.9751538
   598   8 o      600   1 h                                       0.9675378
   601   8 o      602   1 h                                       0.9619881
   601   8 o      603   1 h                                       0.9778185
   604   8 o      605   1 h                                       0.9916391
   604   8 o      606   1 h                                       0.9577836
   607   8 o      608   1 h                                       0.9682304
   607   8 o      609   1 h                                       0.9703023
   610   8 o      611   1 h                                       0.9778107
   610   8 o      612   1 h                                       0.9691321
   613   8 o      614   1 h                                       0.9620810
   613   8 o      615   1 h                                       0.9794564
   616   8 o      617   1 h                                       0.9748473
   616   8 o      618   1 h                                       0.9843494
   619   8 o      620   1 h                                       0.9913979
   619   8 o      621   1 h                                       0.9814617
   622   8 o      623   1 h                                       0.9723348
   622   8 o      624   1 h                                       0.9696267
   625   8 o      626   1 h                                       0.9917652
   625   8 o      627   1 h                                       0.9561715
   628   8 o      629   1 h                                       0.9665912
   628   8 o      630   1 h                                       0.9701217
   631   8 o      632   1 h                                       0.9731422
   631   8 o      633   1 h                                       0.9635318
   634   8 o      635   1 h                                       0.9637950
   634   8 o      636   1 h                                       0.9703084
   637   8 o      638   1 h                                       0.9712681
   637   8 o      639   1 h                                       0.9757513
   640   8 o      641   1 h                                       0.9637624
   640   8 o      642   1 h                                       0.9863893
   643   8 o      644   1 h                                       0.9699060
   643   8 o      645   1 h                                       0.9764301
   646   8 o      647   1 h                                       0.9682394
   646   8 o      648   1 h                                       0.9626888
   649   8 o      650   1 h                                       0.9668963
   649   8 o      651   1 h                                       0.9766658
   652   8 o      653   1 h                                       0.9763592
   652   8 o      654   1 h                                       0.9578176
   655   8 o      656   1 h                                       0.9799101
   655   8 o      657   1 h                                       0.9689129
   658   8 o      659   1 h                                       0.9791428
   658   8 o      660   1 h                                       0.9834255
   661   8 o      662   1 h                                       0.9710303
   661   8 o      663   1 h                                       0.9841792
   664   8 o      665   1 h                                       0.9692460
   664   8 o      666   1 h                                       0.9634614
   667   8 o      668   1 h                                       0.9739193
   667   8 o      669   1 h                                       0.9682053
   670   8 o      671   1 h                                       0.9782884
   670   8 o      672   1 h                                       0.9691487
   673   8 o      674   1 h                                       0.9822867
   673   8 o      675   1 h                                       0.9722135
   676   8 o      677   1 h                                       0.9802317
   676   8 o      678   1 h                                       0.9732407
   679   8 o      680   1 h                                       0.9778148
   679   8 o      681   1 h                                       0.9632439
   682   8 o      683   1 h                                       0.9646833
   682   8 o      684   1 h                                       0.9764940
   685   8 o      686   1 h                                       0.9664462
   685   8 o      687   1 h                                       0.9820603
   688   8 o      689   1 h                                       0.9598395
   688   8 o      690   1 h                                       0.9825596
   691   8 o      692   1 h                                       0.9641138
   691   8 o      693   1 h                                       0.9735491
   694   8 o      695   1 h                                       0.9572117
   694   8 o      696   1 h                                       0.9935658
   697   8 o      698   1 h                                       0.9611953
   697   8 o      699   1 h                                       0.9789084
   700   8 o      701   1 h                                       0.9629277
   700   8 o      702   1 h                                       0.9740271
   703   8 o      704   1 h                                       0.9785580
   703   8 o      705   1 h                                       0.9687829
   706   8 o      707   1 h                                       0.9843820
   706   8 o      708   1 h                                       0.9670971
   709   8 o      710   1 h                                       0.9929888
   709   8 o      711   1 h                                       0.9565600
   712   8 o      713   1 h                                       0.9716794
   712   8 o      714   1 h                                       0.9753763
   715   8 o      716   1 h                                       0.9731210
   715   8 o      717   1 h                                       0.9748900
   718   8 o      719   1 h                                       0.9831359
   718   8 o      720   1 h                                       0.9718316
   721   8 o      722   1 h                                       0.9697517
   721   8 o      723   1 h                                       0.9673699
   724   8 o      725   1 h                                       0.9708882
   724   8 o      726   1 h                                       0.9862016
   727   8 o      728   1 h                                       0.9953532
   727   8 o      729   1 h                                       0.9558452
   730   8 o      731   1 h                                       0.9693925
   730   8 o      732   1 h                                       0.9689989
   733   8 o      734   1 h                                       0.9792554
   733   8 o      735   1 h                                       0.9853736
   736   8 o      737   1 h                                       0.9598714
   736   8 o      738   1 h                                       0.9765759
   739   8 o      740   1 h                                       0.9659318
   739   8 o      741   1 h                                       0.9822907
   742   8 o      743   1 h                                       0.9742204
   742   8 o      744   1 h                                       0.9657007
   745   8 o      746   1 h                                       0.9763518
   745   8 o      747   1 h                                       0.9684297
   748   8 o      749   1 h                                       0.9696181
   748   8 o      750   1 h                                       0.9833851
   751   8 o      752   1 h                                       0.9604834
   751   8 o      753   1 h                                       0.9608253
   754   8 o      755   1 h                                       0.9592263
   754   8 o      756   1 h                                       0.9592248

 * 1 distinct bonds (by element types)

   Z      Z             #   av. dist./Å        max./Å        min./Å
   1 H    8 O         502     0.9738255     0.9976321     0.9558211


optimized geometry written to: xtbopt.coord


           -------------------------------------------------
          | TOTAL ENERGY            -1283.243218536727 Eh   |
          | GRADIENT NORM               0.000296435172 Eh/α |
          | HOMO-LUMO GAP               6.447542686583 eV   |
           -------------------------------------------------

------------------------------------------------------------------------
 * finished run on 2022/11/24 at 12:18:53.358     
------------------------------------------------------------------------
 total:
 * wall-time:     0 d,  0 h, 14 min,  9.355 sec
 *  cpu-time:     0 d,  0 h, 20 min, 55.710 sec
 * ratio c/w:     1.478 speedup
 SCF:
 * wall-time:     0 d,  0 h,  0 min, 20.982 sec
 *  cpu-time:     0 d,  0 h,  0 min, 33.811 sec
 * ratio c/w:     1.611 speedup
 ANC optimizer:
 * wall-time:     0 d,  0 h, 13 min, 47.321 sec
 *  cpu-time:     0 d,  0 h, 20 min, 20.154 sec
 * ratio c/w:     1.475 speedup

