756
 energy: -1283.237092324540 gnorm: 0.003690281093 xtb: 6.5.1 (579679a)
o            7.93224236596970       -6.42961155147941       -2.33334403351895
h            7.70516385913730       -5.62444683588042       -1.83635953522789
h            7.13918715294723       -6.68035009541692       -2.82856383317430
o            0.44562234445647        3.39375673103696        3.96596786624904
h            0.28110295762022        3.67334377169774        4.88094368056038
h            0.54764081289127        4.19106422026512        3.41358285529796
o           -1.24635609966659        0.84686661283017       -3.68166204132644
h           -0.64126041910565        0.19613381150321       -3.31077728933585
h           -1.61410522094817        1.37460185396852       -2.93748766816829
o           -4.64516443323506        1.92252158263394        0.34843284827332
h           -4.88839351246913        1.53175533408810       -0.51712450312253
h           -5.46447043352226        2.19574358028543        0.78642285323779
o           -3.36723601299795        4.15237407405482        0.01438404756534
h           -3.81842418383792        4.66787440242841        0.71103203603267
h           -3.78635994391259        3.25635909978436        0.06139676890391
o           -4.56939301996492       -3.50065478721934       -1.00543921581844
h           -5.19583460104576       -3.79503092330823       -1.68321027243664
h           -4.24689115158576       -2.60627582419714       -1.25143376959558
o           -1.75506487217038       -3.68279345302105       -1.31879659074595
h           -1.11383558946182       -4.40931757621629       -1.33709553714801
h           -2.16500009133744       -3.64662680137690       -0.43377113045608
o            0.37785434684374       -5.41286725151006       -1.74482083642055
h            0.28199320343737       -6.21235967343573       -1.20068795430382
h            0.73289915350362       -5.71699865749379       -2.59353711147926
o           -1.81386005891540       -2.45301327291650        3.59151888598947
h           -1.98040313496416       -2.87857489893441        2.72780837942184
h           -1.39387370998062       -3.12402387866218        4.16289276407927
o           -1.97445474551579        3.54182982719961       -4.67740305644415
h           -1.68158706668738        2.84958783692351       -5.30193528930199
h           -1.29258442887782        3.68257842964136       -4.01327363866035
o           -5.21784011940433        0.99730099347308       -2.05362554907075
h           -4.74647328063614        1.53446437933667       -2.71878975965893
h           -6.16814621363727        1.13141822323033       -2.24076283250860
o           -4.30715816949444        2.72179451638003       -3.80894426351740
h           -4.63879377332612        3.38883888549367       -3.16856930382950
h           -3.37508545696962        2.95928368304652       -4.00380004503916
o           -3.66789465900366       -1.13856002316799       -1.73694898825102
h           -4.25903791785889       -0.38541131094289       -1.91032813776551
h           -3.05326906922658       -1.22276610725542       -2.47558057232269
o           -5.16310948768182        4.45124711102648       -1.98684894706588
h           -5.95624153569753        4.45283473477889       -1.40549759600189
h           -4.41682027162028        4.47052351833779       -1.35874513873947
o           -1.96095925746822        2.34732135802216       -1.62478205705745
h           -1.02311818487789        2.23050110956084       -1.38578297313109
h           -2.07787188142127        3.29150838082334       -1.83248743838716
o            0.80367424583763        2.33644191163194       -4.74836412186093
h            0.00403805392516        1.79279434236984       -4.62789985963684
h            0.70071603138945        3.11898905642946       -4.15581597833569
o           -1.50286496066853        1.62607000113796        3.69802177830855
h           -0.77415632037623        2.26293566795131        3.84283872307295
h           -1.33529627301513        1.24671010153400        2.82395022380233
o           -1.81301930729362       -0.50599358065553        7.91546198332649
h           -1.39729913846291       -1.33585869136303        8.17322303401252
h           -2.77967082821012       -0.65492548143800        7.92731209072737
o           -2.69716762706487       -3.46977446078436        1.24081132488125
h           -3.42553874408875       -2.83716652677587        1.36775053940430
h           -3.06093311601585       -4.35304352273758        1.42133855093234
o           -0.49504410857150        3.08155491700240        6.48543326490055
h            0.19966702397565        3.15576013941798        7.17252124425459
h           -1.35286719478490        2.98649581952176        6.93593610490441
o           -4.61359606796415       -1.69296286503187        1.98531010440867
h           -5.11177208254462       -1.36742282003432        1.21039363660298
h           -4.51932713980993       -0.91066563181088        2.56471680415302
o            2.42946732710124       -0.71041184399017        2.41783485728056
h            2.85821342392346        0.09918993869741        2.13201863649751
h            1.59077499791235       -0.47229193098194        2.83662093332687
o            0.71107042592899       -1.26157189115531       -2.89277409361686
h            1.35660509013808       -1.57844282835647       -3.54832457469666
h            0.83450102117721       -1.84171508383102       -2.10819724130775
o            0.50653379190504        4.45219189353847       -3.25694632633033
h            0.27859454425267        5.14655009001816       -3.90664345725326
h            1.33106491440775        4.75720938034005       -2.84325930311049
o           -0.20427525664786        0.49127883892036        6.05826814183165
h           -0.32174883874885        1.46925541078693        6.08251584418228
h           -0.89986160421344        0.12635953217663        6.64505038219186
o           -3.67090434262442        2.75678145493404        2.80818185086523
h           -3.66049988478959        2.41916461135722        1.90103254772781
h           -2.88282440603990        2.35112241256991        3.23335806101863
o           -7.59210770832660        1.47073381184971       -0.12227310825605
h           -7.04177639388447        0.67727225546457        0.00923371694324
h           -8.29981369826766        1.22186884293869       -0.72575682756646
o            0.61991124648620        1.71889106132637        1.77677497145593
h           -0.02503314337759        2.35063358351529        1.41447187036951
h            1.42044010631548        2.22161117358540        1.94838662843460
o           -1.76037327237785       -2.12619340713778       -3.44490778499162
h           -0.84992932684603       -1.78290621658719       -3.41816576627282
h           -1.80182543853168       -2.75128763654378       -2.69548228062101
o            3.90979826826017       -1.96067631499416       -2.25468502321721
h            3.51634882926364       -1.68097881834387       -3.10765600118088
h            4.19836343438842       -2.87003121942676       -2.43052235300315
o           -3.30070875786978       -4.76067015321914       -3.26389952458473
h           -2.91493470226083       -4.48894908572840       -2.40575211350117
h           -2.55093909993134       -4.93463990517885       -3.87156236040791
o           -6.46316323956687       -1.50681617700180       -2.57208168556978
h           -5.85460138012706       -2.12374423196541       -3.02168940405632
h           -6.48558654778648       -0.74591852459579       -3.17191519301927
o            1.75631382805412       -2.19416341253197        4.90839350951346
h            1.17923201799445       -1.53683566981714        4.45473262780279
h            1.82721624607615       -1.95922883382831        5.84501818361617
o            1.74999222874067       -5.74027772953384        0.95289735609316
h            0.77908801781830       -5.81619902839021        0.85838165646189
h            1.86618493786094       -5.38937835858918        1.85301283278302
o            0.04368421454701       -3.13119348549699        1.66331086738314
h            0.43810226925412       -3.20016090469864        0.77681390832962
h            0.67948397355935       -3.49656291889924        2.30154176226969
o            2.71132941075105        2.10967933797007        4.34806127109946
h            1.83708716076055        2.50478538711355        4.13662392431607
h            3.34720958535590        2.42275708132393        3.68619904440551
o           -5.42076519857739        5.82628919435425       -4.31055514007942
h           -4.55283847650097        6.22556099991049       -4.46783096878751
h           -5.35431919204180        5.42946251367023       -3.41948820395014
o           -7.11451989273598        4.38755018563621       -0.19606561020974
h           -7.81461404958304        3.92685089807840       -0.68378780775999
h           -6.95223677929191        3.86743819889029        0.60162634998304
o           -0.31226203172934       -3.84935986956790        5.39920263127776
h           -0.46611458535502       -3.71807864294739        6.33538451582165
h            0.49102930944365       -3.33552552973994        5.17657274283268
o           -5.46124468202178       -5.05381464262194        4.88831651537622
h           -5.58313957841279       -4.74657532852683        5.79651164131687
h           -5.74259805041837       -4.28215361621427        4.34875402493555
o            1.05777312216313       -2.94213726953725       -0.86422206261980
h            1.90981651021303       -2.97306860516756       -0.38457111762053
h            0.89993569550645       -3.82473203805272       -1.24171428329717
o           -0.88969108535698        3.72674162714373        0.81440521804191
h           -0.24227214112254        4.20017872621950        0.28786105429286
h           -1.77879840326818        3.87529251566171        0.41586399691746
o            0.21930571885343       -0.61499734924257       -8.45358313580156
h           -0.67464175490883       -0.68366253447202       -8.79590443434208
h            0.09177864508479       -0.65511262912061       -7.47672511103156
o            1.36140427639309       -4.70772840433101        3.37899217540718
h            0.55771167435741       -5.12027900645574        3.71506583542686
h            1.92751258737115       -4.53407215114198        4.14998758337649
o           -4.87161075412611        5.30390516731950        1.85471708872468
h           -5.53285988687755        4.61416443661134        1.97728570115339
h           -4.68409487072360        5.67940064878167        2.74225608708132
o           -6.46930381789715        2.91518194763777        2.16220815489688
h           -6.12355780777453        3.05326146322759        3.06342309038446
h           -6.92970931218207        2.05222167270082        2.20553883007684
o           -6.30396402943666       -2.80192031254608        3.69530298766049
h           -5.65232085549402       -2.47204519965097        3.03371125994116
h           -7.01924695857513       -3.24822942683872        3.22819198749781
o            0.74017744232855       -8.20962589303518        2.22834439436074
h            0.37617294159956       -7.51143059311149        2.78865633657653
h            0.27915844510059       -9.01145832564356        2.47773022352350
o            5.89293471657102       -6.47825810506635        3.96182141133374
h            5.72720642594641       -5.70797480203091        4.52196183806548
h            5.05405684469929       -6.96740951768423        3.94739475307210
o            0.55749245337739        1.69865110310402       -1.19190146651880
h            0.92593711119406        2.54242784962080       -0.88142046182462
h            1.23782640915801        1.02768362585455       -1.04761423800533
o            5.43611174715348       -4.06222148101903       -3.04320035776088
h            5.98888882596844       -3.81003849861584       -3.80377869179681
h            6.04173089236579       -4.01428756286611       -2.28877521625401
o           -9.00652545110076        3.42742660321369       -1.88494369812051
h           -8.76952808988898        4.03195746102699       -2.61961893055921
h           -9.94297855031980        3.18955925048220       -2.00337452413291
o            6.89444401565378        0.51829711811373        1.56448310245212
h            7.44285248427415        1.30552174757732        1.67044990502051
h            7.48018215021088       -0.25559094268701        1.60524576076985
o           -1.40897151787950        1.61150846838912       -6.42640703887671
h           -1.25039379979234        0.68037556827672       -6.21435543105047
h           -2.23891875067971        1.65992650529666       -6.95311625991048
o           -9.78322345664101       -0.20940285607232        1.15136609717983
h          -10.19255595286469       -1.07608392776410        0.96770568551901
h           -9.91137095875200        0.29641945229895        0.32109255831020
o           -1.99532843777949        4.83723134241583        2.92381691213681
h           -2.79123705673722        4.26934945180243        2.96980491167005
h           -1.37257176865667        4.34188729977261        2.35373840832697
o            3.08812130429330       -4.96704162267233       -1.19784554226748
h            3.91098359945066       -4.57343361609021       -0.83703489274230
h            2.54266975599869       -5.18534847391875       -0.41235520374282
o           -4.90488046103966       -7.42121457228136        3.56584386577153
h           -5.13532512955980       -6.79121439743109        4.26223902106173
h           -4.47020609866719       -6.87135519559592        2.87790737749595
o            2.30629616532839        0.92161815409511       -3.21462934935619
h            1.73141115586481        0.19614052990268       -2.91814554206293
h            1.79323576102894        1.44473354976207       -3.87692036971046
o            5.44298733931560       -0.66551665555537       -7.49808510064969
h            5.27190897548765        0.19547001186492       -7.07324746336494
h            4.58252137894709       -1.05322034128557       -7.70353762948848
o           -3.75122401997264       -2.01527875792844        5.32761747851909
h           -3.54443509515768       -1.08512139052577        5.54233584089845
h           -3.18188026499433       -2.23266494815984        4.56028542870989
o           -1.28439141773811       -5.51729278852201       -4.83050157284007
h           -0.49993361021759       -4.95515829417492       -4.79645853379867
h           -1.11800162717513       -6.31361903474102       -4.28943324863919
o            2.43159198220426       -0.31431392753873       -0.69979085647536
h            2.92619422951655       -0.96126009101708       -1.22692251746993
h            3.07442523546365        0.09310568416169       -0.08609271671242
o           -1.25680997929689       -7.66542269532443       -3.19773155882402
h           -2.12081307383734       -8.01304431797302       -3.44143638151387
h           -1.42960356486558       -7.19347138441098       -2.34966939350475
o            3.29220319915913       -7.15407576726569        3.40796712381882
h            2.60647597037868       -7.20665892848751        4.10759501410929
h            2.99399416702587       -7.72953900477606        2.69398761075948
o           -5.23148551753798       -0.53532685023402       -7.76692175920784
h           -5.35556126942668       -1.39380684338691       -7.30663221691202
h           -6.07026318031880       -0.33740541689662       -8.18412536850088
o           -4.64899108338017       -2.66104760911586       -4.12974789055397
h           -4.13398676526107       -3.44134791142192       -3.81864118541749
h           -4.03568380298112       -1.91507550282498       -4.25118537308764
o           -3.36712273090844       -0.32071115194522       -4.87763885516710
h           -2.63077695692413        0.12819588600632       -4.41695879010748
h           -3.08475165430591       -0.40291052821897       -5.80334920238229
o          -11.83233849133036        2.84585054227060        2.02495401453086
h          -10.86411415955927        2.77515657572937        1.86189787395869
h          -12.02282261625789        3.78467162986939        2.03064359790271
o            2.70889160777686       -4.65137684705897        5.80830086272295
h            2.52831212993081       -3.95477358028750        6.44810962266315
h            3.65290145389427       -4.62107143487047        5.61103616222468
o           -1.40498191285008        5.73193502120770        5.37337431147411
h           -1.49251866292874        5.35637009455170        4.47186505481335
h           -0.50006523800522        5.55606978342423        5.67272407500115
o            6.05859518590113       -1.32699485528554       -0.82403290294871
h            5.76394751423768       -1.46380913809222        0.09390236538781
h            5.31589663780655       -1.60115541084967       -1.39836575076389
o            2.93747086067032        3.24241032117852        1.78526807726787
h            3.48764860332646        2.50962805876410        1.48141254325903
h            3.54000878506860        3.97503218550824        2.00316159395231
o           -6.01370231686645        0.04457069926464       -4.86109595900204
h           -6.25036734060942        0.96291993316306       -5.04573241837155
h           -5.03825741746536       -0.00997802837424       -4.87395212990928
o            5.58279239904513       -6.40582735538590        1.15485194695625
h            6.49615291990615       -6.49719026910954        0.83192233181661
h            5.66008112017414       -6.38146227734675        2.12389878545080
o           -2.65217133873918        6.12238376708308       -4.59837185527631
h           -2.44176692246015        5.85763261954603       -3.67512012443334
h           -2.67508818211335        5.26716418702800       -5.05586238863211
o            4.79206895240593        0.58491004073355       -3.83389607770237
h            3.82571116796202        0.64417344523535       -3.66757939633293
h            5.22343856778484        0.85862579533947       -2.99323113659664
o           -7.36014969374708       -7.17859214219135        2.35792677073826
h           -6.52841765981244       -7.44055786128698        2.79686190051512
h           -7.65508116278414       -6.36743674644802        2.80595613597183
o          -11.17682320654707       -2.41792369387217        0.53496312626786
h          -10.97316214944214       -2.83307031345631       -0.33588103133807
h          -12.00305283689184       -1.91879385918015        0.40451479307010
o           -8.17858539221511       -2.65808842129063        1.26604820443996
h           -8.55901337031982       -2.27036324446260        2.07719678768394
h           -8.69862980336669       -3.46117271008238        1.05536004828666
o           -8.51647138046658        5.09682226133194        2.75704983240916
h           -7.96267700424595        5.88510958399686        2.93733460378281
h           -9.18054307975637        5.39049903098525        2.11502574637411
o           -5.59664297865981        7.60592503344468        0.66937785379724
h           -4.93871418740085        8.19723656328471        1.07284818036434
h           -5.41876023286324        6.71134307294151        1.02927072560722
o           -2.01582192767808        5.04977642419676       -2.21165859220868
h           -2.74543467378642        5.49640336275989       -1.75577053410500
h           -1.20046933462416        5.35869881073584       -1.76926761575281
o            1.25943853345311        5.29947939452997        5.84369418053901
h            1.67169012550562        5.00320526801735        6.65624149255355
h            1.90808671377353        5.81447562945024        5.34671005344777
o            0.88567967402904        5.63028892063819        2.52803764165590
h            1.56897989703483        5.90331634390759        3.17058860554221
h            0.30255739422973        6.40618649065273        2.45470333615973
o            0.82675295489647        2.09067190593374       -7.72171434760201
h           -0.00435798839562        1.98521093721796       -7.19498371197039
h            0.74738146016036        1.43292213375781       -8.42223198140987
o            2.50517079207753        0.54326474599763       -6.29294417865898
h            1.98320853730365        1.24760849915039       -6.72556935972124
h            2.70039881136477       -0.10606888445925       -6.98998510708959
o            4.18017556017575        0.74441844763487        0.97770681909110
h            4.73111062586158       -0.00010680879010        1.26237894988045
h            4.81516858536294        1.39698901389123        0.62047220623439
o            8.59596643959171        4.77734392427225       -2.94535170163874
h            9.18453764478547        4.70662971513263       -2.17065679631269
h            9.10244990430130        4.48160850290940       -3.71445744648361
o           -0.04248119575853        6.30883675938469       -5.12503581321407
h            0.11842053701350        5.78189120087313       -5.93127344701406
h           -1.01944781331842        6.39443106364372       -5.05233711485926
o           -5.90972547441291       -4.12183508738838        1.05900772304820
h           -6.65076097916218       -3.51007910484504        1.18559892350380
h           -5.35374915939476       -3.77035498319741        0.30411256458521
o            0.25203844471678       -7.86237189585197       -0.40926798872950
h            0.47289279752614       -7.93430363487859        0.54371587955550
h            0.82318965922665       -8.48736050346738       -0.85503901387220
o           12.28116310348963       -1.09710733261383        0.11257751555545
h           12.85041174157631       -1.85542823265898       -0.02076629437341
h           11.75329008826402       -1.01089549621202       -0.71071390046204
o           -0.89465418709686       -5.61333069511149        1.21176790087555
h           -1.04192324133343       -5.99492887630816        2.09660683648314
h           -0.87800085404188       -4.64492958215732        1.34236209215952
o            5.73152270104614        7.79302410658630       -1.37011449068475
h            5.83039055567324        7.02534556540913       -1.99953047298954
h            6.38531053308987        8.44013497674883       -1.63301206009407
o           -4.48871538655038       -0.83983645618265        8.01119452834507
h           -4.85309669534417       -0.10004600941789        7.49554011428561
h           -4.99357068981113       -1.62047748155679        7.74060553494916
o           -7.89559764656947       -1.01604691393397       -6.39886604443210
h           -7.87704452409092       -1.96758222015363       -6.52122513558000
h           -7.05828313285346       -0.75420053442732       -5.94916505295394
o           -2.18972244384415        8.66649673374783       -2.20865233198769
h           -2.79386620539335        7.96258420265491       -1.84781521186535
h           -2.72253027441178        9.21454539490132       -2.78254456254350
o           -8.13679934589167        4.74686469969966       -4.03895830697743
h           -7.36751087366399        5.32387618466656       -4.09041741200332
h           -7.92008378979792        3.96378914665134       -4.57446210899491
o            4.30502812189201       -1.97860842983054        4.10832707444173
h            3.33906833601106       -1.98515196192331        4.26130008364911
h            4.62274742751498       -2.86471822541974        4.33989066775761
o           -5.55089730090380       -2.91400727954694       -6.55366586977015
h           -5.25223953021263       -2.78084702280099       -5.61159988277240
h           -5.01919112133409       -3.65475552962268       -6.86575172671593
o            2.19160143706953       -4.28599627895804       -7.27663859539483
h            2.75728657428682       -4.78960174963498       -6.66578034836824
h            2.01837827054071       -4.84956793897142       -8.02956773384011
o            2.32995291953396       -3.98014042393402       -3.54541097906698
h            2.81129239637678       -4.58369975443758       -4.12541299195609
h            2.50653925425060       -4.28111307881079       -2.63552781698371
o           -3.68800492743774        6.85214719737803       -1.07033899579721
h           -3.13936526853889        6.73643734861308       -0.26246962264896
h           -4.55942339379024        7.13915335125016       -0.73642570827639
o           -9.02319452985434       -0.67081805136372       -3.96867921679780
h           -8.50668773187426        0.01973391546909       -3.49577586067233
h           -8.65351948315184       -0.73715552560866       -4.86846038901847
o          -10.07989578741677        5.17755730344162        0.44422450698596
h           -9.87739518410429        4.22852654408955        0.50957206472362
h           -9.41689150862868        5.54058037036133       -0.14741926972299
o            5.40467056337034        7.64952007829994        1.37721967232566
h            5.47792123427473        7.67923879664294        0.40870007988175
h            6.30614364783445        7.59102892832645        1.73672010767232
o           -7.69788128521312        1.40011784520121       -2.95275301735205
h           -7.54073062879318        1.81530581148102       -3.81549417150975
h           -8.21264422495518        2.07100904545788       -2.44719633035653
o            2.93646519656364        6.56412377349997        3.99495454825991
h            2.92189247691542        7.45081626893528        3.57848461169856
h            3.53594417854550        6.03144607992033        3.41541766002751
o            5.17255510010547        1.73079771642144       -6.17827488319770
h            5.05057485242259        1.32941716986084       -5.28199310545216
h            4.34808003689813        2.21829108319332       -6.33086441234120
o           -0.91788176744151       -6.49557068985986        3.75833106971282
h           -1.45238691845162       -7.32693495652869        3.65997152583853
h           -1.56485001851787       -5.84855712598823        4.12845325987436
o            4.68440169039522        5.12594557773000       -0.65249867126310
h            4.74210274754174        4.22240436335750       -0.29541551099217
h            4.02988266091923        5.60206581275703       -0.10039312278604
o           -6.27783032706118       -0.89712252646743        0.06086054835332
h           -6.18993445631623       -1.10991472952531       -0.89046720288528
h           -6.99969197558921       -1.42078587498348        0.42783844750646
o            5.86748578793187        1.83906997147644        6.43124769672750
h            6.25104266714662        1.16978407687093        7.04090144916605
h            6.56219890727856        2.04160058188639        5.78598027889365
o           -7.23589264097487       -0.91750340927696        5.45026427314048
h           -7.94282186268805       -0.34368337911423        5.11886212418686
h           -6.87338676570758       -1.43148869839080        4.70505499507864
o           -4.51162143502484        6.50740155016217        4.17483706887081
h           -4.39694473796456        5.90058163536138        4.91772103934826
h           -3.73432105904044        7.09730366043325        4.17989851140123
o           -9.25809195366127        2.75684690272797        1.50868809852837
h           -8.62899126962761        2.26833421745067        0.93971484031617
h           -8.74409508554839        3.37962756634789        2.04532783724061
o           -2.90285626818162        2.31042828624542        7.49167046784493
h           -3.09750572612245        1.66381369063600        6.77209552460488
h           -2.76220386043106        1.77404464410913        8.27314110244211
o            1.88773190446182       -2.35580477073532        7.63874903039950
h            1.87140944187630       -1.38482233342021        7.83734555837436
h            1.02916233681726       -2.68427976046044        7.93412883889483
o            1.37023296327402       -7.05234496320401        5.28983826092408
h            1.71018803863397       -6.23708080834218        5.68502334276021
h            0.48507343969651       -6.85634019268871        4.94494878932200
o            0.76636402139907        4.81545049623672       -7.23188146694745
h            1.54567466449704        5.16802352372600       -7.66116615001969
h            0.76888923886462        3.85809301895764       -7.40462879662020
o            3.52770516270974        2.65625679756013       -1.66602753263061
h            4.31218999142785        2.16406900202398       -1.37018948047780
h            2.97458477942672        2.00256695040774       -2.14853001016562
o            7.09152008696956        2.46900853013245       -3.38345659089262
h            6.20464298945120        2.82968846736986       -3.58687177832049
h            7.62588764249236        3.24506830813206       -3.16548169601587
o            3.19284936127656        8.33653297076115       -2.11769621382611
h            4.10490137185940        8.18999181045644       -1.79049749118307
h            3.24834105822871        8.71698920396341       -2.99342617537882
o            4.84534733676294        5.84406925750427        5.87286626813296
h            4.41167818659727        5.01524723089997        6.16561617807248
h            4.18324845299040        6.31777071685558        5.34697319002376
o            5.20859108056199        2.67785888265603        3.28839496891230
h            5.45609246449980        1.79883852680915        3.63745773692716
h            5.70782804514462        3.32718439411365        3.79547506636688
o            5.17912378849596       -4.01552892985121        0.01105159747484
h            6.05064615893881       -3.79699541602579       -0.34449551993877
h            5.30662572836695       -4.82984319990137        0.54142882026807
o            4.06150563408525       -4.54071340992572        2.98122870851010
h            3.50324381747947       -4.07645629919852        2.33537839733068