 Entering Gaussian System
 *********************************************
 Gaussian 98:
 frequency output generated by the xtb code
 *********************************************
                         Standard orientation:
 --------------------------------------------------------------------
  Center     Atomic     Atomic              Coordinates (Angstroms)
  Number     Number      Type              X           Y           Z
 --------------------------------------------------------------------
    1          8             0        0.571260   -3.833585   -0.855862
    2          1             0       -0.273361   -3.858466   -0.380046
    3          1             0        1.252251   -3.723796   -0.171185
    4          8             0       -3.285702    1.564198    0.135919
    5          1             0       -2.464679    1.229472    0.552290
    6          1             0       -3.174551    2.536803    0.128017
    7          8             0        0.352852    0.495206   -0.837979
    8          1             0        0.209149    1.397144   -0.493244
    9          1             0       -0.524701    0.086522   -0.962734
   10          8             0       -1.738538   -0.928181   -1.760803
   11          1             0       -1.277844   -1.384771   -2.468078
   12          1             0       -2.303197   -0.214025   -2.175203
   13          8             0       -3.152332    1.092217   -2.545382
   14          1             0       -3.407180    1.293024   -1.625603
   15          1             0       -2.508520    1.790210   -2.785216
   16          8             0        1.207878   -1.676555   -2.312803
   17          1             0        0.980667   -2.531453   -1.886450
   18          1             0        0.992927   -1.004943   -1.647432
   19          8             0       -1.367527   -3.014522    3.072749
   20          1             0       -1.538402   -3.446955    2.203685
   21          1             0       -1.200977   -3.710281    3.708407
   22          8             0        4.228464    0.530908    1.542226
   23          1             0        3.407192    0.551707    2.105609
   24          1             0        4.933506    0.890963    2.079929
   25          8             0        0.305075    2.647440    2.428987
   26          1             0       -0.146136    3.174714    3.088047
   27          1             0       -0.324933    1.929045    2.159344
   28          8             0       -2.453182    4.101372   -0.196262
   29          1             0       -1.504604    3.887240   -0.133119
   30          1             0       -2.603892    4.342819   -1.113132
   31          8             0       -3.469983   -2.400207   -0.320589
   32          1             0       -2.875341   -1.856170   -0.877747
   33          1             0       -3.910771   -1.776317    0.279607
   34          8             0        4.414286   -1.892611    0.289764
   35          1             0        4.407565   -1.046896    0.775779
   36          1             0        4.266868   -1.652925   -0.643530
   37          8             0       -1.791819   -4.090217    0.675729
   38          1             0       -2.447527   -3.432950    0.291958
   39          1             0       -2.168064   -4.956143    0.515604
   40          8             0        2.369600   -3.238789    1.140893
   41          1             0        3.156093   -2.729810    0.783830
   42          1             0        2.730079   -3.859816    1.773502
   43          8             0        0.139408    3.148640   -0.256366
   44          1             0        0.968767    3.331689   -0.780551
   45          1             0        0.395627    3.149773    0.680785
   46          8             0       -2.783646   -0.602484    3.306860
   47          1             0       -3.557664   -0.661618    2.724866
   48          1             0       -2.376229   -1.481567    3.320734
   49          8             0        3.984906    1.438467   -1.072429
   50          1             0        3.915815    0.608772   -1.565048
   51          1             0        4.044975    1.187306   -0.137459
   52          8             0        0.535260   -1.375202    1.895326
   53          1             0        1.190397   -2.001685    1.537838
   54          1             0       -0.082745   -1.905040    2.423442
   55          8             0        2.213233    3.312012   -1.825855
   56          1             0        2.927635    2.733046   -1.485161
   57          1             0        1.884854    2.843129   -2.605754
   58          8             0        2.073016    0.580356    3.026110
   59          1             0        1.580677    1.400007    2.858287
   60          1             0        1.514766   -0.138490    2.671383
   61          8             0       -1.162946    2.901998   -2.829669
   62          1             0       -0.769755    3.063589   -1.962481
   63          1             0       -0.477076    2.426888   -3.322054
   64          8             0       -1.216013    0.662469    1.601747
   65          1             0       -0.548578   -0.020511    1.407529
   66          1             0       -1.774867    0.277636    2.321084
   67          8             0       -4.661562   -0.443353    1.255905
   68          1             0       -5.608267   -0.309861    1.208727
   69          1             0       -4.246942    0.344799    0.838656
   70          8             0        0.997491    1.265223   -3.346438
   71          1             0        1.314198    0.503058   -3.831971
   72          1             0        0.845724    0.946082   -2.426753
   73          8             0        3.779431   -1.135542   -2.265704
   74          1             0        4.220815   -1.525410   -3.019614
   75          1             0        2.819182   -1.384743   -2.330432
 --------------------------------------------------------------------
     1 basis functions        1 primitive gaussians
     1 alpha electrons        1 beta electrons
 
 Harmonic frequencies (cm**-1), IR intensities (km*mol⁻¹),
 Raman scattering activities (A**4/amu), Raman depolarization ratios,
 reduced masses (AMU), force constants (mDyne/A) and normal coordinates:
                      1                      2                      3
                        a                      a                      a 
 Frequencies --    23.3593                26.0585                30.1675
 Red. masses --    14.2809                14.3385                14.3412
 Frc consts  --     0.0000                 0.0000                 0.0000
 IR Inten    --     1.5068                 0.5752                 0.4180
 Raman Activ --     0.0000                 0.0000                 0.0000
 Depolar     --     0.0000                 0.0000                 0.0000
 Atom AN      X      Y      Z        X      Y      Z        X      Y      Z
   1   8     0.05   0.14  -0.04     0.18  -0.15   0.07    -0.02   0.04   0.05
   2   1     0.01   0.04  -0.01     0.04  -0.04   0.01    -0.00   0.02   0.01
   3   1     0.01   0.02  -0.01     0.03  -0.01   0.03    -0.00   0.02   0.01
   4   8    -0.01   0.00   0.02     0.12   0.10   0.09     0.08  -0.09  -0.06
   5   1     0.00  -0.01  -0.02     0.02   0.03   0.04     0.02  -0.04  -0.02
   6   1     0.00  -0.00   0.02     0.02   0.03   0.02     0.03  -0.02   0.01
   7   8    -0.13  -0.06  -0.27    -0.22  -0.10   0.07     0.08  -0.12  -0.07
   8   1    -0.03  -0.02  -0.05    -0.05  -0.02   0.01     0.03  -0.04   0.00
   9   1    -0.03  -0.02  -0.06    -0.06  -0.01  -0.01     0.02  -0.02  -0.01
  10   8    -0.20   0.02  -0.21    -0.17   0.06  -0.29     0.02  -0.04  -0.06
  11   1    -0.09  -0.00  -0.07    -0.04   0.05  -0.09     0.00  -0.01  -0.01
  12   1    -0.05   0.02  -0.03    -0.05   0.03  -0.04     0.01  -0.00  -0.02
  13   8    -0.17   0.12  -0.00    -0.15   0.21   0.06     0.07   0.00  -0.08
  14   1    -0.03   0.02   0.01    -0.00   0.04   0.03     0.01  -0.01  -0.02
  15   1    -0.04   0.03  -0.00    -0.03   0.04   0.01     0.02   0.00  -0.01
  16   8     0.21   0.04  -0.15    -0.11  -0.08   0.09    -0.02  -0.09  -0.16
  17   1     0.04   0.02  -0.03    -0.01  -0.03   0.02    -0.00  -0.02  -0.02
  18   1     0.02   0.02  -0.06    -0.04  -0.03   0.03    -0.00  -0.01  -0.05
  19   8     0.04  -0.01   0.04     0.02  -0.02  -0.11    -0.17   0.01   0.14
  20   1     0.01   0.01   0.00     0.01  -0.00  -0.03    -0.03   0.01   0.03
  21   1     0.01  -0.01  -0.00     0.00  -0.01  -0.03    -0.09  -0.01   0.03
  22   8     0.02   0.01   0.15     0.07   0.07  -0.00    -0.15   0.21  -0.17
  23   1     0.00   0.00   0.04     0.02   0.02   0.00    -0.02   0.04  -0.01
  24   1     0.00   0.01   0.04     0.02   0.02  -0.00    -0.02   0.05  -0.06
  25   8    -0.02  -0.10  -0.09     0.12   0.13   0.06    -0.10  -0.13   0.08
  26   1    -0.02  -0.02  -0.03     0.04   0.05   0.01    -0.05  -0.03  -0.00
  27   1     0.00  -0.03  -0.03     0.02   0.03   0.04    -0.01  -0.04   0.00
  28   8     0.02  -0.00   0.12     0.08   0.11   0.07     0.15  -0.08   0.23
  29   1     0.00  -0.01   0.01     0.02   0.01   0.01     0.04  -0.03   0.04
  30   1    -0.01   0.02   0.04     0.02   0.03   0.02     0.03   0.01   0.07
  31   8    -0.07   0.10   0.07     0.04  -0.12  -0.23    -0.03   0.02  -0.05
  32   1    -0.03   0.02  -0.00    -0.01  -0.03  -0.07    -0.01   0.00  -0.01
  33   1    -0.01   0.03   0.02     0.01  -0.03  -0.06    -0.01   0.01  -0.02
  34   8     0.11  -0.04   0.25     0.03   0.04   0.04    -0.14   0.17  -0.07
  35   1     0.02  -0.01   0.06     0.01   0.01   0.01    -0.04   0.05  -0.03
  36   1     0.04  -0.02   0.06    -0.01   0.00   0.01    -0.03   0.03  -0.02
  37   8     0.04   0.15  -0.03     0.07  -0.02  -0.12    -0.02   0.10   0.07
  38   1     0.00   0.03   0.00     0.02  -0.01  -0.04    -0.01   0.02   0.01
  39   1     0.02   0.03  -0.02     0.02  -0.01  -0.02     0.00   0.02   0.01
  40   8     0.05  -0.09   0.04     0.04   0.08   0.13    -0.01   0.05   0.04
  41   1     0.02  -0.02   0.03     0.01   0.02   0.03    -0.02   0.03   0.00
  42   1     0.00  -0.04  -0.01     0.01   0.03   0.04     0.02   0.00  -0.01
  43   8    -0.04  -0.10  -0.08    -0.00  -0.08   0.02     0.10  -0.16   0.07
  44   1    -0.01  -0.03  -0.02    -0.00  -0.03  -0.00     0.02  -0.02   0.02
  45   1    -0.00  -0.03  -0.02     0.01  -0.01   0.00     0.02  -0.04   0.02
  46   8     0.13   0.04   0.03    -0.08  -0.10  -0.05    -0.13   0.04  -0.03
  47   1     0.02   0.01   0.02    -0.00  -0.02  -0.04    -0.03   0.01  -0.01
  48   1     0.02   0.01   0.01    -0.01  -0.02  -0.02    -0.04   0.01   0.01
  49   8    -0.06  -0.06   0.12     0.04  -0.03  -0.04     0.11   0.05  -0.24
  50   1     0.01  -0.02   0.04    -0.00  -0.01   0.00     0.01   0.01  -0.05
  51   1    -0.01  -0.00   0.03     0.02   0.00  -0.01     0.00   0.02  -0.06
  52   8     0.10  -0.05   0.05     0.04   0.10   0.09     0.07  -0.05   0.42
  53   1     0.02  -0.02   0.02     0.01   0.03   0.02     0.01  -0.01   0.08
  54   1     0.02  -0.01   0.01     0.00   0.02   0.01     0.01  -0.02   0.09
  55   8    -0.04  -0.11  -0.07    -0.07  -0.16  -0.07     0.01   0.03  -0.02
  56   1    -0.01  -0.03  -0.01    -0.01  -0.03  -0.02     0.02   0.01  -0.03
  57   1    -0.01  -0.03  -0.02    -0.02  -0.06  -0.00    -0.01   0.02  -0.01
  58   8    -0.01  -0.02   0.12     0.10   0.09   0.03     0.09   0.09   0.18
  59   1    -0.00  -0.01   0.02     0.03   0.02   0.01    -0.00   0.01   0.05
  60   1     0.01  -0.01   0.03     0.02   0.02   0.02     0.03   0.00   0.08
  61   8    -0.14   0.08  -0.03    -0.02   0.05  -0.01     0.05   0.05   0.07
  62   1    -0.02   0.00  -0.01    -0.00   0.01  -0.00     0.01  -0.01   0.02
  63   1    -0.04   0.03  -0.03    -0.02  -0.00  -0.00     0.01   0.02   0.01
  64   8     0.06  -0.13  -0.15     0.04   0.12   0.21     0.04  -0.18  -0.05
  65   1     0.02  -0.03  -0.03     0.01   0.03   0.04     0.02  -0.05   0.03
  66   1     0.02  -0.02  -0.03     0.00   0.01   0.04    -0.01  -0.02  -0.02
  67   8     0.00   0.08   0.15     0.11  -0.08  -0.23    -0.07   0.02  -0.09
  68   1     0.00   0.02   0.04     0.03  -0.02  -0.06    -0.01   0.01  -0.04
  69   1    -0.00   0.02   0.03     0.03  -0.01  -0.03    -0.00  -0.00  -0.02
  70   8    -0.14   0.09  -0.21    -0.15  -0.17   0.06     0.02   0.06  -0.04
  71   1     0.00   0.04  -0.06    -0.02  -0.04   0.03     0.01   0.03  -0.02
  72   1    -0.05   0.01  -0.06    -0.05  -0.04   0.02     0.01  -0.00  -0.02
  73   8     0.22  -0.09   0.21    -0.12  -0.05   0.06    -0.04   0.01  -0.15
  74   1     0.07  -0.01   0.06    -0.04  -0.02   0.02     0.00  -0.01  -0.02
  75   1     0.05  -0.01   0.03    -0.03  -0.01   0.02    -0.01  -0.01  -0.04
                      4                      5                      6
                        a                      a                      a 
 Frequencies --    33.2132                35.7795                36.1663
 Red. masses --    14.3993                14.2735                14.4730
 Frc consts  --     0.0000                 0.0000                 0.0000
 IR Inten    --     0.8910                 0.8965                 0.0566
 Raman Activ --     0.0000                 0.0000                 0.0000
 Depolar     --     0.0000                 0.0000                 0.0000
 Atom AN      X      Y      Z        X      Y      Z        X      Y      Z
   1   8     0.00  -0.04  -0.15    -0.19   0.11  -0.20     0.04  -0.21   0.03
   2   1    -0.00  -0.01  -0.05    -0.05   0.03  -0.05     0.01  -0.04   0.01
   3   1    -0.01  -0.00  -0.03    -0.05   0.03  -0.05     0.01  -0.04   0.00
   4   8    -0.10   0.16   0.17     0.16  -0.11  -0.03     0.07   0.05  -0.06
   5   1    -0.03   0.03   0.04     0.04  -0.01   0.02     0.02   0.01  -0.02
   6   1    -0.00   0.04   0.03     0.02  -0.03  -0.02     0.03   0.01  -0.01
   7   8     0.13  -0.13   0.11    -0.10  -0.09   0.01    -0.07  -0.08  -0.07
   8   1     0.03  -0.03   0.01    -0.03  -0.02   0.00    -0.00  -0.02  -0.02
   9   1     0.03  -0.03   0.03    -0.02  -0.03   0.01    -0.02  -0.00  -0.03
  10   8     0.02   0.01   0.16    -0.03  -0.23   0.02    -0.12   0.03  -0.13
  11   1    -0.02  -0.00   0.03    -0.01  -0.06   0.01    -0.04   0.00  -0.04
  12   1    -0.00   0.01   0.05     0.00  -0.05  -0.00    -0.03   0.01  -0.03
  13   8    -0.04  -0.03   0.23     0.06  -0.18  -0.03    -0.09   0.07  -0.08
  14   1    -0.01   0.01   0.06     0.02  -0.04  -0.01    -0.01   0.02  -0.02
  15   1    -0.01  -0.01   0.04     0.01  -0.04  -0.02    -0.01   0.00  -0.02
  16   8     0.21  -0.00  -0.02     0.07   0.09  -0.13    -0.17  -0.18  -0.01
  17   1     0.04  -0.01  -0.03     0.00   0.02  -0.05    -0.02  -0.05  -0.00
  18   1     0.05  -0.01   0.01     0.00   0.01  -0.03    -0.06  -0.05  -0.00
  19   8    -0.03  -0.13  -0.17    -0.04   0.05  -0.07     0.04  -0.06   0.03
  20   1    -0.01  -0.03  -0.05    -0.01   0.02  -0.02     0.01  -0.01   0.01
  21   1     0.00  -0.04  -0.05    -0.03   0.00  -0.02     0.03  -0.01   0.01
  22   8    -0.17   0.21  -0.03     0.17  -0.08   0.13    -0.12   0.04   0.16
  23   1    -0.04   0.04  -0.01     0.04  -0.00   0.03    -0.03  -0.01   0.04
  24   1    -0.05   0.05  -0.00     0.05  -0.04   0.03    -0.03   0.00   0.05
  25   8    -0.09   0.08  -0.01     0.18   0.08   0.03     0.03  -0.08  -0.03
  26   1    -0.03   0.04  -0.02     0.06   0.03   0.01    -0.00  -0.02  -0.02
  27   1    -0.02   0.02   0.00     0.04   0.02   0.03     0.01  -0.02  -0.02
  28   8     0.16   0.06   0.01    -0.05  -0.07  -0.14     0.12   0.04  -0.07
  29   1     0.04  -0.01  -0.01    -0.01  -0.01  -0.02     0.03  -0.00  -0.02
  30   1     0.04   0.01   0.00    -0.01  -0.03  -0.04     0.03   0.02  -0.02
  31   8    -0.11   0.08   0.07    -0.24  -0.07  -0.06     0.05   0.09   0.14
  32   1    -0.02   0.02   0.03    -0.05  -0.03  -0.01    -0.00   0.02   0.01
  33   1    -0.02   0.02   0.02    -0.04  -0.01  -0.01     0.02   0.03   0.04
  34   8    -0.02   0.16   0.11    -0.04  -0.01  -0.05    -0.10   0.18  -0.10
  35   1    -0.03   0.05   0.02     0.01  -0.01   0.01    -0.03   0.03  -0.00
  36   1     0.02   0.03   0.02    -0.00   0.02  -0.01    -0.05   0.07  -0.02
  37   8    -0.06  -0.06  -0.21    -0.11   0.05  -0.06     0.02  -0.02   0.02
  38   1    -0.02  -0.00  -0.02    -0.04  -0.00  -0.01     0.01   0.01   0.01
  39   1    -0.02  -0.01  -0.06    -0.01   0.00  -0.00    -0.01   0.00   0.00
  40   8    -0.06   0.08  -0.12    -0.15   0.05  -0.22     0.07  -0.04  -0.05
  41   1    -0.01   0.03  -0.01    -0.03   0.01  -0.04     0.00   0.01  -0.02
  42   1    -0.02   0.02  -0.02    -0.05  -0.01  -0.07     0.04   0.00  -0.01
  43   8     0.11  -0.10  -0.05    -0.07  -0.09  -0.01     0.03  -0.09  -0.04
  44   1     0.02  -0.03  -0.02    -0.02  -0.02  -0.01     0.00  -0.01  -0.01
  45   1     0.03  -0.01  -0.01    -0.01  -0.01  -0.00     0.01  -0.02  -0.01
  46   8     0.02  -0.11   0.03    -0.02   0.05   0.05     0.15   0.01   0.06
  47   1    -0.00  -0.01   0.02     0.00   0.02   0.00     0.03   0.01   0.03
  48   1     0.00  -0.03  -0.01    -0.00   0.01   0.00     0.03  -0.00   0.01
  49   8     0.22   0.08  -0.12     0.04   0.12   0.20    -0.01   0.21   0.21
  50   1     0.06   0.01  -0.02     0.01   0.04   0.04    -0.03   0.06   0.04
  51   1     0.02   0.03  -0.02     0.02   0.02   0.05    -0.02   0.04   0.05
  52   8    -0.09   0.02  -0.07     0.09   0.10   0.22    -0.00  -0.09  -0.08
  53   1    -0.02   0.01  -0.03     0.00   0.03   0.02     0.00  -0.02  -0.01
  54   1    -0.02  -0.01  -0.03     0.01   0.02   0.04     0.00  -0.02  -0.02
  55   8     0.03  -0.13  -0.15    -0.06  -0.05   0.02    -0.00   0.09  -0.04
  56   1     0.03  -0.01  -0.04    -0.01   0.00   0.02     0.00   0.04   0.01
  57   1     0.00  -0.05  -0.03     0.00  -0.03   0.01     0.02   0.00  -0.00
  58   8    -0.15   0.03   0.00     0.18   0.10   0.14    -0.12  -0.15   0.15
  59   1    -0.04   0.01   0.01     0.05   0.02   0.02    -0.02  -0.03   0.03
  60   1    -0.03   0.01  -0.01     0.04   0.02   0.05    -0.02  -0.03   0.02
  61   8     0.02  -0.15   0.02    -0.02  -0.09  -0.06     0.11  -0.16  -0.10
  62   1     0.01  -0.03  -0.00    -0.01  -0.02  -0.01     0.02  -0.03  -0.02
  63   1    -0.00  -0.05   0.00    -0.00  -0.02  -0.01     0.04  -0.04  -0.01
  64   8    -0.07   0.04   0.05     0.10   0.09   0.19     0.04  -0.05  -0.08
  65   1    -0.02   0.01   0.00     0.03   0.02   0.06     0.01  -0.01  -0.03
  66   1    -0.01  -0.00   0.01     0.01   0.02   0.04     0.02  -0.01  -0.01
  67   8    -0.07   0.07   0.12     0.03   0.03   0.01     0.09   0.13   0.12
  68   1    -0.02   0.01   0.04     0.01   0.04   0.02     0.02   0.03   0.03
  69   1    -0.02   0.02   0.04     0.03  -0.01  -0.01     0.02   0.03   0.02
  70   8    -0.04  -0.23   0.02    -0.01  -0.08   0.02     0.21  -0.09   0.02
  71   1    -0.03  -0.07   0.01    -0.02  -0.03   0.01     0.05  -0.02   0.00
  72   1     0.01  -0.04   0.01    -0.02  -0.01   0.00     0.04  -0.03   0.00
  73   8     0.21   0.03   0.01     0.05   0.22   0.01    -0.27   0.32  -0.01
  74   1     0.06   0.01   0.01     0.02   0.08  -0.01    -0.05   0.09   0.00
  75   1     0.05   0.01  -0.00     0.02   0.04  -0.01    -0.06   0.03  -0.00
                      7                      8                      9
                        a                      a                      a 
 Frequencies --    40.5277                44.4852                47.2512
 Red. masses --    14.4457                14.3666                14.2288
 Frc consts  --     0.0000                 0.0000                 0.0000
 IR Inten    --     1.8113                 0.3126                 0.3524
 Raman Activ --     0.0000                 0.0000                 0.0000
 Depolar     --     0.0000                 0.0000                 0.0000
 Atom AN      X      Y      Z        X      Y      Z        X      Y      Z
   1   8    -0.00  -0.02   0.03    -0.01  -0.00  -0.11     0.11  -0.01   0.23
   2   1     0.00   0.01   0.01     0.01  -0.00  -0.01     0.02   0.02   0.05
   3   1     0.01  -0.00   0.00     0.01   0.00  -0.04     0.02  -0.01   0.06
   4   8    -0.16  -0.03  -0.03    -0.04   0.23   0.05     0.06   0.03  -0.02
   5   1    -0.04  -0.01  -0.01    -0.01   0.05   0.01     0.01   0.00  -0.01
   6   1    -0.03  -0.01  -0.01    -0.00   0.06   0.01     0.02   0.01  -0.00
   7   8    -0.15  -0.10  -0.03     0.06  -0.11  -0.07     0.04   0.01   0.07
   8   1    -0.04  -0.03   0.00     0.01  -0.03   0.00     0.00   0.00   0.01
   9   1    -0.04  -0.02  -0.02     0.02  -0.03  -0.01     0.01  -0.00   0.01
  10   8    -0.17  -0.02  -0.11     0.02  -0.08  -0.02     0.04   0.03   0.08
  11   1    -0.05  -0.01  -0.03    -0.02  -0.01  -0.02     0.01  -0.00   0.02
  12   1    -0.04   0.01  -0.02    -0.01  -0.02   0.02     0.00  -0.00   0.01
  13   8    -0.05   0.09  -0.05    -0.10  -0.12   0.15    -0.08  -0.09  -0.00
  14   1    -0.02   0.02  -0.01    -0.01  -0.01   0.04    -0.01  -0.02  -0.00
  15   1     0.00   0.02   0.00    -0.03  -0.03   0.02    -0.02  -0.02  -0.01
  16   8     0.05  -0.03   0.02     0.13  -0.03  -0.13     0.13  -0.02   0.21
  17   1     0.01  -0.01   0.00     0.02  -0.01  -0.04     0.04  -0.00   0.06
  18   1    -0.01  -0.01   0.00     0.02  -0.01  -0.03     0.03  -0.00   0.05
  19   8     0.04   0.12   0.09    -0.06   0.21   0.16    -0.23  -0.03  -0.08
  20   1     0.01   0.03   0.03     0.00   0.02   0.05    -0.05   0.00  -0.03
  21   1     0.01   0.03   0.02    -0.01   0.08   0.07    -0.10  -0.02  -0.02
  22   8     0.27  -0.00  -0.03    -0.01  -0.07   0.04     0.20   0.01  -0.08
  23   1     0.05   0.01  -0.04    -0.00  -0.03   0.01     0.05  -0.02  -0.02
  24   1     0.05  -0.02   0.02    -0.01  -0.01   0.01     0.04   0.01  -0.01
  25   8    -0.17  -0.08   0.09     0.11  -0.06   0.09     0.17  -0.19  -0.04
  26   1    -0.04  -0.03   0.03     0.03  -0.01   0.02     0.06  -0.06   0.01
  27   1    -0.04  -0.02   0.02     0.01  -0.00   0.02     0.03  -0.04  -0.01
  28   8    -0.05  -0.08  -0.06     0.14   0.20   0.13    -0.03   0.06   0.02
  29   1    -0.01  -0.02   0.00     0.03   0.02   0.03    -0.01   0.02   0.00
  30   1     0.00  -0.03  -0.02     0.04   0.06   0.04    -0.01   0.02   0.01
  31   8    -0.07   0.02   0.08     0.17  -0.16   0.07    -0.17   0.15  -0.05
  32   1    -0.03   0.00   0.01     0.04  -0.05   0.01    -0.03   0.03   0.00
  33   1    -0.02   0.01   0.02     0.02  -0.03  -0.01    -0.04   0.04  -0.01
  34   8     0.08   0.01  -0.08     0.04  -0.01  -0.05     0.15   0.01  -0.06
  35   1     0.04  -0.00  -0.01     0.01  -0.01  -0.01     0.05   0.00  -0.02
  36   1     0.01   0.01  -0.02     0.02   0.00  -0.01     0.03   0.01  -0.01
  37   8     0.02   0.11   0.11     0.17  -0.05   0.24    -0.15   0.10  -0.14
  38   1     0.00   0.02   0.02     0.04  -0.02   0.05    -0.04   0.03  -0.03
  39   1     0.01   0.03   0.03     0.05  -0.02   0.08    -0.03   0.03  -0.06
  40   8     0.05   0.08  -0.04    -0.04   0.07  -0.12     0.22   0.01   0.16
  41   1     0.01   0.01  -0.02    -0.00   0.01  -0.02     0.04   0.00   0.02
  42   1     0.01   0.03  -0.00    -0.02   0.02  -0.02     0.07   0.02   0.05
  43   8    -0.03  -0.12   0.08    -0.01  -0.14   0.06    -0.08   0.03   0.01
  44   1     0.01  -0.04   0.04    -0.01  -0.02   0.01    -0.03   0.01  -0.01
  45   1    -0.03  -0.03   0.03     0.01  -0.03   0.01    -0.01  -0.00  -0.00
  46   8    -0.12   0.02   0.04    -0.18   0.16  -0.13    -0.12   0.02  -0.06
  47   1    -0.03  -0.00   0.01    -0.03   0.03  -0.05    -0.03   0.02  -0.01
  48   1    -0.02   0.01   0.01    -0.04   0.05  -0.01    -0.04   0.00  -0.02
  49   8     0.48   0.07  -0.02    -0.13   0.02   0.08    -0.13   0.15  -0.01
  50   1     0.08   0.02  -0.01    -0.01   0.01   0.01    -0.01   0.04  -0.01
  51   1     0.12   0.01  -0.01    -0.03  -0.00   0.02    -0.00   0.03  -0.01
  52   8    -0.03   0.04  -0.15    -0.10   0.03  -0.16    -0.01  -0.16   0.01
  53   1    -0.01   0.01  -0.03    -0.03   0.00  -0.04     0.01  -0.04   0.02
  54   1     0.01   0.02  -0.01    -0.02   0.02  -0.02    -0.01  -0.04  -0.00
  55   8     0.10  -0.17   0.24    -0.08   0.03  -0.00    -0.17   0.08  -0.08
  56   1     0.05  -0.02   0.04    -0.02   0.01   0.00    -0.04   0.03  -0.01
  57   1     0.03  -0.05   0.06    -0.02   0.01  -0.00    -0.04   0.01  -0.01
  58   8     0.08   0.03  -0.29    -0.02  -0.18   0.03     0.16  -0.20  -0.13
  59   1     0.01   0.00  -0.05     0.01  -0.03   0.02     0.04  -0.05  -0.03
  60   1     0.02   0.01  -0.07    -0.01  -0.03  -0.02     0.03  -0.05  -0.03
  61   8     0.05   0.01   0.05    -0.10  -0.14   0.10    -0.08  -0.12  -0.01
  62   1     0.02  -0.01   0.01    -0.03  -0.05   0.03    -0.03  -0.02  -0.00
  63   1     0.01   0.01   0.00    -0.02  -0.02   0.02    -0.02  -0.03   0.01
  64   8    -0.16  -0.04  -0.04    -0.03   0.10  -0.04     0.02  -0.10  -0.01
  65   1    -0.04  -0.01  -0.01    -0.02   0.02  -0.01    -0.00  -0.03   0.00
  66   1    -0.04  -0.01  -0.01    -0.02   0.03  -0.02    -0.01  -0.02  -0.01
  67   8    -0.14  -0.00   0.05    -0.03   0.01  -0.29    -0.13   0.18  -0.04
  68   1    -0.04  -0.01   0.01    -0.01  -0.01  -0.10    -0.03   0.06  -0.02
  69   1    -0.04  -0.00   0.01    -0.01   0.02  -0.05    -0.01   0.04  -0.01
  70   8     0.08   0.00   0.06    -0.02   0.02  -0.04    -0.04  -0.08   0.04
  71   1     0.05   0.01   0.02     0.00   0.01  -0.02    -0.00  -0.02   0.02
  72   1    -0.01  -0.01   0.01     0.00  -0.01  -0.01     0.00  -0.01   0.01
  73   8     0.02   0.11  -0.03     0.11   0.06  -0.05     0.10   0.13  -0.02
  74   1     0.00   0.02  -0.00     0.04   0.03  -0.01     0.02   0.04  -0.01
  75   1     0.01   0.02   0.00     0.03   0.00  -0.02     0.03   0.02   0.02
                     10                     11                     12
                        a                      a                      a 
 Frequencies --    48.4367                49.7874                50.8544
 Red. masses --    14.4201                14.2475                14.5209
 Frc consts  --     0.0000                 0.0000                 0.0000
 IR Inten    --     1.1858                 1.0572                 0.2842
 Raman Activ --     0.0000                 0.0000                 0.0000
 Depolar     --     0.0000                 0.0000                 0.0000
 Atom AN      X      Y      Z        X      Y      Z        X      Y      Z
   1   8    -0.13   0.06   0.13    -0.04  -0.09   0.12    -0.03   0.01   0.07
   2   1    -0.03   0.00   0.04    -0.01  -0.02   0.02    -0.01  -0.01   0.01
   3   1    -0.02   0.00   0.03    -0.01  -0.01   0.03    -0.01   0.01   0.02
   4   8    -0.00  -0.08  -0.00     0.00  -0.04  -0.10    -0.14   0.10   0.14
   5   1    -0.00  -0.02  -0.00     0.00   0.00  -0.02    -0.03   0.00   0.01
   6   1    -0.00  -0.02   0.02    -0.01  -0.01  -0.02    -0.01   0.02   0.04
   7   8    -0.11   0.12  -0.10    -0.01  -0.10  -0.12     0.08   0.02  -0.09
   8   1    -0.02   0.03  -0.03     0.00  -0.03  -0.00     0.03   0.01  -0.03
   9   1    -0.03   0.02   0.01    -0.00  -0.03  -0.03     0.02   0.01  -0.01
  10   8    -0.05  -0.14   0.14    -0.03  -0.16   0.01    -0.05   0.04   0.16
  11   1     0.01  -0.04   0.05    -0.01  -0.05   0.01    -0.03   0.01   0.03
  12   1     0.01  -0.03   0.02     0.00  -0.04  -0.01    -0.03   0.01   0.05
  13   8     0.19  -0.02   0.00     0.06  -0.13  -0.08    -0.16  -0.04   0.18
  14   1     0.03  -0.00  -0.00     0.00  -0.03  -0.02    -0.03   0.01   0.04
  15   1     0.04   0.01   0.00     0.01  -0.03  -0.01    -0.03  -0.02   0.03
  16   8    -0.07   0.04   0.09    -0.01  -0.18  -0.01    -0.12  -0.07  -0.09
  17   1    -0.02   0.02   0.03    -0.00  -0.04   0.01    -0.02  -0.01  -0.01
  18   1    -0.02   0.02   0.01    -0.01  -0.03  -0.02    -0.03  -0.01  -0.03
  19   8    -0.01   0.03  -0.00     0.16   0.13  -0.24     0.11  -0.02  -0.09
  20   1    -0.02  -0.01   0.01     0.01   0.02  -0.05     0.02  -0.01  -0.02
  21   1     0.01   0.02   0.01     0.08   0.04  -0.06     0.02  -0.01  -0.02
  22   8     0.01   0.12   0.07    -0.05   0.14  -0.04     0.22  -0.08   0.10
  23   1    -0.00   0.00   0.01    -0.01   0.02   0.00     0.05   0.02   0.01
  24   1    -0.01   0.02   0.04    -0.01   0.06  -0.02     0.06  -0.03   0.03
  25   8     0.16  -0.02  -0.11     0.01   0.05   0.26    -0.13   0.04  -0.19
  26   1     0.04   0.01  -0.03    -0.01   0.01   0.06    -0.05   0.02  -0.07
  27   1     0.03   0.01  -0.03     0.00   0.02   0.04    -0.02  -0.01  -0.04
  28   8     0.09  -0.07   0.28     0.03  -0.02   0.11     0.09   0.05   0.19
  29   1     0.03  -0.02   0.04     0.00  -0.02   0.04     0.02   0.00   0.01
  30   1     0.00   0.02   0.08     0.03   0.01   0.03    -0.01   0.04   0.06
  31   8    -0.13  -0.22  -0.04    -0.23  -0.00  -0.05    -0.11  -0.08  -0.04
  32   1    -0.02  -0.05  -0.00    -0.05  -0.01  -0.01    -0.02  -0.01   0.01
  33   1    -0.03  -0.06  -0.01    -0.04   0.00  -0.00    -0.04  -0.02  -0.01
  34   8    -0.02   0.11   0.08     0.08   0.09   0.07     0.02  -0.05  -0.02
  35   1    -0.01   0.03   0.02     0.01   0.03   0.01     0.02  -0.02   0.00
  36   1    -0.01   0.03   0.02     0.02   0.01   0.01    -0.01  -0.00   0.00
  37   8    -0.14  -0.15   0.11    -0.20  -0.01  -0.10    -0.09  -0.06  -0.05
  38   1    -0.04  -0.05   0.01    -0.05  -0.01  -0.02    -0.03  -0.02  -0.01
  39   1    -0.02  -0.04   0.03    -0.05  -0.00  -0.02    -0.02  -0.02  -0.01
  40   8     0.05  -0.05   0.03     0.07   0.07   0.02     0.01   0.00   0.05
  41   1     0.01   0.00   0.01     0.02   0.01   0.01     0.00  -0.01   0.01
  42   1     0.02  -0.01   0.01     0.01   0.04   0.03     0.00  -0.01   0.00
  43   8     0.16   0.10  -0.08    -0.02  -0.16   0.18     0.06   0.03  -0.15
  44   1     0.04   0.01  -0.03    -0.01  -0.02   0.04     0.02   0.02  -0.03
  45   1     0.06   0.01  -0.03    -0.00  -0.03   0.04     0.00   0.00  -0.03
  46   8    -0.00   0.03  -0.09     0.14   0.08  -0.06    -0.05  -0.12  -0.19
  47   1     0.00  -0.00  -0.03     0.03   0.02  -0.01    -0.01  -0.03  -0.04
  48   1     0.00   0.01  -0.01     0.04   0.02  -0.03    -0.00  -0.03  -0.05
  49   8     0.23   0.14   0.04    -0.15  -0.09  -0.09    -0.05  -0.02   0.14
  50   1     0.03   0.03   0.02    -0.04  -0.03  -0.01    -0.03  -0.00   0.03
  51   1     0.04   0.04   0.01    -0.03  -0.01  -0.02     0.02  -0.01   0.03
  52   8    -0.05  -0.07  -0.19     0.06   0.16  -0.26     0.15   0.10   0.15
  53   1    -0.00  -0.02  -0.03     0.03   0.04  -0.05     0.03   0.02   0.03
  54   1    -0.01  -0.01  -0.04     0.01   0.04  -0.07     0.03   0.02   0.02
  55   8     0.09  -0.09  -0.20    -0.07   0.09   0.15     0.17   0.13   0.00
  56   1     0.04  -0.00  -0.04    -0.02   0.01   0.02     0.02   0.02   0.02
  57   1     0.01  -0.05  -0.03    -0.02   0.04   0.03     0.05   0.04  -0.01
  58   8    -0.06  -0.16  -0.02     0.01   0.01   0.06     0.11   0.27  -0.06
  59   1    -0.00  -0.03  -0.00     0.00   0.01   0.04     0.02   0.06  -0.03
  60   1    -0.01  -0.03  -0.03     0.00   0.01  -0.02     0.03   0.05   0.01
  61   8    -0.01   0.23  -0.03     0.01  -0.05   0.14    -0.03  -0.23   0.02
  62   1     0.02   0.07  -0.02    -0.01  -0.04   0.05    -0.01  -0.04   0.00
  63   1    -0.01   0.06  -0.02     0.01   0.01   0.03     0.01  -0.04   0.01
  64   8     0.04   0.03  -0.04     0.05   0.16  -0.07    -0.01  -0.08  -0.14
  65   1     0.00   0.00  -0.02     0.01   0.05  -0.03     0.01  -0.01  -0.02
  66   1     0.01   0.01  -0.01     0.02   0.03  -0.02    -0.00  -0.02  -0.04
  67   8    -0.02  -0.12  -0.08     0.02   0.07   0.07    -0.16  -0.06  -0.10
  68   1    -0.00  -0.02  -0.00     0.01   0.03   0.05    -0.04  -0.01  -0.02
  69   1    -0.00  -0.03  -0.02     0.01   0.01  -0.00    -0.04  -0.01  -0.00
  70   8    -0.16   0.03  -0.13     0.11   0.13  -0.01     0.24   0.10  -0.03
  71   1    -0.05   0.00  -0.03     0.06   0.06  -0.02     0.05   0.03  -0.02
  72   1    -0.05   0.01  -0.03     0.02   0.00  -0.01     0.05   0.01  -0.01
  73   8    -0.09   0.15   0.11    -0.02  -0.17   0.03    -0.14   0.02   0.04
  74   1    -0.02   0.05   0.02     0.00  -0.06   0.02    -0.02   0.02   0.01
  75   1    -0.02   0.03   0.03    -0.00  -0.05   0.01    -0.03  -0.01  -0.00
                     13                     14                     15
                        a                      a                      a 
 Frequencies --    53.6449                56.9647                57.6452
 Red. masses --    14.2757                14.3573                14.2660
 Frc consts  --     0.0000                 0.0000                 0.0000
 IR Inten    --     2.8108                 0.1349                 0.2677
 Raman Activ --     0.0000                 0.0000                 0.0000
 Depolar     --     0.0000                 0.0000                 0.0000
 Atom AN      X      Y      Z        X      Y      Z        X      Y      Z
   1   8    -0.02   0.12   0.10     0.34   0.03   0.06    -0.02  -0.05  -0.01
   2   1    -0.00   0.01   0.03     0.07   0.01  -0.00    -0.00  -0.01   0.00
   3   1    -0.00   0.02   0.02     0.07   0.03   0.03    -0.00  -0.01  -0.00
   4   8     0.06   0.26   0.12    -0.14  -0.02   0.01     0.18   0.14  -0.14
   5   1     0.01   0.06   0.03    -0.03  -0.01  -0.00     0.03   0.02  -0.02
   6   1     0.03   0.06  -0.02    -0.03  -0.01  -0.00     0.04   0.04  -0.01
   7   8    -0.10   0.05  -0.16     0.01  -0.02  -0.06    -0.07  -0.05   0.06
   8   1    -0.02   0.00  -0.02     0.01  -0.01  -0.01    -0.03  -0.01   0.00
   9   1    -0.02  -0.00  -0.01     0.00  -0.01   0.01    -0.01  -0.03   0.02
  10   8    -0.10  -0.14   0.09    -0.03  -0.08   0.15     0.03  -0.17   0.04
  11   1    -0.03  -0.03   0.02    -0.01  -0.03   0.05     0.02  -0.05   0.02
  12   1    -0.01  -0.02   0.03     0.01  -0.01   0.03     0.03  -0.03  -0.01
  13   8     0.07   0.02   0.19     0.15  -0.00   0.03     0.27  -0.06  -0.11
  14   1     0.03   0.02   0.05     0.01   0.00   0.00     0.06   0.00  -0.03
  15   1     0.02   0.00   0.03     0.03   0.01   0.02     0.05  -0.00  -0.04
  16   8    -0.02   0.03  -0.06    -0.07  -0.01  -0.12     0.02  -0.02   0.05
  17   1    -0.01   0.02   0.00     0.02  -0.00  -0.01     0.00  -0.01   0.01
  18   1    -0.02   0.02  -0.03    -0.01   0.00  -0.03     0.01  -0.01   0.02
  19   8     0.05  -0.17   0.03    -0.09   0.04  -0.13     0.16  -0.10   0.02
  20   1     0.01  -0.04   0.01     0.01   0.01  -0.04     0.03  -0.03   0.01
  21   1     0.01  -0.04   0.01    -0.03   0.01  -0.03     0.05  -0.02   0.00
  22   8    -0.04   0.09  -0.05    -0.11  -0.25   0.10     0.03  -0.08   0.02
  23   1    -0.00   0.01  -0.00    -0.02  -0.05   0.03    -0.00   0.01  -0.01
  24   1    -0.01   0.03  -0.02    -0.02  -0.06   0.01     0.00  -0.02   0.01
  25   8     0.01  -0.10   0.08     0.02   0.01   0.03    -0.27   0.06  -0.03
  26   1     0.01  -0.04   0.03     0.00   0.01  -0.00    -0.09   0.02  -0.02
  27   1     0.01  -0.03   0.02    -0.00   0.01   0.00    -0.05  -0.00   0.00
  28   8     0.01   0.19  -0.54     0.02  -0.09  -0.06     0.04   0.26   0.28
  29   1     0.00   0.06  -0.07     0.00  -0.02   0.00     0.01   0.03   0.02
  30   1     0.04  -0.05  -0.17     0.02  -0.04  -0.02    -0.02   0.13   0.09
  31   8    -0.09  -0.14   0.10    -0.09  -0.01   0.15    -0.01   0.05   0.21
  32   1    -0.02  -0.04   0.02    -0.03   0.00   0.03    -0.00  -0.01   0.03
  33   1    -0.02  -0.02   0.01    -0.03  -0.01   0.04     0.00   0.03   0.03
  34   8    -0.01   0.05   0.02     0.11  -0.05  -0.25     0.08  -0.05  -0.06
  35   1    -0.01   0.02  -0.00     0.02  -0.02  -0.05     0.02  -0.02  -0.01
  36   1    -0.01   0.01   0.00     0.00  -0.00  -0.06     0.02  -0.01  -0.01
  37   8    -0.05  -0.15   0.04     0.20   0.05  -0.19     0.00  -0.06   0.03
  38   1    -0.02  -0.04   0.02     0.02   0.00  -0.02    -0.00  -0.00   0.03
  39   1    -0.00  -0.04  -0.00     0.07   0.01  -0.06    -0.01  -0.01   0.00
  40   8     0.07  -0.03   0.08     0.12   0.21   0.19     0.05  -0.02  -0.08
  41   1     0.01  -0.00   0.02     0.03   0.02   0.00     0.02  -0.01  -0.02
  42   1     0.03  -0.01   0.01     0.04   0.08   0.07     0.01  -0.01  -0.02
  43   8    -0.04  -0.00   0.06     0.08  -0.03   0.00    -0.15  -0.04  -0.02
  44   1    -0.00  -0.00   0.03     0.02  -0.02  -0.00    -0.03  -0.02   0.00
  45   1    -0.02  -0.01   0.02     0.02  -0.00  -0.00    -0.04  -0.01  -0.00
  46   8    -0.00  -0.18  -0.09    -0.05   0.07  -0.03    -0.05  -0.19  -0.04
  47   1     0.00  -0.04  -0.03    -0.02   0.02   0.00    -0.01  -0.03  -0.01
  48   1    -0.00  -0.05  -0.02    -0.02   0.02  -0.02    -0.01  -0.05  -0.02
  49   8     0.07  -0.00  -0.09    -0.01  -0.12   0.14    -0.08  -0.02   0.06
  50   1     0.01  -0.00  -0.02    -0.01  -0.02   0.02    -0.01  -0.00   0.01
  51   1     0.01   0.01  -0.02    -0.02  -0.05   0.03    -0.01  -0.01   0.01
  52   8     0.03  -0.08   0.08    -0.04   0.10   0.04     0.07  -0.01   0.01
  53   1     0.01  -0.02   0.03     0.01   0.04   0.02     0.02   0.00  -0.00
  54   1     0.01  -0.02   0.02    -0.02   0.02  -0.01     0.03  -0.01   0.01
  55   8     0.00   0.02   0.12     0.06  -0.15  -0.04    -0.11  -0.08   0.04
  56   1     0.01   0.00   0.01     0.01  -0.04   0.00    -0.03  -0.02   0.01
  57   1    -0.00   0.02   0.02     0.01  -0.04  -0.01    -0.02  -0.02   0.01
  58   8     0.04  -0.07   0.06    -0.06  -0.01   0.20    -0.07   0.18  -0.12
  59   1     0.00  -0.02   0.02    -0.00   0.00   0.04    -0.03   0.04  -0.03
  60   1     0.01  -0.02   0.02    -0.02   0.01   0.05    -0.01   0.03  -0.02
  61   8    -0.00   0.10   0.00     0.02   0.15   0.02     0.04   0.18  -0.16
  62   1     0.02   0.00  -0.00     0.02   0.03   0.00    -0.02   0.04  -0.03
  63   1    -0.01   0.04  -0.03    -0.01   0.04  -0.01     0.02   0.03  -0.01
  64   8     0.03  -0.08   0.02    -0.05   0.08  -0.04    -0.05  -0.11   0.02
  65   1     0.01  -0.02   0.00    -0.01   0.02  -0.00    -0.00  -0.02   0.01
  66   1     0.00  -0.03  -0.01    -0.01   0.02  -0.01    -0.02  -0.04  -0.00
  67   8     0.03   0.09  -0.11    -0.16   0.03   0.09     0.02   0.28  -0.07
  68   1     0.01   0.04  -0.02    -0.04   0.01   0.03     0.01   0.09  -0.03
  69   1     0.01   0.03  -0.01    -0.04   0.00   0.01     0.03   0.06  -0.02
  70   8     0.01   0.19  -0.09    -0.14  -0.01  -0.10    -0.12  -0.08   0.04
  71   1     0.05   0.07  -0.02    -0.06  -0.01  -0.03    -0.06  -0.03   0.01
  72   1    -0.02   0.03  -0.03    -0.03  -0.00  -0.02    -0.03  -0.02   0.01
  73   8    -0.02  -0.04  -0.00    -0.08   0.06  -0.18     0.01   0.02  -0.02
  74   1    -0.00  -0.03   0.01    -0.02   0.04  -0.06    -0.00   0.02  -0.02
  75   1    -0.01  -0.00  -0.00    -0.02   0.01  -0.04     0.00   0.00   0.00
                     16                     17                     18
                        a                      a                      a 
 Frequencies --    60.3609                60.6622                63.9213
 Red. masses --    14.5257                14.1869                14.5095
 Frc consts  --     0.0000                 0.0000                 0.0000
 IR Inten    --     0.2307                 0.7275                 1.2364
 Raman Activ --     0.0000                 0.0000                 0.0000
 Depolar     --     0.0000                 0.0000                 0.0000
 Atom AN      X      Y      Z        X      Y      Z        X      Y      Z
   1   8     0.21  -0.09  -0.21    -0.07  -0.07  -0.12     0.01  -0.03   0.01
   2   1     0.05  -0.04  -0.06    -0.01  -0.01  -0.01     0.00  -0.01  -0.00
   3   1     0.04  -0.01  -0.04    -0.00  -0.01  -0.05    -0.00  -0.03   0.01
   4   8     0.06  -0.01  -0.10    -0.10  -0.03  -0.01     0.07   0.02  -0.12
   5   1     0.01  -0.00  -0.02    -0.02  -0.01  -0.01     0.02   0.01  -0.04
   6   1     0.01  -0.00  -0.02    -0.01  -0.01  -0.01     0.01   0.01  -0.03
   7   8    -0.03   0.03  -0.03     0.13   0.01   0.11     0.06   0.12   0.03
   8   1    -0.00   0.01  -0.00     0.04   0.00   0.03     0.01   0.03   0.02
   9   1    -0.01   0.01   0.00     0.02   0.01   0.04     0.01   0.03   0.01
  10   8    -0.00  -0.09   0.07     0.05   0.14   0.12     0.09   0.09   0.06
  11   1     0.01  -0.03   0.03     0.02   0.03   0.04     0.04   0.02   0.03
  12   1     0.00  -0.03   0.00     0.02   0.03   0.02    -0.00  -0.01   0.00
  13   8     0.01  -0.14  -0.08     0.07   0.10  -0.03    -0.23  -0.19  -0.09
  14   1    -0.00  -0.03  -0.02    -0.00   0.02  -0.01    -0.06  -0.04  -0.02
  15   1    -0.00  -0.03  -0.02     0.02   0.03   0.01    -0.06  -0.04  -0.02
  16   8    -0.18   0.02  -0.16    -0.19  -0.02  -0.05    -0.03   0.05   0.11
  17   1    -0.02  -0.00  -0.04    -0.04  -0.01  -0.02    -0.00   0.01   0.03
  18   1    -0.04  -0.00  -0.04    -0.02  -0.01   0.00     0.01   0.01   0.04
  19   8    -0.23  -0.05  -0.12     0.17   0.09   0.01     0.12   0.08  -0.11
  20   1    -0.01  -0.02  -0.03     0.03   0.02   0.01     0.02   0.01  -0.02
  21   1    -0.07  -0.00  -0.02     0.04   0.03   0.01     0.05   0.03  -0.02
  22   8     0.23   0.18  -0.02     0.15   0.18   0.10    -0.12  -0.08   0.01
  23   1     0.05   0.03  -0.02     0.04   0.03   0.03    -0.02  -0.00   0.02
  24   1     0.05   0.04   0.01     0.03   0.06   0.02    -0.01  -0.05  -0.00
  25   8     0.09  -0.01  -0.01     0.02  -0.19   0.09    -0.04   0.01   0.10
  26   1     0.04  -0.00   0.01     0.00  -0.07   0.04    -0.03  -0.02   0.03
  27   1     0.01   0.00   0.00     0.01  -0.04  -0.00     0.01  -0.00  -0.00
  28   8     0.00   0.03   0.08    -0.00  -0.10  -0.19    -0.08   0.09  -0.02
  29   1     0.00   0.01   0.01    -0.00  -0.01  -0.01    -0.02   0.04   0.01
  30   1    -0.00   0.02   0.02     0.03  -0.06  -0.06    -0.01   0.00  -0.01
  31   8     0.10  -0.00   0.28     0.04   0.09   0.04     0.08   0.07   0.01
  32   1     0.01  -0.00   0.05     0.01   0.03   0.02     0.03   0.02   0.01
  33   1     0.03   0.00   0.07    -0.02   0.02  -0.00     0.01   0.02  -0.00
  34   8    -0.14   0.02   0.23     0.13   0.14   0.15    -0.17  -0.06  -0.04
  35   1    -0.01   0.01   0.04     0.03   0.04   0.03    -0.05  -0.02  -0.00
  36   1    -0.04  -0.01   0.06     0.02   0.03   0.04    -0.04  -0.01  -0.01
  37   8     0.25  -0.15  -0.19     0.03   0.10   0.05     0.00  -0.03  -0.04
  38   1     0.05  -0.03  -0.01     0.01   0.03   0.01     0.01   0.00  -0.00
  39   1     0.06  -0.03  -0.06    -0.00   0.03   0.02    -0.01  -0.00  -0.00
  40   8    -0.15  -0.05   0.08     0.04   0.01  -0.25    -0.01  -0.22   0.07
  41   1    -0.03   0.00   0.05     0.02   0.02  -0.02    -0.01  -0.05   0.01
  42   1    -0.05  -0.02   0.02    -0.01  -0.02  -0.08     0.02  -0.06   0.01
  43   8    -0.00   0.02   0.01     0.07   0.01   0.10    -0.04   0.11   0.09
  44   1    -0.00   0.01   0.00     0.01  -0.00   0.01    -0.01   0.00   0.02
  45   1     0.00   0.00   0.00     0.02   0.00   0.02    -0.01   0.03   0.02
  46   8    -0.03   0.08   0.03    -0.11  -0.06  -0.14     0.09   0.06  -0.19
  47   1    -0.01   0.04   0.02    -0.03  -0.02  -0.03     0.02   0.02  -0.04
  48   1    -0.03   0.01  -0.01    -0.02  -0.01  -0.03     0.02   0.01  -0.04
  49   8     0.05   0.01  -0.07    -0.15  -0.06   0.04     0.35   0.04  -0.01
  50   1    -0.01  -0.01   0.01    -0.05  -0.03   0.03     0.06   0.01  -0.01
  51   1     0.04   0.03  -0.02    -0.01   0.01   0.01     0.04   0.00  -0.00
  52   8    -0.12  -0.03   0.04     0.15   0.04  -0.03     0.18   0.02   0.01
  53   1    -0.04  -0.02   0.01     0.03   0.01  -0.03     0.04  -0.01   0.01
  54   1    -0.04   0.00   0.00     0.04   0.01  -0.00     0.03   0.02  -0.01
  55   8     0.03   0.06   0.05    -0.08  -0.09  -0.11     0.00  -0.22   0.09
  56   1     0.01   0.01   0.00    -0.02  -0.03  -0.02     0.02  -0.04   0.01
  57   1     0.01   0.03   0.01    -0.02  -0.02  -0.03    -0.00  -0.06   0.03
  58   8     0.11  -0.03  -0.19     0.14  -0.04   0.10    -0.00   0.06   0.18
  59   1     0.02  -0.01  -0.04     0.02  -0.02   0.03    -0.01   0.01   0.04
  60   1     0.02  -0.01  -0.03     0.05  -0.01   0.01     0.01   0.01   0.04
  61   8    -0.07  -0.02   0.04     0.10   0.09   0.03    -0.24  -0.14   0.18
  62   1    -0.02  -0.01   0.01     0.03   0.02   0.00    -0.05  -0.04   0.04
  63   1    -0.01   0.01   0.01     0.01  -0.01   0.01    -0.06  -0.02   0.03
  64   8    -0.01   0.05   0.02    -0.03  -0.09  -0.09     0.13  -0.01  -0.18
  65   1    -0.01   0.01   0.01     0.00  -0.02  -0.01     0.04   0.00  -0.03
  66   1    -0.01   0.02   0.01    -0.02  -0.02  -0.03     0.03  -0.00  -0.05
  67   8    -0.02   0.14   0.06    -0.21   0.02  -0.07     0.01   0.11  -0.10
  68   1    -0.00   0.03  -0.01    -0.05   0.01  -0.03     0.00   0.04  -0.03
  69   1     0.00   0.02  -0.00    -0.04   0.00  -0.01     0.01   0.02  -0.02
  70   8     0.00   0.12  -0.01    -0.18  -0.20  -0.02    -0.21  -0.03  -0.04
  71   1    -0.02   0.03  -0.01    -0.12  -0.08  -0.01    -0.07  -0.01  -0.01
  72   1     0.00   0.02  -0.01    -0.01  -0.02   0.01    -0.03  -0.00  -0.00
  73   8    -0.16  -0.09   0.20    -0.16  -0.08   0.16    -0.03   0.08  -0.04
  74   1    -0.02  -0.02   0.06    -0.03   0.02   0.02    -0.01   0.02  -0.01
  75   1    -0.04  -0.01   0.01    -0.04  -0.02   0.02    -0.01   0.02  -0.00
                     19                     20                     21
                        a                      a                      a 
 Frequencies --    67.6781                69.4516                71.7922
 Red. masses --    14.5929                14.4227                14.3216
 Frc consts  --     0.0000                 0.0000                 0.0000
 IR Inten    --     1.2037                 0.0731                 0.1304
 Raman Activ --     0.0000                 0.0000                 0.0000
 Depolar     --     0.0000                 0.0000                 0.0000
 Atom AN      X      Y      Z        X      Y      Z        X      Y      Z
   1   8    -0.07   0.21   0.01    -0.15  -0.07   0.11     0.09  -0.11  -0.10
   2   1    -0.01   0.03   0.01    -0.04  -0.07   0.02     0.02  -0.01  -0.03
   3   1    -0.01   0.06  -0.01    -0.05   0.01   0.04     0.01  -0.05  -0.01
   4   8     0.12  -0.10  -0.17    -0.13  -0.03  -0.09    -0.04  -0.09   0.02
   5   1     0.02  -0.03  -0.02    -0.03  -0.00  -0.03    -0.01  -0.02   0.01
   6   1     0.03  -0.03  -0.03    -0.03  -0.01  -0.02    -0.01  -0.02   0.01
   7   8    -0.17   0.10   0.05     0.10  -0.04  -0.08    -0.16   0.02  -0.00
   8   1    -0.03   0.03   0.00     0.03  -0.02  -0.01    -0.04   0.01  -0.00
   9   1    -0.05   0.03   0.00     0.02  -0.01  -0.03    -0.04   0.00  -0.01
  10   8    -0.15   0.06   0.00     0.03   0.14  -0.10    -0.18  -0.02   0.03
  11   1    -0.02   0.01   0.01    -0.02   0.02  -0.03    -0.05  -0.01   0.01
  12   1    -0.05  -0.01  -0.02     0.00   0.03  -0.02    -0.03   0.00   0.00
  13   8    -0.24  -0.06  -0.21    -0.02   0.10  -0.12     0.04   0.11  -0.02
  14   1    -0.05  -0.02  -0.05    -0.02   0.01  -0.03     0.01   0.03  -0.01
  15   1    -0.04  -0.03  -0.05    -0.01   0.03  -0.01     0.02   0.02  -0.00
  16   8    -0.06   0.21   0.04     0.15  -0.12   0.06     0.17   0.06   0.19
  17   1    -0.02   0.05   0.00     0.01  -0.02   0.02     0.04   0.01   0.03
  18   1    -0.01   0.05   0.01     0.03  -0.02   0.00     0.02   0.01   0.05
  19   8     0.05  -0.13   0.04     0.03  -0.18  -0.06     0.23   0.07  -0.02
  20   1     0.01  -0.04   0.01    -0.00  -0.07  -0.00     0.06   0.01  -0.00
  21   1    -0.00  -0.03   0.02     0.02  -0.03  -0.00     0.11   0.03  -0.01
  22   8    -0.13   0.02   0.01     0.15  -0.05   0.01    -0.12  -0.04  -0.16
  23   1    -0.02  -0.02   0.01     0.04  -0.01   0.00    -0.01  -0.00  -0.01
  24   1    -0.04   0.03  -0.01     0.04  -0.02   0.00    -0.01  -0.02  -0.06
  25   8     0.13  -0.01  -0.04     0.11  -0.05   0.04     0.14  -0.01   0.00
  26   1     0.04   0.02  -0.02     0.04  -0.01   0.02     0.05   0.01  -0.00
  27   1     0.02   0.01   0.00     0.01   0.00   0.00     0.02   0.01   0.01
  28   8     0.06  -0.04   0.08    -0.01  -0.06  -0.01     0.01  -0.12   0.03
  29   1     0.02   0.00   0.01    -0.01  -0.02   0.01     0.00  -0.03   0.00
  30   1     0.01   0.01   0.03     0.01  -0.01  -0.01     0.00  -0.02   0.01
  31   8     0.02   0.01   0.18     0.25   0.10   0.16    -0.07  -0.02   0.20
  32   1    -0.01   0.00   0.03     0.06   0.03   0.04    -0.04   0.00   0.04
  33   1    -0.01   0.01   0.03     0.05   0.02   0.03    -0.04  -0.01   0.03
  34   8     0.28   0.07  -0.02    -0.06  -0.03  -0.05    -0.24  -0.13   0.02
  35   1     0.05   0.02  -0.01     0.01  -0.01  -0.01    -0.06  -0.03   0.00
  36   1     0.06   0.00  -0.01    -0.00   0.00  -0.01    -0.03  -0.03   0.00
  37   8    -0.01  -0.10   0.04    -0.19  -0.41   0.05     0.15   0.07   0.00
  38   1     0.00  -0.01   0.03    -0.01  -0.06   0.02     0.02   0.01   0.02
  39   1    -0.00  -0.02  -0.01    -0.10  -0.08   0.01     0.04   0.01   0.02
  40   8     0.10   0.26  -0.15    -0.18   0.22   0.07    -0.13  -0.24   0.10
  41   1     0.04   0.05  -0.03    -0.04   0.03  -0.00    -0.04  -0.06   0.02
  42   1     0.00   0.06  -0.03    -0.06   0.08   0.04    -0.02  -0.05   0.03
  43   8     0.09   0.11  -0.02     0.01  -0.07   0.03     0.03   0.02  -0.00
  44   1     0.03   0.02  -0.01    -0.00  -0.01  -0.00     0.00   0.01  -0.01
  45   1     0.03   0.01  -0.01     0.01  -0.01   0.00     0.02  -0.00  -0.00
  46   8    -0.09  -0.16  -0.06     0.09  -0.10  -0.09    -0.13  -0.11  -0.16
  47   1    -0.02  -0.03  -0.02     0.01  -0.02  -0.01    -0.03  -0.03  -0.04
  48   1    -0.02  -0.04  -0.02     0.02  -0.03  -0.03    -0.03  -0.02  -0.04
  49   8     0.05  -0.15  -0.07    -0.02   0.07   0.05    -0.08   0.12  -0.10
  50   1     0.02  -0.04  -0.01     0.01   0.02   0.01     0.01   0.03  -0.03
  51   1    -0.01  -0.03  -0.01     0.01   0.01   0.01    -0.03   0.02  -0.03
  52   8    -0.06   0.01   0.02    -0.12   0.16   0.15     0.11   0.09  -0.04
  53   1    -0.00   0.02  -0.01    -0.03   0.05   0.02     0.01   0.00  -0.01
  54   1    -0.00  -0.02  -0.00    -0.03   0.02   0.02     0.02   0.04  -0.00
  55   8     0.15  -0.01   0.02    -0.06  -0.00  -0.06    -0.05   0.16  -0.09
  56   1     0.03  -0.01   0.00    -0.01   0.01  -0.01    -0.01   0.05  -0.02
  57   1     0.03   0.01   0.00    -0.02  -0.01  -0.01    -0.01   0.03  -0.01
  58   8    -0.04  -0.10   0.15     0.16   0.02   0.04     0.08  -0.01   0.12
  59   1     0.00  -0.02   0.03     0.04   0.01   0.01     0.02  -0.00   0.03
  60   1    -0.02  -0.02   0.03     0.02   0.01   0.03     0.02   0.00   0.02
  61   8    -0.04  -0.22   0.01    -0.03   0.14   0.03     0.12   0.03  -0.09
  62   1    -0.01  -0.03   0.00     0.00   0.01   0.01     0.03   0.02  -0.03
  63   1     0.00  -0.04   0.01    -0.02   0.04  -0.01     0.03  -0.00  -0.01
  64   8    -0.03   0.04   0.12    -0.05   0.11  -0.09    -0.00   0.05   0.07
  65   1    -0.01   0.01   0.02    -0.01   0.03  -0.01     0.00   0.02   0.01
  66   1    -0.01   0.00   0.02    -0.01   0.02  -0.02    -0.01  -0.00   0.00
  67   8    -0.09   0.12  -0.06    -0.05   0.01   0.06    -0.28   0.05  -0.05
  68   1    -0.02   0.05  -0.03    -0.01  -0.02  -0.00    -0.07   0.03  -0.02
  69   1     0.00   0.01  -0.02    -0.02   0.00   0.01    -0.05   0.00  -0.01
  70   8     0.13   0.01   0.07    -0.10   0.04  -0.08     0.15   0.00   0.07
  71   1     0.03  -0.01   0.03     0.01   0.03  -0.03     0.09   0.01   0.03
  72   1     0.01   0.01   0.02    -0.01  -0.00  -0.02     0.01  -0.00   0.01
  73   8     0.01  -0.16  -0.02     0.12   0.09  -0.05     0.15   0.05  -0.01
  74   1    -0.02  -0.06  -0.01     0.03   0.02  -0.01     0.03  -0.02   0.01
  75   1    -0.01  -0.01   0.01     0.03   0.00  -0.00     0.03   0.02   0.02
                     22                     23                     24
                        a                      a                      a 
 Frequencies --    74.2271                79.6440                81.8918
 Red. masses --    14.1781                14.3139                14.2779
 Frc consts  --     0.0000                 0.0000                 0.0000
 IR Inten    --     3.4104                 0.6381                 1.7252
 Raman Activ --     0.0000                 0.0000                 0.0000
 Depolar     --     0.0000                 0.0000                 0.0000
 Atom AN      X      Y      Z        X      Y      Z        X      Y      Z
   1   8     0.02   0.30   0.09    -0.02   0.01   0.04     0.02  -0.30  -0.02
   2   1     0.00   0.09   0.01    -0.00  -0.01   0.02     0.00  -0.03  -0.00
   3   1     0.00   0.06   0.03     0.00  -0.01   0.00     0.00  -0.06  -0.01
   4   8    -0.01   0.01  -0.10     0.20  -0.16   0.01     0.06  -0.06   0.08
   5   1    -0.01   0.01  -0.01     0.04  -0.04   0.02     0.01  -0.01   0.04
   6   1     0.00   0.00  -0.03     0.06  -0.04  -0.01     0.01  -0.01   0.01
   7   8     0.08  -0.06   0.03     0.04  -0.06  -0.02     0.08  -0.04  -0.03
   8   1     0.03  -0.01   0.01     0.03  -0.02   0.01     0.01  -0.01  -0.02
   9   1     0.02  -0.01   0.01     0.00   0.00   0.00     0.02  -0.02  -0.01
  10   8     0.09  -0.02  -0.03    -0.05   0.06  -0.02     0.19  -0.09  -0.13
  11   1     0.03  -0.01  -0.00    -0.02   0.01  -0.00     0.04  -0.02  -0.04
  12   1     0.02  -0.01  -0.02    -0.02   0.01  -0.01     0.04  -0.02  -0.02
  13   8    -0.01  -0.12  -0.09    -0.13   0.03  -0.03     0.02  -0.14   0.10
  14   1    -0.01  -0.03  -0.02    -0.02  -0.01   0.00     0.01  -0.05   0.03
  15   1    -0.01  -0.03  -0.02    -0.03   0.01   0.01    -0.02  -0.01   0.02
  16   8    -0.08   0.08  -0.23     0.04  -0.02  -0.02     0.01  -0.22   0.05
  17   1    -0.00   0.03  -0.04     0.01  -0.00  -0.00     0.00  -0.06   0.02
  18   1    -0.01   0.02  -0.06     0.00  -0.00  -0.01    -0.00  -0.05   0.00
  19   8     0.26  -0.20   0.18    -0.10   0.04  -0.02     0.10  -0.06   0.12
  20   1     0.04  -0.01   0.03    -0.02  -0.01   0.00     0.02   0.00   0.02
  21   1     0.13  -0.07   0.00    -0.05   0.02   0.01     0.03  -0.03   0.01
  22   8     0.07  -0.02  -0.01     0.01  -0.06   0.02    -0.01   0.04   0.11
  23   1     0.01  -0.01  -0.01    -0.01   0.01  -0.02    -0.01  -0.00   0.03
  24   1     0.01  -0.02   0.01    -0.01  -0.02   0.02    -0.01   0.01   0.03
  25   8     0.04  -0.00   0.08    -0.19   0.28   0.14     0.17   0.08  -0.21
  26   1     0.03   0.01   0.02    -0.07   0.07   0.02     0.07   0.05  -0.06
  27   1    -0.01   0.01   0.02    -0.03   0.05   0.04     0.03   0.02  -0.01
  28   8     0.13  -0.01  -0.00     0.19  -0.21  -0.18    -0.10  -0.04  -0.03
  29   1     0.03  -0.01   0.01     0.05  -0.03  -0.00    -0.02   0.01  -0.02
  30   1     0.05   0.00  -0.00     0.07  -0.11  -0.07    -0.04  -0.03  -0.01
  31   8    -0.06   0.09  -0.12     0.06   0.03   0.11     0.01   0.21  -0.03
  32   1    -0.00   0.02  -0.03     0.01   0.01   0.02     0.01   0.04  -0.01
  33   1    -0.01   0.03  -0.03     0.00   0.01   0.02    -0.01   0.06  -0.02
  34   8    -0.18  -0.06   0.04     0.08  -0.06  -0.02    -0.02   0.11  -0.01
  35   1    -0.02  -0.01   0.01     0.01  -0.02   0.00    -0.01   0.02   0.00
  36   1    -0.05  -0.01   0.01     0.01  -0.01  -0.00    -0.00   0.03  -0.00
  37   8     0.03   0.27   0.03    -0.04  -0.12   0.04    -0.02   0.22   0.03
  38   1    -0.00   0.06   0.01    -0.00  -0.02   0.01     0.00   0.06   0.01
  39   1     0.03   0.06  -0.01    -0.02  -0.02   0.00    -0.02   0.06   0.01
  40   8    -0.10   0.00   0.30     0.12  -0.16  -0.02    -0.02   0.06  -0.10
  41   1    -0.03  -0.01   0.06     0.03  -0.03  -0.00    -0.01   0.02  -0.02
  42   1    -0.02   0.02   0.09     0.04  -0.06  -0.03    -0.01   0.03  -0.01
  43   8     0.10  -0.09   0.05     0.24  -0.11   0.05    -0.04   0.00  -0.17
  44   1     0.02  -0.01  -0.00     0.05  -0.01  -0.00    -0.00   0.00  -0.03
  45   1     0.03  -0.01   0.01     0.06   0.01   0.01    -0.01  -0.00  -0.04
  46   8     0.06  -0.27  -0.03    -0.12   0.01  -0.03    -0.10  -0.16  -0.06
  47   1     0.02  -0.07  -0.01    -0.03   0.01  -0.01    -0.02  -0.04  -0.02
  48   1     0.02  -0.06   0.00    -0.03   0.00  -0.02    -0.02  -0.04  -0.01
  49   8    -0.04   0.06   0.02    -0.13   0.06   0.08     0.12  -0.06   0.04
  50   1    -0.02   0.01   0.01    -0.02   0.01   0.02     0.02  -0.02   0.01
  51   1     0.00   0.02   0.01    -0.02   0.01   0.02     0.02  -0.01   0.01
  52   8    -0.17   0.06  -0.10     0.06  -0.13  -0.08    -0.04  -0.01  -0.04
  53   1    -0.03   0.01  -0.01     0.02  -0.03  -0.00    -0.01   0.00  -0.02
  54   1    -0.02   0.02   0.01     0.01  -0.03  -0.02     0.01  -0.01   0.01
  55   8    -0.02   0.01  -0.09     0.05   0.11  -0.16     0.14   0.02   0.06
  56   1    -0.00   0.00  -0.02     0.01   0.02  -0.03     0.03   0.00   0.02
  57   1    -0.00   0.00  -0.02    -0.01   0.01  -0.02     0.02  -0.00   0.02
  58   8    -0.00  -0.09  -0.14    -0.15   0.16  -0.22    -0.05  -0.06   0.06
  59   1     0.01  -0.01  -0.01    -0.05   0.04  -0.04     0.00  -0.01  -0.01
  60   1    -0.01  -0.01  -0.04    -0.03   0.03  -0.05    -0.01  -0.01   0.00
  61   8    -0.02  -0.10   0.08    -0.08   0.06   0.22    -0.25   0.14   0.05
  62   1    -0.01  -0.03   0.02     0.02  -0.03   0.05    -0.04   0.01   0.01
  63   1    -0.01  -0.02   0.01    -0.04   0.03   0.01    -0.06   0.06  -0.01
  64   8    -0.11   0.09   0.06     0.12  -0.00   0.18     0.01   0.04   0.18
  65   1    -0.03   0.03  -0.01     0.03  -0.00   0.04    -0.00   0.01   0.03
  66   1    -0.02   0.00   0.01     0.01  -0.01   0.03    -0.01  -0.00   0.03
  67   8     0.02   0.02  -0.02    -0.09   0.07  -0.05    -0.17   0.08  -0.02
  68   1     0.01   0.01   0.02    -0.02   0.04  -0.04    -0.04   0.03  -0.02
  69   1     0.00   0.01  -0.00     0.01   0.00  -0.01    -0.02   0.02   0.01
  70   8    -0.07  -0.06  -0.03    -0.12   0.10  -0.02    -0.08   0.28   0.04
  71   1    -0.08  -0.04  -0.02    -0.01   0.04  -0.01     0.07   0.12  -0.01
  72   1     0.00  -0.00  -0.00    -0.02   0.01  -0.01    -0.02   0.03  -0.01
  73   8    -0.08   0.08   0.04     0.01   0.10   0.04    -0.03  -0.07  -0.05
  74   1     0.00   0.05   0.01     0.01   0.04   0.00     0.00  -0.06   0.02
  75   1    -0.02   0.02  -0.02     0.01   0.01   0.01    -0.00  -0.03  -0.00
                     25                     26                     27
                        a                      a                      a 
 Frequencies --    85.7170                90.1137                93.8971
 Red. masses --    14.4798                14.4118                14.5211
 Frc consts  --     0.0000                 0.0000                 0.0000
 IR Inten    --     1.2300                 2.5145                 0.6275
 Raman Activ --     0.0000                 0.0000                 0.0000
 Depolar     --     0.0000                 0.0000                 0.0000
 Atom AN      X      Y      Z        X      Y      Z        X      Y      Z
   1   8     0.04  -0.22  -0.09    -0.04   0.21   0.10    -0.02  -0.07  -0.01
   2   1     0.01  -0.03  -0.03    -0.01   0.01   0.02    -0.01  -0.02  -0.00
   3   1     0.01  -0.04  -0.02    -0.01   0.03   0.03    -0.01  -0.01  -0.00
   4   8    -0.07   0.13  -0.17    -0.00   0.03   0.00    -0.02   0.02   0.12
   5   1    -0.03   0.02  -0.04    -0.01  -0.00   0.02    -0.01   0.00   0.04
   6   1     0.01   0.03  -0.05     0.01   0.01  -0.01     0.00   0.00   0.02
   7   8    -0.12   0.03   0.07     0.01  -0.08   0.09    -0.10   0.26  -0.27
   8   1    -0.01   0.01   0.01    -0.00  -0.02   0.01    -0.03   0.05  -0.04
   9   1    -0.04   0.02   0.02     0.01  -0.02   0.02    -0.02   0.05  -0.06
  10   8    -0.06  -0.09   0.04     0.10  -0.03  -0.13     0.18  -0.18  -0.26
  11   1     0.02  -0.01   0.02     0.03   0.00  -0.04     0.05  -0.03  -0.07
  12   1    -0.01  -0.03  -0.01     0.02  -0.01  -0.02     0.03  -0.04  -0.04
  13   8    -0.04  -0.12  -0.12    -0.01  -0.05   0.00     0.09  -0.13   0.15
  14   1    -0.04  -0.03  -0.04     0.01  -0.01   0.00     0.03  -0.04   0.04
  15   1    -0.02  -0.02  -0.01    -0.01  -0.01  -0.01     0.02  -0.03   0.04
  16   8     0.06   0.03   0.28    -0.03   0.06  -0.12    -0.07  -0.01   0.07
  17   1     0.01  -0.00   0.05    -0.01   0.02  -0.02    -0.02  -0.00   0.02
  18   1     0.00   0.00   0.07     0.00   0.02  -0.03    -0.03   0.00   0.00
  19   8     0.04  -0.01   0.02     0.10   0.27  -0.29    -0.00   0.02  -0.04
  20   1     0.01   0.02  -0.00     0.00   0.03  -0.05    -0.00   0.01  -0.01
  21   1     0.01  -0.01  -0.01     0.12   0.10  -0.06    -0.01   0.01  -0.01
  22   8     0.04  -0.05  -0.01    -0.00   0.03   0.03    -0.08  -0.11  -0.13
  23   1     0.01  -0.00   0.00     0.01   0.00   0.02    -0.01  -0.02  -0.02
  24   1     0.02  -0.02  -0.01     0.01   0.00  -0.00    -0.01  -0.03  -0.05
  25   8    -0.12  -0.19  -0.04     0.00  -0.19  -0.16    -0.08  -0.03   0.14
  26   1    -0.04  -0.06  -0.01     0.01  -0.02  -0.05    -0.02  -0.02   0.04
  27   1    -0.03  -0.04  -0.03    -0.01  -0.05  -0.01    -0.02  -0.00   0.02
  28   8     0.23   0.07  -0.12     0.08   0.02  -0.03     0.00  -0.02   0.05
  29   1     0.06   0.02   0.00     0.02  -0.00  -0.02     0.00   0.01   0.02
  30   1     0.09  -0.01  -0.04     0.01   0.01  -0.01     0.00  -0.02   0.01
  31   8    -0.13  -0.13  -0.11     0.16   0.07   0.03     0.12   0.16  -0.01
  32   1    -0.03  -0.04  -0.03     0.04   0.01   0.00     0.04   0.02  -0.02
  33   1    -0.01  -0.03  -0.01     0.05   0.02   0.01     0.04   0.05  -0.01
  34   8     0.01  -0.05  -0.01    -0.10   0.04  -0.01     0.17  -0.17   0.04
  35   1     0.01  -0.01  -0.00    -0.02   0.01  -0.00     0.03  -0.04   0.01
  36   1     0.01  -0.01  -0.00    -0.03   0.01  -0.00     0.03  -0.04   0.01
  37   8     0.07   0.10  -0.04    -0.10  -0.20  -0.03    -0.04   0.02  -0.02
  38   1    -0.00   0.01  -0.02    -0.00  -0.03  -0.01     0.01   0.02  -0.01
  39   1     0.03   0.02   0.01    -0.06  -0.04   0.01    -0.03   0.02  -0.01
  40   8    -0.11   0.11  -0.09     0.07  -0.13   0.14    -0.04   0.09  -0.05
  41   1    -0.02   0.02  -0.02     0.00  -0.02   0.02     0.01  -0.00  -0.01
  42   1    -0.04   0.04  -0.00     0.03  -0.04   0.02    -0.04   0.02  -0.00
  43   8     0.24   0.05  -0.00     0.01  -0.08  -0.10     0.06   0.20   0.12
  44   1     0.05   0.02  -0.01     0.01  -0.01  -0.02     0.01   0.03   0.02
  45   1     0.06  -0.00  -0.00    -0.00  -0.04  -0.02     0.02   0.03   0.03
  46   8     0.03  -0.01   0.19    -0.27   0.01   0.32    -0.12  -0.06   0.11
  47   1     0.01  -0.01   0.04    -0.06   0.02   0.07    -0.03  -0.01   0.03
  48   1     0.02   0.00   0.05    -0.05   0.01   0.04    -0.02  -0.01   0.01
  49   8    -0.08   0.01   0.02     0.01  -0.02  -0.00     0.05   0.12  -0.06
  50   1    -0.00   0.00   0.00     0.00  -0.01  -0.00    -0.00   0.03  -0.01
  51   1    -0.01   0.00   0.00    -0.00  -0.00   0.00    -0.00   0.03  -0.02
  52   8    -0.02   0.09   0.09     0.15   0.10  -0.15    -0.00   0.06   0.03
  53   1    -0.02   0.02  -0.00     0.04   0.02  -0.02     0.00   0.02  -0.00
  54   1     0.00   0.02   0.03     0.02   0.02  -0.06     0.00   0.01   0.00
  55   8     0.11   0.13  -0.19     0.07   0.04  -0.01    -0.08  -0.02  -0.12
  56   1     0.02   0.03  -0.04     0.01   0.01  -0.00    -0.01   0.00  -0.03
  57   1    -0.01   0.00  -0.02     0.01   0.01  -0.00    -0.01  -0.01  -0.03
  58   8     0.06   0.04   0.03     0.07  -0.03   0.14     0.02   0.04   0.04
  59   1     0.00   0.00   0.01     0.02  -0.01   0.02     0.00   0.01   0.02
  60   1     0.02   0.00   0.02     0.03  -0.01   0.01     0.00   0.01   0.02
  61   8    -0.13   0.07   0.22    -0.08   0.03  -0.07     0.10  -0.15   0.07
  62   1    -0.01  -0.01   0.05    -0.02   0.00  -0.02     0.04  -0.01   0.00
  63   1    -0.04   0.04   0.02    -0.02   0.01  -0.02     0.02  -0.03   0.01
  64   8    -0.19  -0.11  -0.13    -0.21  -0.16   0.17    -0.09  -0.05   0.11
  65   1    -0.04  -0.02  -0.01    -0.05  -0.03   0.04    -0.02  -0.01   0.03
  66   1    -0.03  -0.01  -0.01    -0.05  -0.03   0.05    -0.02  -0.01   0.03
  67   8     0.20  -0.03   0.04     0.03   0.01   0.04    -0.06   0.02   0.05
  68   1     0.05  -0.02   0.04     0.01  -0.03  -0.04    -0.02  -0.02  -0.02
  69   1     0.03  -0.00  -0.00     0.00   0.01   0.01    -0.02   0.02   0.03
  70   8    -0.12   0.12   0.10    -0.04   0.05   0.10     0.10  -0.08  -0.31
  71   1     0.03   0.06   0.03    -0.00   0.02   0.02    -0.00  -0.04  -0.07
  72   1    -0.04   0.01   0.02    -0.01   0.01   0.02     0.01  -0.00  -0.07
  73   8     0.04   0.01   0.02    -0.02  -0.01  -0.05    -0.09   0.07   0.19
  74   1    -0.01  -0.02   0.01     0.00  -0.01  -0.00    -0.03   0.06   0.02
  75   1     0.01   0.01   0.03    -0.00   0.00  -0.02    -0.02   0.01   0.05
                     28                     29                     30
                        a                      a                      a 
 Frequencies --    95.8785               101.6285               118.8649
 Red. masses --    14.5750                14.4319                14.0549
 Frc consts  --     0.0000                 0.0000                 0.0000
 IR Inten    --     3.9408                 1.8866                 0.4556
 Raman Activ --     0.0000                 0.0000                 0.0000
 Depolar     --     0.0000                 0.0000                 0.0000
 Atom AN      X      Y      Z        X      Y      Z        X      Y      Z
   1   8     0.01   0.00  -0.01    -0.05   0.18   0.01     0.02  -0.01   0.01
   2   1    -0.00   0.00  -0.01    -0.01   0.03   0.00     0.00  -0.01   0.00
   3   1    -0.00  -0.02   0.00    -0.01   0.03   0.00     0.00   0.00   0.00
   4   8     0.05  -0.02   0.03    -0.16   0.05   0.10     0.04  -0.00  -0.06
   5   1     0.01  -0.01   0.01    -0.03   0.01   0.01     0.01   0.01  -0.01
   6   1     0.01  -0.00   0.01    -0.03   0.01   0.01    -0.01   0.00  -0.01
   7   8    -0.09   0.19  -0.15    -0.25  -0.09   0.22    -0.01  -0.07  -0.01
   8   1    -0.02   0.04  -0.02    -0.07  -0.01   0.03    -0.00  -0.02  -0.01
   9   1    -0.02   0.04  -0.03    -0.05  -0.03   0.01    -0.00  -0.01  -0.01
  10   8     0.01  -0.04  -0.05     0.10  -0.29  -0.37    -0.10  -0.01  -0.03
  11   1     0.01  -0.00  -0.01     0.04  -0.04  -0.10    -0.04  -0.02  -0.01
  12   1    -0.00  -0.01  -0.01     0.03  -0.06  -0.06    -0.01   0.01  -0.01
  13   8    -0.01  -0.03   0.04     0.12  -0.10   0.15     0.11   0.11  -0.09
  14   1     0.01  -0.01   0.01     0.03  -0.04   0.04    -0.01   0.01  -0.03
  15   1     0.00  -0.01   0.01     0.02  -0.01   0.04     0.06   0.02   0.03
  16   8     0.10   0.08   0.15    -0.05   0.15   0.05     0.05  -0.10  -0.14
  17   1     0.02   0.02   0.04    -0.01   0.03   0.00     0.02  -0.02  -0.03
  18   1     0.03   0.02   0.03    -0.02   0.03   0.02     0.00  -0.03  -0.04
  19   8    -0.02  -0.01   0.00    -0.07  -0.04  -0.00     0.04   0.01  -0.00
  20   1    -0.00  -0.00  -0.00    -0.01  -0.01   0.00     0.00  -0.00   0.00
  21   1     0.00  -0.00  -0.00    -0.05  -0.01   0.01     0.04   0.01  -0.00
  22   8     0.24   0.18   0.25     0.01   0.03   0.01    -0.03   0.02  -0.01
  23   1     0.04   0.04   0.04     0.00   0.01  -0.00    -0.01   0.00   0.00
  24   1     0.05   0.04   0.09     0.00   0.01   0.00    -0.01   0.01  -0.01
  25   8    -0.07   0.01   0.11     0.01   0.02  -0.05     0.08   0.01  -0.27
  26   1    -0.02  -0.01   0.03    -0.01  -0.01  -0.01     0.04   0.02  -0.07
  27   1    -0.01   0.00   0.02     0.01   0.00  -0.03     0.01  -0.01  -0.03
  28   8     0.03  -0.02   0.04     0.02  -0.05  -0.02    -0.32   0.15  -0.00
  29   1     0.01   0.01   0.01     0.01  -0.01   0.01    -0.07   0.08   0.02
  30   1     0.01  -0.01   0.01     0.01  -0.03  -0.01    -0.08  -0.02  -0.02
  31   8     0.01   0.01   0.01     0.11   0.11   0.06    -0.06  -0.05   0.02
  32   1     0.00  -0.00  -0.00     0.02  -0.00  -0.02    -0.02  -0.01   0.00
  33   1     0.01   0.01   0.00     0.04   0.05  -0.00    -0.01  -0.01   0.01
  34   8    -0.33   0.30  -0.12    -0.01   0.04  -0.02    -0.00   0.01   0.02
  35   1    -0.05   0.07  -0.02    -0.00   0.01  -0.00    -0.00   0.01   0.00
  36   1    -0.06   0.07  -0.04    -0.01   0.01  -0.01     0.01  -0.00   0.00
  37   8     0.02   0.01  -0.02    -0.02  -0.05  -0.01    -0.03  -0.04   0.03
  38   1     0.00   0.00  -0.00     0.01   0.00   0.01    -0.01  -0.01   0.01
  39   1     0.01   0.00  -0.01    -0.01  -0.00  -0.02    -0.01  -0.01   0.01
  40   8    -0.03  -0.05   0.03     0.05  -0.05   0.00     0.02  -0.03   0.03
  41   1    -0.04   0.02  -0.01     0.01  -0.00   0.00     0.00  -0.00   0.01
  42   1     0.03   0.01   0.01     0.02  -0.03  -0.02     0.01  -0.01  -0.00
  43   8     0.06   0.15   0.09     0.08  -0.00  -0.04    -0.04   0.13  -0.09
  44   1     0.02   0.01   0.01     0.02  -0.01  -0.01    -0.00   0.02  -0.01
  45   1     0.02   0.03   0.02     0.02   0.01  -0.01    -0.02   0.01  -0.02
  46   8    -0.05  -0.03   0.04     0.19   0.09  -0.23    -0.06  -0.02   0.04
  47   1    -0.01  -0.00   0.01     0.03   0.02  -0.03    -0.01  -0.00   0.00
  48   1    -0.01  -0.01   0.01     0.03   0.02  -0.05    -0.01  -0.00   0.01
  49   8    -0.17  -0.25   0.13    -0.07  -0.05   0.00    -0.03  -0.01  -0.01
  50   1    -0.00  -0.06   0.02    -0.01  -0.01  -0.00    -0.01  -0.00  -0.00
  51   1     0.00  -0.05   0.03    -0.01  -0.01   0.00    -0.01  -0.00  -0.00
  52   8    -0.02  -0.04  -0.04     0.03  -0.04   0.04     0.01  -0.01   0.01
  53   1    -0.01  -0.02  -0.00     0.01  -0.01   0.02     0.00  -0.00   0.00
  54   1    -0.01   0.00  -0.00     0.00  -0.00   0.01     0.00  -0.00  -0.00
  55   8    -0.01  -0.17  -0.04     0.06   0.04  -0.06     0.03   0.00  -0.06
  56   1    -0.02  -0.05   0.01     0.01   0.01  -0.01     0.00  -0.01  -0.01
  57   1    -0.00  -0.05  -0.01     0.00  -0.01   0.00     0.02   0.01  -0.02
  58   8     0.00   0.02  -0.08    -0.00   0.03  -0.03    -0.03   0.01  -0.01
  59   1    -0.01   0.00  -0.01    -0.00   0.01  -0.01     0.00   0.00  -0.03
  60   1     0.01   0.00  -0.03     0.00   0.00  -0.00    -0.00  -0.00   0.00
  61   8     0.07  -0.10   0.04     0.01   0.02   0.15     0.19  -0.03   0.67
  62   1     0.03  -0.01   0.00     0.02   0.01   0.03     0.04  -0.05   0.18
  63   1     0.01  -0.02  -0.00    -0.00   0.00   0.03     0.05   0.02   0.14
  64   8    -0.01  -0.03   0.06     0.10   0.05  -0.26    -0.02  -0.02   0.05
  65   1    -0.01  -0.01   0.01     0.03   0.02  -0.07    -0.01  -0.01   0.01
  66   1    -0.00  -0.01   0.01     0.03   0.01  -0.06    -0.01  -0.00   0.01
  67   8    -0.00   0.01   0.00    -0.14   0.03   0.06     0.03   0.04  -0.02
  68   1    -0.00   0.00  -0.01    -0.04  -0.02   0.00     0.01   0.03   0.01
  69   1     0.00   0.00   0.00    -0.05   0.02   0.02     0.02   0.00  -0.01
  70   8     0.08  -0.07  -0.18    -0.02  -0.07   0.30     0.06  -0.14  -0.05
  71   1     0.08  -0.01  -0.02     0.02  -0.02   0.10    -0.08  -0.06  -0.03
  72   1    -0.00  -0.01  -0.05    -0.02  -0.01   0.08     0.03  -0.03  -0.01
  73   8     0.11  -0.09  -0.34    -0.04  -0.02  -0.03     0.06   0.04  -0.02
  74   1     0.01  -0.10  -0.06    -0.02  -0.02  -0.01     0.02   0.07  -0.03
  75   1     0.02  -0.01  -0.05    -0.02   0.01   0.00     0.02  -0.00  -0.02
                     31                     32                     33
                        a                      a                      a 
 Frequencies --   130.9695               135.8267               144.9226
 Red. masses --    12.7796                10.4966                13.1251
 Frc consts  --     0.0000                 0.0000                 0.0000
 IR Inten    --     3.0910                10.1846                 0.6987
 Raman Activ --     0.0000                 0.0000                 0.0000
 Depolar     --     0.0000                 0.0000                 0.0000
 Atom AN      X      Y      Z        X      Y      Z        X      Y      Z
   1   8    -0.04   0.01  -0.04    -0.03   0.11   0.02    -0.13   0.15   0.04
   2   1    -0.01  -0.00  -0.02    -0.01   0.02   0.01    -0.03   0.04   0.02
   3   1    -0.02   0.00  -0.00    -0.01   0.03   0.00    -0.02   0.01   0.01
   4   8     0.38  -0.17   0.13     0.02  -0.00  -0.02    -0.03   0.01  -0.00
   5   1     0.10  -0.05   0.02     0.01   0.00  -0.00    -0.01   0.00  -0.00
   6   1     0.09  -0.04   0.04    -0.00   0.00   0.00     0.00   0.00  -0.01
   7   8    -0.01  -0.01   0.04     0.02  -0.03   0.02     0.05  -0.05  -0.08
   8   1    -0.00  -0.00   0.01     0.01  -0.01   0.01     0.03  -0.01  -0.02
   9   1    -0.00  -0.00   0.01     0.00  -0.01   0.02     0.01  -0.00  -0.00
  10   8    -0.03  -0.00   0.02     0.03   0.04   0.08     0.03   0.05   0.11
  11   1    -0.02   0.01  -0.01     0.03   0.02   0.03     0.04   0.02   0.04
  12   1    -0.01   0.01   0.02     0.01   0.01   0.01     0.01   0.01   0.01
  13   8    -0.03   0.07   0.22     0.01  -0.00  -0.00     0.06   0.00  -0.01
  14   1     0.04   0.00   0.07    -0.00  -0.00  -0.00     0.00  -0.00  -0.01
  15   1    -0.01   0.01   0.04    -0.00   0.00   0.00     0.02   0.00   0.01
  16   8    -0.00   0.04   0.02    -0.08  -0.03  -0.08    -0.01   0.16   0.33
  17   1    -0.00   0.01  -0.00    -0.02  -0.00  -0.01    -0.02   0.04   0.08
  18   1    -0.00   0.01   0.01    -0.01  -0.00  -0.02     0.00   0.05   0.08
  19   8     0.10   0.11  -0.09    -0.00   0.00  -0.02    -0.06   0.01  -0.05
  20   1     0.02   0.02  -0.02     0.00   0.00  -0.01     0.01   0.01  -0.02
  21   1     0.04   0.03  -0.02    -0.01  -0.00  -0.00    -0.11  -0.00   0.01
  22   8    -0.03  -0.05  -0.03     0.05  -0.13   0.11    -0.08   0.04  -0.10
  23   1    -0.01  -0.01  -0.01     0.00  -0.02   0.02    -0.01   0.01  -0.01
  24   1    -0.01  -0.00  -0.00     0.02  -0.10   0.06    -0.02   0.06  -0.06
  25   8    -0.12  -0.16  -0.09    -0.05   0.01   0.07     0.09   0.00  -0.25
  26   1    -0.07  -0.06  -0.03    -0.02  -0.01   0.03     0.02   0.07  -0.12
  27   1     0.00  -0.07  -0.04    -0.01   0.00   0.01     0.01  -0.01  -0.02
  28   8    -0.04  -0.15  -0.02    -0.11   0.03   0.02     0.12  -0.05  -0.02
  29   1    -0.00  -0.00  -0.01    -0.03   0.01   0.01     0.02  -0.04  -0.00
  30   1    -0.03  -0.09  -0.01    -0.02  -0.00   0.00     0.04  -0.02  -0.01
  31   8    -0.00   0.00   0.05     0.02   0.01   0.02     0.10   0.05   0.05
  32   1    -0.00  -0.00   0.01     0.00   0.00   0.01     0.02   0.02   0.01
  33   1     0.00   0.01   0.01     0.01   0.00   0.01     0.03   0.01   0.02
  34   8    -0.09  -0.02   0.01    -0.00   0.01  -0.06    -0.02  -0.01  -0.01
  35   1    -0.01  -0.00  -0.00     0.00  -0.01  -0.00    -0.00  -0.01   0.00
  36   1    -0.01  -0.01   0.00    -0.03   0.02  -0.01    -0.01   0.01   0.00
  37   8     0.02   0.02  -0.01     0.05   0.03  -0.03     0.13   0.10  -0.09
  38   1    -0.00   0.01   0.00     0.01   0.01  -0.00     0.02   0.03  -0.01
  39   1    -0.00   0.01   0.01     0.02   0.00  -0.02     0.06   0.02  -0.06
  40   8    -0.23   0.38   0.12     0.03   0.03  -0.04    -0.03  -0.01  -0.07
  41   1    -0.04   0.05   0.01     0.01   0.01  -0.01    -0.00  -0.00  -0.01
  42   1    -0.10   0.25   0.20     0.01  -0.00  -0.02    -0.01  -0.01  -0.02
  43   8    -0.02   0.02  -0.01    -0.03  -0.01   0.01    -0.09  -0.33  -0.03
  44   1    -0.00   0.00   0.01    -0.02  -0.00  -0.02    -0.02  -0.08  -0.01
  45   1    -0.02  -0.01   0.00     0.01   0.01  -0.00    -0.02  -0.08  -0.01
  46   8     0.02   0.07  -0.09    -0.00  -0.01   0.01     0.04  -0.06   0.00
  47   1     0.00   0.03  -0.02    -0.00   0.00   0.00     0.00  -0.01   0.01
  48   1    -0.01   0.01  -0.02    -0.00  -0.00  -0.00     0.02  -0.01  -0.02
  49   8    -0.01   0.00   0.02     0.16   0.24   0.07    -0.11  -0.10  -0.01
  50   1    -0.00   0.00   0.00     0.06   0.07   0.01    -0.04  -0.03   0.00
  51   1    -0.01  -0.00   0.00     0.04   0.05   0.01    -0.03  -0.02  -0.00
  52   8    -0.07   0.08  -0.11     0.01  -0.00  -0.02     0.03   0.03  -0.03
  53   1    -0.02   0.02  -0.04     0.00   0.00  -0.00     0.00   0.01  -0.01
  54   1    -0.01   0.01  -0.02     0.00  -0.00  -0.00     0.01   0.01  -0.00
  55   8     0.00   0.01   0.03    -0.31  -0.08  -0.40    -0.16  -0.28   0.13
  56   1    -0.00   0.00   0.01    -0.03   0.07  -0.07    -0.03  -0.07   0.03
  57   1    -0.00   0.00   0.01    -0.10  -0.14  -0.02    -0.03  -0.07   0.03
  58   8    -0.05  -0.06  -0.10    -0.02  -0.02   0.04     0.01   0.05  -0.04
  59   1    -0.01  -0.01  -0.02    -0.01  -0.00   0.01     0.01   0.01  -0.02
  60   1    -0.02  -0.01  -0.03    -0.01  -0.00   0.01     0.00   0.01  -0.01
  61   8     0.01   0.00   0.02    -0.04   0.10   0.10     0.01   0.03   0.18
  62   1     0.01   0.01  -0.00     0.01  -0.01   0.02     0.01  -0.07   0.06
  63   1    -0.00  -0.01   0.00    -0.02   0.07  -0.02    -0.01   0.05  -0.01
  64   8     0.19  -0.26  -0.12    -0.01  -0.01  -0.00    -0.01   0.01   0.02
  65   1     0.05  -0.07  -0.01     0.00  -0.00   0.00    -0.01   0.00  -0.00
  66   1     0.04  -0.04  -0.03    -0.00  -0.00  -0.00    -0.00  -0.00   0.01
  67   8     0.09   0.09  -0.10     0.04   0.01  -0.02     0.05  -0.06  -0.04
  68   1     0.03   0.05  -0.07     0.01  -0.00  -0.02     0.01  -0.06  -0.07
  69   1     0.07   0.01  -0.01     0.01   0.00  -0.01     0.00  -0.00  -0.00
  70   8    -0.02  -0.04   0.05     0.24   0.04   0.11     0.15   0.08  -0.12
  71   1    -0.01  -0.02   0.02     0.36   0.10   0.08     0.18   0.08  -0.02
  72   1    -0.00  -0.00   0.02    -0.02  -0.03   0.00    -0.00  -0.02  -0.05
  73   8    -0.01  -0.00   0.05    -0.04  -0.28  -0.01    -0.17   0.17   0.12
  74   1    -0.00  -0.00   0.01     0.03  -0.33   0.15    -0.06   0.05   0.01
  75   1    -0.00   0.01   0.01    -0.02  -0.04  -0.00    -0.05   0.03   0.06
                     34                     35                     36
                        a                      a                      a 
 Frequencies --   151.7612               158.3284               159.8233
 Red. masses --     8.3921                10.2967                 9.7254
 Frc consts  --     0.0000                 0.0000                 0.0000
 IR Inten    --    14.3279                 5.7773                12.8191
 Raman Activ --     0.0000                 0.0000                 0.0000
 Depolar     --     0.0000                 0.0000                 0.0000
 Atom AN      X      Y      Z        X      Y      Z        X      Y      Z
   1   8    -0.11   0.01   0.01    -0.09   0.07   0.12    -0.12   0.01   0.05
   2   1    -0.02   0.02   0.02    -0.02   0.03   0.03    -0.03   0.02   0.01
   3   1    -0.01  -0.04  -0.01    -0.02   0.02   0.02    -0.03  -0.01   0.01
   4   8     0.01  -0.01  -0.00    -0.02   0.00   0.02     0.00  -0.01  -0.03
   5   1    -0.00   0.00   0.01    -0.00   0.00  -0.00     0.00   0.00  -0.00
   6   1    -0.00  -0.00   0.00    -0.01   0.00   0.01    -0.02  -0.00   0.01
   7   8    -0.01  -0.02  -0.00    -0.02  -0.04  -0.05    -0.04  -0.03   0.01
   8   1    -0.00  -0.00  -0.00    -0.00  -0.01  -0.01    -0.01  -0.01   0.01
   9   1    -0.00  -0.01  -0.00    -0.01  -0.01  -0.01    -0.01  -0.01   0.00
  10   8    -0.03  -0.01  -0.00    -0.07  -0.03   0.02    -0.06  -0.03   0.08
  11   1    -0.01  -0.01   0.00    -0.02  -0.02   0.01    -0.04  -0.03   0.02
  12   1    -0.00  -0.00  -0.00    -0.01  -0.00  -0.00    -0.01  -0.01   0.02
  13   8     0.01   0.01  -0.03     0.07   0.03  -0.00    -0.04  -0.03   0.03
  14   1     0.00   0.00  -0.01     0.01   0.01  -0.00     0.00  -0.00   0.01
  15   1     0.01  -0.00  -0.01     0.03   0.00   0.00    -0.01  -0.01  -0.00
  16   8     0.00  -0.05  -0.02    -0.03  -0.00   0.18     0.07  -0.18  -0.11
  17   1    -0.01  -0.01  -0.00    -0.02   0.01   0.05     0.01  -0.04  -0.02
  18   1     0.01  -0.01  -0.01     0.01   0.01   0.04    -0.00  -0.04  -0.04
  19   8    -0.25   0.13   0.02     0.02  -0.07  -0.07    -0.02  -0.05  -0.05
  20   1    -0.00   0.03  -0.00    -0.00  -0.00  -0.02    -0.01   0.00  -0.02
[...]
  70   8    -0.00   0.00   0.02     0.00  -0.00  -0.00    -0.00   0.00   0.00
  71   1     0.01  -0.03  -0.01    -0.01   0.02   0.01     0.00  -0.01  -0.01
  72   1     0.01   0.02  -0.07    -0.00   0.00  -0.00    -0.00  -0.00   0.00
  73   8     0.00   0.00   0.00     0.00   0.00   0.00    -0.00  -0.00  -0.00
  74   1     0.00  -0.01  -0.01    -0.00  -0.00   0.00    -0.00   0.00   0.00
  75   1    -0.00  -0.00  -0.00    -0.00  -0.00  -0.00     0.00   0.00   0.00
                    211                    212                    213
                        a                      a                      a 
 Frequencies --  3640.5452              3674.9789              3675.1878
 Red. masses --     1.8245                 1.8314                 1.8384
 Frc consts  --     0.0000                 0.0000                 0.0000
 IR Inten    --    24.7278                15.5588                 9.8823
 Raman Activ --     0.0000                 0.0000                 0.0000
 Depolar     --     0.0000                 0.0000                 0.0000
 Atom AN      X      Y      Z        X      Y      Z        X      Y      Z
   1   8    -0.00   0.00  -0.00     0.00  -0.00  -0.00     0.01   0.00  -0.00
   2   1    -0.00  -0.00   0.00    -0.00  -0.00   0.00    -0.02  -0.00   0.01
   3   1     0.00  -0.00   0.00     0.00   0.00   0.00     0.00  -0.00   0.00
   4   8     0.00   0.01  -0.00    -0.00   0.00   0.00     0.00   0.00   0.00
   5   1    -0.00   0.00   0.00    -0.00  -0.00  -0.00    -0.00   0.00  -0.00
   6   1    -0.00  -0.02   0.00    -0.00  -0.00   0.00    -0.00  -0.00  -0.00
   7   8     0.00   0.00   0.00    -0.00  -0.00   0.00     0.00   0.00   0.00
   8   1     0.00  -0.00  -0.00    -0.00   0.00   0.00     0.00  -0.00  -0.00
   9   1    -0.00  -0.00  -0.00     0.00  -0.00  -0.00    -0.00  -0.00  -0.00
  10   8     0.00  -0.00  -0.00     0.00  -0.00  -0.00    -0.00   0.00   0.00
  11   1    -0.00   0.00   0.01    -0.01   0.01   0.01     0.00  -0.00  -0.00
  12   1     0.00  -0.00  -0.00     0.00  -0.00  -0.00     0.00  -0.00   0.00
  13   8    -0.00  -0.00   0.00     0.00   0.00   0.00     0.00   0.00   0.00
  14   1    -0.00  -0.00  -0.00     0.00  -0.00  -0.00     0.00  -0.00  -0.00
  15   1     0.00   0.00  -0.00    -0.00  -0.00   0.00    -0.00  -0.00   0.00
  16   8    -0.00   0.00   0.00     0.00   0.00   0.00     0.00   0.00  -0.00
  17   1     0.00  -0.00   0.00    -0.00  -0.00   0.00    -0.00  -0.00   0.00
  18   1     0.00  -0.00  -0.00     0.00  -0.00  -0.00     0.00  -0.00  -0.00
  19   8     0.00  -0.00   0.00    -0.00   0.00  -0.00    -0.01   0.03  -0.03
  20   1    -0.00  -0.00  -0.00    -0.00  -0.00  -0.00    -0.01  -0.01  -0.02
  21   1    -0.00   0.00  -0.00     0.00  -0.01   0.01     0.03  -0.13   0.12
  22   8     0.00   0.00   0.00    -0.00  -0.00  -0.00    -0.00  -0.00  -0.00
  23   1     0.00  -0.00  -0.00    -0.00  -0.00  -0.00    -0.00  -0.00  -0.00
  24   1    -0.00  -0.00  -0.00     0.00   0.00   0.00     0.00   0.00   0.00
  25   8     0.00  -0.00  -0.00     0.00  -0.00  -0.00     0.00  -0.00  -0.00
  26   1    -0.00   0.00   0.00    -0.01   0.01   0.01    -0.01   0.01   0.01
  27   1     0.00   0.00   0.00    -0.00  -0.00  -0.00    -0.00  -0.00  -0.00
  28   8     0.03  -0.06   0.22    -0.00   0.00  -0.00    -0.00   0.00  -0.00
  29   1     0.04  -0.02   0.03     0.00  -0.00   0.00    -0.00  -0.00  -0.00
  30   1    -0.18   0.25  -0.92    -0.00  -0.00   0.00     0.00  -0.00   0.00
  31   8    -0.00   0.00   0.00    -0.00  -0.00   0.00    -0.00   0.00  -0.00
  32   1     0.00   0.00  -0.00     0.00   0.00  -0.00     0.00  -0.00  -0.00
  33   1     0.00  -0.00  -0.00     0.00  -0.00  -0.00     0.00  -0.00  -0.00
  34   8     0.00   0.00   0.00    -0.00  -0.00  -0.00     0.00   0.00   0.00
  35   1     0.00  -0.00  -0.00    -0.00   0.00   0.00    -0.00  -0.00  -0.00
  36   1    -0.00   0.00  -0.00     0.00   0.00   0.00     0.00  -0.00   0.00
  37   8    -0.00  -0.00  -0.00    -0.00  -0.01  -0.00    -0.09  -0.21  -0.04
  38   1     0.00  -0.00   0.00     0.00  -0.00   0.00     0.00  -0.03   0.00
  39   1     0.00   0.00   0.00     0.02   0.04   0.01     0.36   0.87   0.15
  40   8     0.00  -0.00   0.00     0.00  -0.00   0.00     0.00   0.00  -0.00
  41   1     0.00  -0.00  -0.00     0.00   0.00   0.00    -0.00  -0.00   0.00
  42   1    -0.00   0.00  -0.00    -0.00   0.00  -0.00     0.00  -0.00   0.00
  43   8    -0.00   0.00   0.00    -0.00   0.00   0.00     0.00  -0.00   0.00
  44   1     0.00   0.00  -0.00     0.00   0.00   0.00    -0.00  -0.00   0.00
  45   1    -0.00  -0.00  -0.00    -0.00   0.00  -0.00    -0.00  -0.00  -0.00
  46   8    -0.00   0.00  -0.00    -0.00  -0.00  -0.00     0.00  -0.00  -0.00
  47   1    -0.00  -0.00   0.00     0.00  -0.00   0.00     0.00  -0.00   0.00
  48   1     0.00  -0.00   0.00    -0.00   0.00  -0.00    -0.00   0.00  -0.00
  49   8    -0.00   0.00   0.00     0.00  -0.00  -0.00     0.00   0.00   0.00
  50   1    -0.00  -0.00  -0.00    -0.00   0.00   0.00    -0.00  -0.00  -0.00
  51   1     0.00   0.00  -0.00    -0.00   0.00  -0.00    -0.00   0.00  -0.00
  52   8    -0.00   0.00  -0.00    -0.00  -0.00   0.00    -0.00  -0.00   0.00
  53   1     0.00  -0.00  -0.00    -0.00   0.00   0.00     0.00  -0.00  -0.00
  54   1    -0.00  -0.00   0.00     0.00   0.00  -0.00     0.00   0.00  -0.00
  55   8     0.00   0.00   0.00     0.00   0.00   0.01    -0.00  -0.00  -0.00
  56   1    -0.00   0.00  -0.00     0.00  -0.00   0.00    -0.00  -0.00   0.00
  57   1    -0.00  -0.00  -0.00    -0.01  -0.01  -0.02     0.00   0.00   0.00
  58   8    -0.00   0.00  -0.00    -0.00   0.00  -0.00    -0.00   0.00  -0.00
  59   1     0.00  -0.00   0.00     0.00  -0.00   0.00     0.00  -0.00   0.00
  60   1    -0.00  -0.00  -0.00     0.00   0.00   0.00     0.00   0.00   0.00
  61   8     0.00  -0.00   0.00    -0.01   0.00   0.00     0.00  -0.00   0.00
  62   1    -0.00  -0.00  -0.01     0.00   0.00   0.01    -0.00  -0.00  -0.00
  63   1    -0.01   0.00   0.00     0.02  -0.02  -0.02    -0.00   0.00   0.00
  64   8    -0.00   0.00  -0.00    -0.00   0.00   0.00     0.00  -0.00  -0.00
  65   1     0.00  -0.00  -0.00     0.00  -0.00  -0.00    -0.00   0.00   0.00
  66   1    -0.00  -0.00   0.00     0.00   0.00  -0.00    -0.00  -0.00   0.00
  67   8     0.00   0.00  -0.00     0.00  -0.00   0.00     0.01  -0.00   0.00
  68   1     0.00  -0.00   0.00    -0.01   0.00  -0.00    -0.04   0.00  -0.00
  69   1    -0.00  -0.00   0.00     0.00   0.00  -0.00     0.00   0.00  -0.00
  70   8     0.00  -0.00   0.00     0.08  -0.19  -0.12    -0.00   0.01   0.01
  71   1    -0.00   0.00   0.00    -0.32   0.75   0.51     0.01  -0.03  -0.02
  72   1     0.00   0.00  -0.00     0.01  -0.01  -0.04    -0.00   0.00   0.00
  73   8    -0.00  -0.00  -0.00     0.00  -0.00  -0.01    -0.00   0.00   0.00
  74   1    -0.00   0.00   0.00    -0.02   0.02   0.03     0.00  -0.00  -0.00
  75   1     0.00   0.00  -0.00     0.00   0.00   0.00    -0.00  -0.00   0.00
                    214                    215                    216
                        a                      a                      a 
 Frequencies --  3679.0645              3680.5196              3682.4935
 Red. masses --     1.8367                 1.8401                 1.8415
 Frc consts  --     0.0000                 0.0000                 0.0000
 IR Inten    --    13.4313                 9.4961                13.4130
 Raman Activ --     0.0000                 0.0000                 0.0000
 Depolar     --     0.0000                 0.0000                 0.0000
 Atom AN      X      Y      Z        X      Y      Z        X      Y      Z
   1   8    -0.00  -0.00  -0.00     0.00   0.00  -0.00    -0.00  -0.00  -0.00
   2   1     0.00   0.00  -0.00    -0.01  -0.00   0.00     0.00   0.00  -0.00
   3   1     0.00   0.00   0.00    -0.00  -0.00  -0.00     0.00   0.00   0.00
   4   8    -0.00  -0.00   0.00     0.00   0.00  -0.00     0.00  -0.00   0.00
   5   1    -0.00  -0.00  -0.00    -0.00   0.00  -0.00    -0.00  -0.00  -0.00
   6   1     0.00   0.00  -0.00    -0.00  -0.00   0.00    -0.00   0.00  -0.00
   7   8    -0.00  -0.00  -0.00     0.00   0.00   0.00    -0.00   0.00   0.00
   8   1     0.00  -0.00  -0.00     0.00  -0.00  -0.00     0.00  -0.00  -0.00
   9   1     0.00   0.00   0.00    -0.00  -0.00  -0.00     0.00  -0.00   0.00
  10   8    -0.00   0.00   0.00     0.00   0.00  -0.00    -0.00   0.00   0.00
  11   1     0.00  -0.00  -0.00    -0.00   0.00   0.00     0.00  -0.00  -0.00
  12   1     0.00  -0.00   0.00     0.00  -0.00   0.00    -0.00   0.00   0.00
  13   8    -0.00  -0.00   0.00     0.00   0.00  -0.00    -0.00   0.00   0.00
  14   1     0.00  -0.00  -0.00    -0.00  -0.00   0.00     0.00  -0.00  -0.00
  15   1     0.00   0.00  -0.00    -0.00  -0.00   0.00    -0.00  -0.00  -0.00
  16   8    -0.00   0.00  -0.00     0.00   0.00  -0.00     0.00  -0.00  -0.00
  17   1     0.00  -0.00   0.00    -0.00  -0.00   0.00     0.00  -0.00  -0.00
  18   1     0.00  -0.00   0.00     0.00  -0.00  -0.00    -0.00   0.00   0.00
  19   8     0.01  -0.03   0.03     0.04  -0.16   0.15    -0.00   0.01  -0.01
  20   1     0.00  -0.00   0.01     0.01  -0.01   0.03    -0.00   0.00  -0.00
  21   1    -0.03   0.11  -0.11    -0.17   0.67  -0.64     0.01  -0.02   0.02
  22   8     0.00   0.00   0.00    -0.00  -0.00  -0.00     0.02   0.01   0.01
  23   1     0.00   0.00   0.00    -0.00  -0.00   0.00     0.00   0.00   0.00
  24   1    -0.01  -0.00  -0.01     0.01   0.00   0.00    -0.07  -0.03  -0.05
  25   8    -0.00   0.00   0.00     0.00  -0.01  -0.01     0.11  -0.13  -0.16
  26   1     0.00  -0.00  -0.01    -0.02   0.02   0.03    -0.44   0.54   0.67
  27   1     0.00   0.00   0.00     0.00  -0.00  -0.00     0.00  -0.02  -0.02
  28   8    -0.00  -0.00   0.00    -0.00   0.00  -0.00    -0.00   0.00  -0.00
  29   1     0.00   0.00   0.00    -0.00   0.00  -0.00     0.00   0.00  -0.00
  30   1    -0.00   0.00  -0.00     0.00  -0.00   0.00     0.00  -0.00   0.00
  31   8    -0.00   0.00   0.00     0.00  -0.00  -0.00    -0.00   0.00   0.00
  32   1    -0.00  -0.00   0.00     0.00  -0.00  -0.00    -0.00  -0.00   0.00
  33   1     0.01  -0.02  -0.02    -0.00   0.00   0.00     0.00  -0.00  -0.00
  34   8     0.00  -0.00   0.00    -0.00   0.00  -0.00     0.00  -0.00  -0.00
  35   1     0.00   0.00   0.00    -0.00  -0.00  -0.00     0.00   0.00   0.00
  36   1    -0.00   0.00  -0.00     0.00  -0.00   0.00    -0.00   0.00  -0.00
  37   8     0.00   0.00   0.00    -0.02  -0.04  -0.01     0.00   0.00   0.00
  38   1     0.00  -0.00   0.00     0.00  -0.01   0.00    -0.00   0.00  -0.00
  39   1    -0.00  -0.01  -0.00     0.07   0.16   0.03    -0.01  -0.02  -0.00
  40   8     0.00  -0.00   0.00    -0.01   0.01  -0.01     0.00  -0.01   0.01
  41   1    -0.00  -0.00   0.00     0.00   0.00  -0.00    -0.00  -0.00   0.00
  42   1    -0.00   0.00  -0.00     0.02  -0.04   0.04    -0.02   0.03  -0.03
  43   8    -0.00  -0.00  -0.00     0.00   0.00   0.00     0.00   0.00   0.01
  44   1     0.00   0.00  -0.00    -0.00  -0.00   0.00    -0.00  -0.00   0.00
  45   1     0.00  -0.00   0.00    -0.00  -0.00  -0.00    -0.00  -0.00  -0.02
  46   8    -0.01   0.00  -0.00    -0.00   0.01   0.00     0.00  -0.00  -0.00
  47   1     0.02   0.00   0.02    -0.01   0.00  -0.00     0.00  -0.00   0.00
  48   1     0.00  -0.00  -0.00     0.01  -0.02   0.00    -0.00   0.00  -0.00
  49   8    -0.00   0.00  -0.00     0.00  -0.00   0.00    -0.00   0.00  -0.00
  50   1     0.00  -0.00  -0.00    -0.00   0.00   0.00    -0.00  -0.00  -0.00
  51   1     0.00  -0.00   0.00    -0.00   0.00  -0.00     0.00  -0.00   0.00
  52   8     0.00   0.00  -0.00     0.00   0.00  -0.00    -0.00   0.00   0.00
  53   1     0.00  -0.00  -0.00    -0.00   0.00   0.00     0.00  -0.00  -0.00
  54   1    -0.00  -0.00   0.00    -0.02  -0.02   0.02     0.00   0.00  -0.00
  55   8    -0.00  -0.00  -0.00     0.00   0.00   0.00    -0.00   0.00   0.00
  56   1     0.00  -0.00   0.00     0.00  -0.00   0.00     0.00  -0.00   0.00
  57   1     0.00   0.00   0.00    -0.00  -0.00  -0.00    -0.00  -0.00   0.00
  58   8    -0.00   0.00  -0.00    -0.00   0.00  -0.00    -0.00   0.00  -0.00
  59   1     0.00  -0.00   0.00     0.00  -0.00   0.00     0.01  -0.02   0.00
  60   1     0.00  -0.00   0.00     0.00   0.00   0.00     0.00   0.00   0.00
  61   8    -0.00  -0.00  -0.00    -0.00   0.00   0.00     0.00   0.00   0.00
  62   1     0.00   0.00   0.00    -0.00  -0.00  -0.00    -0.00  -0.00  -0.00
  63   1    -0.00   0.00   0.00     0.00  -0.00  -0.00    -0.00   0.00   0.00
  64   8    -0.00   0.00   0.00    -0.00   0.00  -0.00     0.00   0.00   0.00
  65   1     0.00  -0.00  -0.00     0.00  -0.00  -0.00    -0.00   0.00   0.00
  66   1    -0.00  -0.00  -0.00    -0.00   0.00   0.00    -0.00  -0.00   0.00
  67   8     0.23  -0.03   0.01    -0.04   0.01  -0.00     0.00  -0.00   0.00
  68   1    -0.95   0.12  -0.04     0.15  -0.02   0.01    -0.01   0.00  -0.00
  69   1     0.03   0.02  -0.01    -0.01  -0.00   0.00     0.00  -0.00   0.00
  70   8    -0.00   0.00   0.00     0.00  -0.00  -0.00    -0.00   0.00   0.00
  71   1     0.00  -0.01  -0.01    -0.00   0.00   0.00     0.00  -0.01  -0.01
  72   1    -0.00   0.00   0.00     0.00  -0.00  -0.00    -0.00   0.00   0.00
  73   8     0.00  -0.00  -0.00    -0.00   0.00   0.00     0.00  -0.00  -0.00
  74   1    -0.00   0.00   0.00     0.00  -0.00  -0.00    -0.01   0.01   0.01
  75   1     0.00  -0.00  -0.00    -0.00  -0.00   0.00     0.00  -0.00  -0.00
                    217                    218                    219
                        a                      a                      a 
 Frequencies --  3683.8281              3684.1834              3687.7729
 Red. masses --     1.8390                 1.8388                 1.8407
 Frc consts  --     0.0000                 0.0000                 0.0000
 IR Inten    --     6.8207                15.3822                 8.4788
 Raman Activ --     0.0000                 0.0000                 0.0000
 Depolar     --     0.0000                 0.0000                 0.0000
 Atom AN      X      Y      Z        X      Y      Z        X      Y      Z
   1   8    -0.00  -0.00  -0.00     0.00   0.00   0.00     0.00   0.00   0.00
   2   1    -0.00  -0.00   0.00     0.00   0.00  -0.00    -0.00   0.00   0.00
   3   1     0.01   0.00   0.01    -0.01  -0.00  -0.01    -0.00  -0.00  -0.00
   4   8     0.00   0.00  -0.00     0.00  -0.00   0.00     0.00  -0.00   0.00
   5   1     0.00  -0.00   0.00    -0.00   0.00  -0.00    -0.00  -0.00   0.00
   6   1    -0.00  -0.00   0.00    -0.00   0.00  -0.00    -0.00   0.00   0.00
   7   8     0.00   0.00   0.00    -0.00   0.00   0.00     0.00  -0.00  -0.00
   8   1     0.00  -0.00  -0.00     0.00  -0.00  -0.00    -0.00   0.00   0.00
   9   1    -0.00  -0.00   0.00     0.00  -0.00   0.00    -0.00  -0.00   0.00
  10   8    -0.00   0.00   0.00     0.00  -0.00  -0.00     0.00  -0.00  -0.00
  11   1     0.00  -0.00  -0.00    -0.00   0.00   0.00    -0.00   0.00   0.00
  12   1     0.00  -0.00   0.00    -0.00   0.00  -0.00    -0.00   0.00  -0.00
  13   8     0.00   0.00   0.00    -0.00   0.00   0.00     0.00   0.00  -0.00
  14   1     0.00  -0.00  -0.00     0.00  -0.00  -0.00    -0.00   0.00   0.00
  15   1    -0.00  -0.00   0.00    -0.00  -0.00   0.00    -0.00  -0.00   0.00
  16   8     0.00   0.00  -0.00    -0.00  -0.00   0.00     0.00   0.00   0.00
  17   1    -0.00  -0.00   0.00     0.00   0.00  -0.00    -0.00  -0.00   0.00
  18   1    -0.00   0.00   0.00     0.00  -0.00   0.00     0.00  -0.00  -0.00
  19   8     0.00  -0.01   0.01    -0.00   0.01  -0.01    -0.00   0.00  -0.00
  20   1     0.00  -0.00   0.00    -0.00   0.00  -0.00    -0.00   0.00  -0.00
  21   1    -0.01   0.03  -0.03     0.01  -0.03   0.03     0.00  -0.01   0.01
  22   8    -0.11  -0.06  -0.08    -0.13  -0.07  -0.10    -0.01  -0.01  -0.01
  23   1    -0.02  -0.01  -0.00    -0.03  -0.01  -0.00    -0.00  -0.00  -0.00
  24   1     0.47   0.23   0.34     0.55   0.27   0.40     0.05   0.02   0.04
  25   8     0.00  -0.00  -0.00     0.01  -0.01  -0.02     0.00  -0.00  -0.00
  26   1    -0.01   0.01   0.01    -0.04   0.05   0.06    -0.01   0.01   0.02
  27   1    -0.00  -0.00  -0.00    -0.00  -0.00  -0.00     0.00  -0.00  -0.00
  28   8     0.00   0.00  -0.00     0.00  -0.00   0.00     0.00  -0.00   0.00
  29   1    -0.00   0.00  -0.00    -0.00   0.00  -0.00    -0.00   0.00   0.00
  30   1     0.00  -0.00   0.00    -0.00   0.00  -0.00    -0.00   0.00  -0.00
  31   8     0.00   0.00  -0.00    -0.00   0.00   0.00     0.00  -0.00  -0.00
  32   1    -0.00  -0.00   0.00     0.00   0.00  -0.00    -0.00  -0.00   0.00
  33   1    -0.00   0.00   0.00     0.00  -0.00  -0.00     0.00   0.00   0.00
  34   8     0.00   0.00   0.00    -0.00   0.00   0.00    -0.00   0.00  -0.00
  35   1    -0.00  -0.01  -0.01    -0.00  -0.01  -0.01    -0.00  -0.00  -0.00
  36   1    -0.00   0.00   0.00    -0.00   0.00   0.00     0.00  -0.00   0.03
  37   8    -0.00  -0.00  -0.00     0.00   0.00   0.00     0.00   0.00   0.00
  38   1     0.00  -0.00   0.00    -0.00   0.00  -0.00    -0.00   0.00  -0.00
  39   1     0.00   0.00   0.00    -0.01  -0.01  -0.00    -0.00  -0.01  -0.00
  40   8     0.07  -0.12   0.12    -0.06   0.10  -0.10    -0.01   0.01  -0.01
  41   1    -0.01  -0.02   0.02     0.01   0.02  -0.01     0.00   0.00  -0.00
  42   1    -0.27   0.49  -0.49     0.22  -0.41   0.41     0.03  -0.05   0.05
  43   8     0.00   0.00   0.00     0.00   0.00   0.00     0.00   0.00   0.00
  44   1    -0.00  -0.00   0.00    -0.00  -0.00   0.00    -0.00  -0.00   0.00
  45   1    -0.00  -0.00  -0.00    -0.00  -0.00  -0.00    -0.00  -0.00  -0.00
  46   8    -0.00   0.00   0.00     0.00  -0.00  -0.00     0.00  -0.00  -0.00
  47   1    -0.00   0.00  -0.00     0.00  -0.00   0.00     0.00  -0.00   0.00
  48   1     0.00  -0.00   0.00    -0.00   0.00  -0.00    -0.00   0.00  -0.00
  49   8     0.00  -0.00   0.00     0.00  -0.00   0.00    -0.00  -0.01  -0.00
  50   1    -0.00   0.00   0.00    -0.00  -0.00   0.00     0.00   0.02   0.01
  51   1    -0.00   0.00  -0.02    -0.00   0.00  -0.02    -0.00   0.00  -0.01
  52   8    -0.00   0.00   0.00     0.00  -0.00  -0.00     0.00  -0.00  -0.00
  53   1     0.01  -0.01  -0.00    -0.01   0.01   0.00    -0.00   0.00   0.00
  54   1    -0.00  -0.00   0.00    -0.00  -0.00   0.00    -0.00  -0.00   0.00
  55   8     0.00  -0.00   0.00     0.00  -0.00   0.00    -0.00   0.00  -0.00
  56   1    -0.00  -0.00  -0.00    -0.00   0.00  -0.00     0.00  -0.00   0.00
  57   1     0.00   0.00   0.00    -0.00  -0.00  -0.00     0.00   0.00   0.00
  58   8     0.00   0.00  -0.00     0.00   0.00  -0.00    -0.00   0.00  -0.00
  59   1     0.00  -0.00   0.00     0.00  -0.00   0.00     0.00  -0.00  -0.00
  60   1     0.00   0.00   0.00     0.00   0.00   0.00     0.00   0.00   0.00
  61   8     0.00   0.00   0.00     0.00   0.00   0.00     0.00  -0.00  -0.00
  62   1    -0.00  -0.00  -0.00    -0.00  -0.00  -0.00     0.00   0.00   0.00
  63   1     0.00  -0.00   0.00    -0.00   0.00   0.00    -0.00   0.00   0.00
  64   8    -0.00   0.00   0.00     0.00   0.00  -0.00     0.00   0.00  -0.00
  65   1     0.00  -0.00  -0.00    -0.00   0.00  -0.00    -0.00   0.00  -0.00
  66   1    -0.00  -0.00   0.00    -0.00  -0.00   0.00    -0.00  -0.00   0.00
  67   8    -0.00   0.00  -0.00     0.00  -0.00   0.00     0.00  -0.00   0.00
  68   1     0.00  -0.00   0.00    -0.02   0.00  -0.00    -0.01   0.00  -0.00
  69   1    -0.00  -0.00   0.00     0.00   0.00  -0.00     0.00   0.00  -0.00
  70   8    -0.00   0.00   0.00    -0.00   0.00   0.00     0.00  -0.01  -0.00
  71   1     0.00  -0.00  -0.00     0.00  -0.01  -0.00    -0.01   0.03   0.02
  72   1    -0.00  -0.00   0.00    -0.00   0.00   0.00     0.00  -0.00  -0.00
  73   8    -0.00   0.00   0.00     0.01  -0.01  -0.02    -0.11   0.09   0.18
  74   1     0.01  -0.01  -0.01    -0.05   0.04   0.08     0.46  -0.38  -0.75
  75   1    -0.00   0.00   0.00     0.00  -0.00  -0.00    -0.03   0.01   0.02
