      -----------------------------------------------------------      
     |                   =====================                   |     
     |                           x T B                           |     
     |                   =====================                   |     
     |                         S. Grimme                         |     
     |          Mulliken Center for Theoretical Chemistry        |     
     |                    University of Bonn                     |     
      -----------------------------------------------------------      

   * xtb version 6.5.1 (579679a) compiled by 'ehlert@majestix' on 2022-07-11

   xtb is free software: you can redistribute it and/or modify it under
   the terms of the GNU Lesser General Public License as published by
   the Free Software Foundation, either version 3 of the License, or
   (at your option) any later version.
   
   xtb is distributed in the hope that it will be useful,
   but WITHOUT ANY WARRANTY; without even the implied warranty of
   MERCHANTABILITY or FITNESS FOR A PARTICULAR PURPOSE.  See the
   GNU Lesser General Public License for more details.
   
   Cite this work as:
   * C. Bannwarth, E. Caldeweyher, S. Ehlert, A. Hansen, P. Pracht,
     J. Seibert, S. Spicher, S. Grimme, WIREs Comput. Mol. Sci., 2020, 11,
     e01493. DOI: 10.1002/wcms.1493
   
   for GFN2-xTB:
   * C. Bannwarth, S. Ehlert and S. Grimme., J. Chem. Theory Comput., 2019,
     15, 1652-1671. DOI: 10.1021/acs.jctc.8b01176
   for GFN1-xTB:
   * S. Grimme, C. Bannwarth, P. Shushkov, J. Chem. Theory Comput., 2017,
     13, 1989-2009. DOI: 10.1021/acs.jctc.7b00118
   for GFN0-xTB:
   * P. Pracht, E. Caldeweyher, S. Ehlert, S. Grimme, ChemRxiv, 2019, preprint.
     DOI: 10.26434/chemrxiv.8326202.v1
   for GFN-FF:
   * S. Spicher and S. Grimme, Angew. Chem. Int. Ed., 2020, 59, 15665-15673.
     DOI: 10.1002/anie.202004239
   
   for ALPB and GBSA implicit solvation:
   * S. Ehlert, M. Stahn, S. Spicher, S. Grimme, J. Chem. Theory Comput.,
     2021, 17, 4250-4261. DOI: 10.1021/acs.jctc.1c00471
   
   for DFT-D4:
   * E. Caldeweyher, C. Bannwarth and S. Grimme, J. Chem. Phys., 2017,
     147, 034112. DOI: 10.1063/1.4993215
   * E. Caldeweyher, S. Ehlert, A. Hansen, H. Neugebauer, S. Spicher,
     C. Bannwarth and S. Grimme, J. Chem. Phys., 2019, 150, 154122.
     DOI: 10.1063/1.5090222
   * E. Caldeweyher, J.-M. Mewes, S. Ehlert and S. Grimme, Phys. Chem. Chem. Phys.
     2020, 22, 8499-8512. DOI: 10.1039/D0CP00502A
   
   for sTDA-xTB:
   * S. Grimme and C. Bannwarth, J. Chem. Phys., 2016, 145, 054103.
     DOI: 10.1063/1.4959605
   
   in the mass-spec context:
   * V. Asgeirsson, C. Bauer and S. Grimme, Chem. Sci., 2017, 8, 4879.
     DOI: 10.1039/c7sc00601b
   * J. Koopman and S. Grimme, ACS Omega 2019, 4, 12, 15120-15133.
     DOI: 10.1021/acsomega.9b02011
   
   for metadynamics refer to:
   * S. Grimme, J. Chem. Theory Comput., 2019, 155, 2847-2862
     DOI: 10.1021/acs.jctc.9b00143
   
   for SPH calculations refer to:
   * S. Spicher and S. Grimme, J. Chem. Theory Comput., 2021, 17, 1701-1714
     DOI: 10.1021/acs.jctc.0c01306
   
   with help from (in alphabetical order)
   P. Atkinson, C. Bannwarth, F. Bohle, G. Brandenburg, E. Caldeweyher
   M. Checinski, S. Dohm, S. Ehlert, S. Ehrlich, I. Gerasimov, C. Hölzer
   A. Katbashev, J. Koopman, C. Lavigne, S. Lehtola, F. März, M. Müller,
   F. Musil, H. Neugebauer, J. Pisarek, C. Plett, P. Pracht, F. Pultar,
   J. Seibert, P. Shushkov, S. Spicher, M. Stahn, M. Steiner, T. Strunk,
   J. Stückrath, T. Rose, and J. Unsleber
   
 * started run on 2022/10/12 at 03:16:08.989     

           -------------------------------------------------
          |                Calculation Setup                |
           -------------------------------------------------

          program call               : xtb solvent_cut.coord --gfn2 --ohess
          hostname                   : cn1257
          coordinate file            : solvent_cut.coord
          omp threads                :                    10

   ID    Z sym.   atoms
    1    8 o      1, 4, 7, 10, 13, 16, 19, 22, 25, 28, 31, 34, 37, 40, 43,
                  46, 49, 52, 55, 58, 61, 64, 67, 70, 73
    2    1 h      2, 3, 5, 6, 8, 9, 11, 12, 14, 15, 17, 18, 20, 21, 23, 24,
                  26, 27, 29, 30, 32, 33, 35, 36, 38, 39, 41, 42, 44, 45, 47,
                  48, 50, 51, 53, 54, 56, 57, 59, 60, 62, 63, 65, 66, 68, 69,
                  71, 72, 74, 75

molecular fragmentation (1/2 indicates fragments):
111222222222222222222222222222222222222222222222222222222222222222222222
222
# atoms in fragment 1/2:     3    72
 fragment masses (1/2) :       18.02      432.37
CMA distance (Bohr)    :   7.823
constraining FC (au)   :  0.0500

           -------------------------------------------------
          |                 G F N 2 - x T B                 |
           -------------------------------------------------

        Reference                      10.1021/acs.jctc.8b01176
      * Hamiltonian:
        H0-scaling (s, p, d)           1.850000    2.230000    2.230000
        zeta-weighting                 0.500000
      * Dispersion:
        s8                             2.700000
        a1                             0.520000
        a2                             5.000000
        s9                             5.000000
      * Repulsion:
        kExp                           1.500000    1.000000
        rExp                           1.000000
      * Coulomb:
        alpha                          2.000000
        third order                    shell-resolved
        anisotropic                    true
        a3                             3.000000
        a5                             4.000000
        cn-shift                       1.200000
        cn-exp                         4.000000
        max-rad                        5.000000


          ...................................................
          :                      SETUP                      :
          :.................................................:
          :  # basis functions                 150          :
          :  # atomic orbitals                 150          :
          :  # shells                          100          :
          :  # electrons                       200          :
          :  max. iterations                   250          :
          :  Hamiltonian                  GFN2-xTB          :
          :  restarted?                      false          :
          :  GBSA solvation                  false          :
          :  PC potential                    false          :
          :  electronic temp.          300.0000000     K    :
          :  accuracy                    1.0000000          :
          :  -> integral cutoff          0.2500000E+02      :
          :  -> integral neglect         0.1000000E-07      :
          :  -> SCF convergence          0.1000000E-05 Eh   :
          :  -> wf. convergence          0.1000000E-03 e    :
          :  Broyden damping             0.4000000          :
          ...................................................

 iter      E             dE          RMSdq      gap      omega  full diag
   1   -127.8805250 -0.127881E+03  0.404E+00   11.08       0.0  T
   2   -127.8909444 -0.104194E-01  0.240E+00   10.67       1.0  T
   3   -127.8944723 -0.352792E-02  0.240E-01    9.94       1.0  T
   4   -127.8951848 -0.712408E-03  0.544E-02   10.14       1.0  T
   5   -127.8952117 -0.269605E-04  0.336E-02   10.09       1.0  T
   6   -127.8952172 -0.548410E-05  0.319E-03   10.11       3.6  T
   7   -127.8952173 -0.126894E-06  0.838E-04   10.11      13.8  T
   8   -127.8952173 -0.345656E-08  0.458E-04   10.11      25.2  T

   *** convergence criteria satisfied after 8 iterations ***

         #    Occupation            Energy/Eh            Energy/eV
      -------------------------------------------------------------
         1        2.0000           -0.7092329             -19.2992
       ...           ...                  ...                  ...
        94        2.0000           -0.4202484             -11.4355
        95        2.0000           -0.4184262             -11.3860
        96        2.0000           -0.4182117             -11.3801
        97        2.0000           -0.4121771             -11.2159
        98        2.0000           -0.4114425             -11.1959
        99        2.0000           -0.4097991             -11.1512
       100        2.0000           -0.4072610             -11.0821 (HOMO)
       101                         -0.0357859              -0.9738 (LUMO)
       102                         -0.0154285              -0.4198
       103                         -0.0080734              -0.2197
       104                          0.0109920               0.2991
       105                          0.0266173               0.7243
       ...                                ...                  ...
       150                          0.3761004              10.2342
      -------------------------------------------------------------
                  HL-Gap            0.3714750 Eh           10.1084 eV
             Fermi-level           -0.2215234 Eh           -6.0280 eV

 SCC (total)                   0 d,  0 h,  0 min,  0.075 sec
 SCC setup                      ...        0 min,  0.001 sec (  0.744%)
 Dispersion                     ...        0 min,  0.001 sec (  1.377%)
 classical contributions        ...        0 min,  0.000 sec (  0.204%)
 integral evaluation            ...        0 min,  0.005 sec (  6.125%)
 iterations                     ...        0 min,  0.052 sec ( 68.777%)
 molecular gradient             ...        0 min,  0.016 sec ( 21.690%)
 printout                       ...        0 min,  0.001 sec (  0.965%)

         :::::::::::::::::::::::::::::::::::::::::::::::::::::
         ::                     SUMMARY                     ::
         :::::::::::::::::::::::::::::::::::::::::::::::::::::
         :: total energy            -127.127978739950 Eh    ::
         :: gradient norm              0.047054055900 Eh/a0 ::
         :: HOMO-LUMO gap             10.108350065117 eV    ::
         ::.................................................::
         :: SCC energy              -127.895217328762 Eh    ::
         :: -> isotropic ES            0.764314934845 Eh    ::
         :: -> anisotropic ES         -0.128590747110 Eh    ::
         :: -> anisotropic XC         -0.015973439475 Eh    ::
         :: -> dispersion             -0.036485126841 Eh    ::
         :: repulsion energy           0.764689136161 Eh    ::
         :: add. restraining           0.000000000000 Eh    ::
         :: total charge               0.000000000000 e     ::
         :::::::::::::::::::::::::::::::::::::::::::::::::::::

      ----------------------------------------------------------- 
     |                   =====================                   |
     |                        A N C O P T                        |
     |                   =====================                   |
     |               Approximate Normal Coordinate               |
     |                Rational Function Optimizer                |
      ----------------------------------------------------------- 

          ...................................................
          :                      SETUP                      :
          :.................................................:
          :   optimization level            normal          :
          :   max. optcycles                   225          :
          :   ANC micro-cycles                  20          :
          :   degrees of freedom               219          :
          :.................................................:
          :   RF solver                   davidson          :
          :   write xtbopt.log                true          :
          :   linear?                        false          :
          :   energy convergence         0.5000000E-05 Eh   :
          :   grad. convergence          0.1000000E-02 Eh/α :
          :   maximium RF displ.         1.0000000          :
          :   Hlow (freq-cutoff)         0.1000000E-01      :
          :   Hmax (freq-cutoff)         5.0000000          :
          :   S6 in model hess.         20.0000000          :
          ...................................................

generating ANC from model Hessian ...
Using Lindh-Hessian (1995)
 Shifting diagonal of input Hessian by   1.012108282937204E-002
 Lowest  eigenvalues of input Hessian
    0.010000    0.010035    0.010062    0.010084    0.010090    0.000000
    0.000000    0.000000    0.000000    0.000000    0.000000    0.010122
    0.010141    0.010189    0.010195    0.010219    0.010241    0.010268
 Highest eigenvalues
    1.407520    1.413201    1.415701    1.415931    1.416357    1.418900
 

........................................................................
.............................. CYCLE    1 ..............................
........................................................................
   1   -127.8952173 -0.127895E+03  0.438E-05   10.11       0.0  T
   2   -127.8952173 -0.999023E-11  0.249E-05   10.11     463.8  T
   3   -127.8952173 -0.252953E-11  0.622E-06   10.11    1857.7  T
     SCC iter.                  ...        0 min,  0.015 sec
     gradient                   ...        0 min,  0.013 sec
 * total energy  :  -127.1279787 Eh     change       -0.2409095E-08 Eh
   gradient norm :     0.0470558 Eh/α   predicted     0.0000000E+00 (-100.00%)
   displ. norm   :     0.3955178 α      lambda       -0.6429207E-02
   maximum displ.:     0.0921526 α      in ANC's #41, #43, #55, ...

........................................................................
.............................. CYCLE    2 ..............................
........................................................................
   1   -127.9029164 -0.127903E+03  0.857E-02   10.23       0.0  T
   2   -127.9029444 -0.279843E-04  0.513E-02   10.25       1.0  T
   3   -127.9029497 -0.533449E-05  0.979E-03   10.26       1.2  T
   4   -127.9029505 -0.823685E-06  0.173E-03   10.26       6.7  T
   5   -127.9029505 -0.681425E-08  0.253E-04   10.26      45.7  T
   6   -127.9029505 -0.263384E-09  0.982E-05   10.26     117.5  T
     SCC iter.                  ...        0 min,  0.027 sec
     gradient                   ...        0 min,  0.013 sec
 * total energy  :  -127.1323119 Eh     change       -0.4333133E-02 Eh
   gradient norm :     0.0189040 Eh/α   predicted    -0.3718372E-02 ( -14.19%)
   displ. norm   :     0.4336524 α      lambda       -0.3040894E-02
   maximum displ.:     0.1303261 α      in ANC's #41, #27, #25, ...

........................................................................
.............................. CYCLE    3 ..............................
........................................................................
   1   -127.9093303 -0.127909E+03  0.640E-02   10.30       0.0  T
   2   -127.9093560 -0.256463E-04  0.375E-02   10.31       1.0  T
   3   -127.9093601 -0.410400E-05  0.960E-03   10.32       1.2  T
   4   -127.9093606 -0.556531E-06  0.141E-03   10.32       8.2  T
   5   -127.9093606 -0.643944E-08  0.247E-04   10.32      46.7  T
   6   -127.9093606 -0.271953E-09  0.913E-05   10.32     126.5  T
     SCC iter.                  ...        0 min,  0.027 sec
     gradient                   ...        0 min,  0.013 sec
 * total energy  :  -127.1343106 Eh     change       -0.1998748E-02 Eh
   gradient norm :     0.0127912 Eh/α   predicted    -0.1806375E-02 (  -9.62%)
   displ. norm   :     0.4901546 α      lambda       -0.1933017E-02
   maximum displ.:     0.2014260 α      in ANC's #27, #31, #29, ...

........................................................................
.............................. CYCLE    4 ..............................
........................................................................
   1   -127.9111807 -0.127911E+03  0.559E-02   10.33       0.0  T
   2   -127.9111951 -0.144098E-04  0.341E-02   10.34       1.0  T
   3   -127.9111981 -0.298478E-05  0.701E-03   10.36       1.6  T
   4   -127.9111985 -0.453757E-06  0.133E-03   10.36       8.7  T
   5   -127.9111985 -0.602230E-08  0.193E-04   10.36      59.8  T
   6   -127.9111985 -0.195143E-09  0.754E-05   10.36     153.2  T
     SCC iter.                  ...        0 min,  0.027 sec
     gradient                   ...        0 min,  0.013 sec
 * total energy  :  -127.1358425 Eh     change       -0.1531879E-02 Eh
   gradient norm :     0.0136714 Eh/α   predicted    -0.1198735E-02 ( -21.75%)
   displ. norm   :     0.6956746 α      lambda       -0.2371800E-02
   maximum displ.:     0.3147473 α      in ANC's #27, #31, #25, ...

........................................................................
.............................. CYCLE    5 ..............................
........................................................................
   1   -127.9079229 -0.127908E+03  0.735E-02   10.31       0.0  T
   2   -127.9079523 -0.293681E-04  0.453E-02   10.35       1.0  T
   3   -127.9079579 -0.563349E-05  0.964E-03   10.38       1.2  T
   4   -127.9079588 -0.886423E-06  0.185E-03   10.38       6.2  T
   5   -127.9079588 -0.128801E-07  0.288E-04   10.38      40.1  T
   6   -127.9079588 -0.407596E-09  0.116E-04   10.38      99.8  T
     SCC iter.                  ...        0 min,  0.027 sec
     gradient                   ...        0 min,  0.013 sec
 * total energy  :  -127.1374943 Eh     change       -0.1651837E-02 Eh
   gradient norm :     0.0211029 Eh/α   predicted    -0.1759831E-02 (   6.54%)
   displ. norm   :     0.5481907 α      lambda       -0.2024499E-02
   maximum displ.:     0.2278732 α      in ANC's #27, #25, #29, ...

........................................................................
.............................. CYCLE    6 ..............................
........................................................................
   1   -127.9075416 -0.127908E+03  0.552E-02   10.35       0.0  T
   2   -127.9075527 -0.111515E-04  0.327E-02   10.36       1.0  T
   3   -127.9075548 -0.212354E-05  0.629E-03   10.37       1.8  T
   4   -127.9075552 -0.343719E-06  0.123E-03   10.37       9.4  T
   5   -127.9075552 -0.488195E-08  0.177E-04   10.37      65.2  T
   6   -127.9075552 -0.193197E-09  0.605E-05   10.37     190.9  T
     SCC iter.                  ...        0 min,  0.027 sec
     gradient                   ...        0 min,  0.013 sec
 * total energy  :  -127.1389546 Eh     change       -0.1460308E-02 Eh
   gradient norm :     0.0154672 Eh/α   predicted    -0.1316446E-02 (  -9.85%)
   displ. norm   :     0.5569119 α      lambda       -0.1866578E-02
   maximum displ.:     0.2073674 α      in ANC's #27, #25, #29, ...

........................................................................
.............................. CYCLE    7 ..............................
........................................................................
   1   -127.9065123 -0.127907E+03  0.640E-02   10.32       0.0  T
   2   -127.9065244 -0.121110E-04  0.383E-02   10.32       1.0  T
   3   -127.9065267 -0.227529E-05  0.631E-03   10.31       1.8  T
   4   -127.9065271 -0.390047E-06  0.117E-03   10.31       9.9  T
   5   -127.9065271 -0.356404E-08  0.190E-04   10.32      60.9  T
   6   -127.9065271 -0.179114E-09  0.672E-05   10.32     171.7  T
     SCC iter.                  ...        0 min,  0.042 sec
     gradient                   ...        0 min,  0.013 sec
 * total energy  :  -127.1401462 Eh     change       -0.1191507E-02 Eh
   gradient norm :     0.0180261 Eh/α   predicted    -0.1222764E-02 (   2.62%)
   displ. norm   :     0.6080963 α      lambda       -0.2000008E-02
   maximum displ.:     0.2231168 α      in ANC's #27, #25, #37, ...

........................................................................
.............................. CYCLE    8 ..............................
........................................................................
   1   -127.9002136 -0.127900E+03  0.693E-02   10.28       0.0  T
   2   -127.9002285 -0.149024E-04  0.419E-02   10.26       1.0  T
   3   -127.9002318 -0.332323E-05  0.687E-03   10.24       1.7  T
   4   -127.9002323 -0.470340E-06  0.148E-03   10.24       7.8  T
   5   -127.9002323 -0.696598E-08  0.234E-04   10.24      49.4  T
   6   -127.9002323 -0.205162E-09  0.980E-05   10.24     117.8  T
     SCC iter.                  ...        0 min,  0.028 sec
     gradient                   ...        0 min,  0.013 sec
 * total energy  :  -127.1410794 Eh     change       -0.9332570E-03 Eh
   gradient norm :     0.0168415 Eh/α   predicted    -0.1369787E-02 (  46.77%)
   displ. norm   :     0.3807525 α      lambda       -0.1078022E-02
   maximum displ.:     0.1142004 α      in ANC's #27, #25, #29, ...

........................................................................
.............................. CYCLE    9 ..............................
........................................................................
   1   -127.9030115 -0.127903E+03  0.376E-02   10.25       0.0  T
   2   -127.9030151 -0.362874E-05  0.225E-02   10.26       1.0  T
   3   -127.9030159 -0.835636E-06  0.343E-03   10.26       3.4  T
   4   -127.9030161 -0.116572E-06  0.724E-04   10.26      16.0  T
   5   -127.9030161 -0.147917E-08  0.115E-04   10.26     100.0  T
     SCC iter.                  ...        0 min,  0.023 sec
     gradient                   ...        0 min,  0.013 sec
 * total energy  :  -127.1419212 Eh     change       -0.8418226E-03 Eh
   gradient norm :     0.0134244 Eh/α   predicted    -0.6171529E-03 ( -26.69%)
   displ. norm   :     0.5452380 α      lambda       -0.1268483E-02
   maximum displ.:     0.1586798 α      in ANC's #25, #29, #37, ...

........................................................................
.............................. CYCLE   10 ..............................
........................................................................
   1   -127.9074353 -0.127907E+03  0.526E-02   10.27       0.0  T
   2   -127.9074413 -0.598318E-05  0.316E-02   10.27       1.0  T
   3   -127.9074427 -0.146326E-05  0.433E-03   10.28       2.7  T
   4   -127.9074429 -0.199156E-06  0.978E-04   10.28      11.8  T
   5   -127.9074429 -0.307693E-08  0.160E-04   10.28      72.2  T
     SCC iter.                  ...        0 min,  0.023 sec
     gradient                   ...        0 min,  0.013 sec
 * total energy  :  -127.1428706 Eh     change       -0.9493822E-03 Eh
   gradient norm :     0.0136160 Eh/α   predicted    -0.8227954E-03 ( -13.33%)
   displ. norm   :     0.6368580 α      lambda       -0.1146366E-02
   maximum displ.:     0.1969987 α      in ANC's #25, #37, #29, ...

........................................................................
.............................. CYCLE   11 ..............................
........................................................................
   1   -127.9068455 -0.127907E+03  0.652E-02   10.27       0.0  T
   2   -127.9068513 -0.585433E-05  0.399E-02   10.27       1.0  T
   3   -127.9068533 -0.199091E-05  0.402E-03   10.27       2.9  T
   4   -127.9068535 -0.181702E-06  0.111E-03   10.27      10.4  T
   5   -127.9068535 -0.317334E-08  0.154E-04   10.27      75.0  T
   6   -127.9068535 -0.925553E-10  0.681E-05   10.27     169.5  T
     SCC iter.                  ...        0 min,  0.027 sec
     gradient                   ...        0 min,  0.013 sec
 * total energy  :  -127.1437697 Eh     change       -0.8990445E-03 Eh
   gradient norm :     0.0161255 Eh/α   predicted    -0.8056595E-03 ( -10.39%)
   displ. norm   :     0.6439353 α      lambda       -0.1221338E-02
   maximum displ.:     0.1979294 α      in ANC's #25, #29, #13, ...

........................................................................
.............................. CYCLE   12 ..............................
........................................................................
   1   -127.9094661 -0.127909E+03  0.600E-02   10.29       0.0  T
   2   -127.9094713 -0.518390E-05  0.365E-02   10.28       1.0  T
   3   -127.9094730 -0.167145E-05  0.387E-03   10.28       3.0  T
   4   -127.9094731 -0.162510E-06  0.106E-03   10.28      10.9  T
   5   -127.9094731 -0.319274E-08  0.151E-04   10.28      76.6  T
   6   -127.9094731 -0.861320E-10  0.670E-05   10.28     172.3  T
     SCC iter.                  ...        0 min,  0.027 sec
     gradient                   ...        0 min,  0.013 sec
 * total energy  :  -127.1446437 Eh     change       -0.8740563E-03 Eh
   gradient norm :     0.0137499 Eh/α   predicted    -0.8638891E-03 (  -1.16%)
   displ. norm   :     0.6319890 α      lambda       -0.1190964E-02
   maximum displ.:     0.1998376 α      in ANC's #25, #13, #29, ...

........................................................................
.............................. CYCLE   13 ..............................
........................................................................
   1   -127.9067585 -0.127907E+03  0.631E-02   10.27       0.0  T
   2   -127.9067644 -0.590401E-05  0.385E-02   10.27       1.0  T
   3   -127.9067665 -0.206354E-05  0.414E-03   10.28       2.8  T
   4   -127.9067666 -0.171354E-06  0.122E-03   10.28       9.5  T
   5   -127.9067666 -0.412685E-08  0.166E-04   10.28      69.7  T
   6   -127.9067666 -0.120338E-09  0.723E-05   10.28     159.7  T
     SCC iter.                  ...        0 min,  0.027 sec
     gradient                   ...        0 min,  0.013 sec
 * total energy  :  -127.1452793 Eh     change       -0.6356204E-03 Eh
   gradient norm :     0.0205545 Eh/α   predicted    -0.8333245E-03 (  31.10%)
   displ. norm   :     0.4652397 α      lambda       -0.1126572E-02
   maximum displ.:     0.1574697 α      in ANC's #13, #37, #29, ...

........................................................................
.............................. CYCLE   14 ..............................
........................................................................
   1   -127.9059339 -0.127906E+03  0.553E-02   10.28       0.0  T
   2   -127.9059398 -0.585731E-05  0.336E-02   10.28       1.0  T
   3   -127.9059417 -0.187154E-05  0.428E-03   10.28       2.7  T
   4   -127.9059418 -0.182545E-06  0.117E-03   10.28       9.9  T
   5   -127.9059418 -0.352965E-08  0.143E-04   10.28      80.8  T
   6   -127.9059418 -0.107917E-09  0.619E-05   10.28     186.7  T
     SCC iter.                  ...        0 min,  0.028 sec
     gradient                   ...        0 min,  0.013 sec
 * total energy  :  -127.1456890 Eh     change       -0.4096322E-03 Eh
   gradient norm :     0.0248873 Eh/α   predicted    -0.6852120E-03 (  67.27%)
   displ. norm   :     0.3418436 α      lambda       -0.1313004E-02
   maximum displ.:     0.1110856 α      in ANC's #13, #29, #30, ...

........................................................................
.............................. CYCLE   15 ..............................
........................................................................
   1   -127.9076478 -0.127908E+03  0.508E-02   10.27       0.0  T
   2   -127.9076530 -0.521031E-05  0.307E-02   10.27       1.0  T
   3   -127.9076548 -0.177141E-05  0.418E-03   10.27       2.8  T
   4   -127.9076549 -0.158876E-06  0.118E-03   10.27       9.8  T
   5   -127.9076549 -0.381921E-08  0.131E-04   10.27      88.4  T
   6   -127.9076549 -0.993481E-10  0.571E-05   10.27     202.4  T
     SCC iter.                  ...        0 min,  0.027 sec
     gradient                   ...        0 min,  0.013 sec
 * total energy  :  -127.1462293 Eh     change       -0.5403331E-03 Eh
   gradient norm :     0.0219879 Eh/α   predicted    -0.7332217E-03 (  35.70%)
   displ. norm   :     0.3552602 α      lambda       -0.1158149E-02
   maximum displ.:     0.1156588 α      in ANC's #13, #24, #30, ...

........................................................................
.............................. CYCLE   16 ..............................
........................................................................
   1   -127.9124217 -0.127912E+03  0.525E-02   10.29       0.0  T
   2   -127.9124269 -0.514621E-05  0.320E-02   10.29       1.0  T
   3   -127.9124288 -0.188832E-05  0.402E-03   10.29       2.9  T
   4   -127.9124289 -0.145165E-06  0.115E-03   10.29      10.1  T
   5   -127.9124289 -0.404555E-08  0.172E-04   10.29      67.1  T
   6   -127.9124289 -0.151175E-09  0.651E-05   10.29     177.5  T
     SCC iter.                  ...        0 min,  0.027 sec
     gradient                   ...        0 min,  0.013 sec
 * total energy  :  -127.1466621 Eh     change       -0.4327495E-03 Eh
   gradient norm :     0.0209842 Eh/α   predicted    -0.6521635E-03 (  50.70%)
   displ. norm   :     0.4219191 α      lambda       -0.1230352E-02
   maximum displ.:     0.1525678 α      in ANC's #13, #27, #29, ...

........................................................................
.............................. CYCLE   17 ..............................
........................................................................
   1   -127.9096868 -0.127910E+03  0.539E-02   10.27       0.0  T
   2   -127.9096933 -0.643544E-05  0.326E-02   10.28       1.0  T
   3   -127.9096948 -0.153489E-05  0.450E-03   10.28       2.6  T
   4   -127.9096950 -0.214355E-06  0.104E-03   10.28      11.1  T
   5   -127.9096950 -0.186662E-08  0.116E-04   10.28      99.3  T
   6   -127.9096950 -0.721769E-10  0.484E-05   10.28     238.4  T
     SCC iter.                  ...        0 min,  0.027 sec
     gradient                   ...        0 min,  0.013 sec
 * total energy  :  -127.1473179 Eh     change       -0.6558881E-03 Eh
   gradient norm :     0.0178653 Eh/α   predicted    -0.7246894E-03 (  10.49%)
   displ. norm   :     0.4625273 α      lambda       -0.9893290E-03
   maximum displ.:     0.1766595 α      in ANC's #13, #37, #15, ...

........................................................................
.............................. CYCLE   18 ..............................
........................................................................
   1   -127.9103640 -0.127910E+03  0.457E-02   10.27       0.0  T
   2   -127.9103679 -0.391547E-05  0.278E-02   10.26       1.0  T
   3   -127.9103691 -0.122210E-05  0.349E-03   10.26       3.3  T
   4   -127.9103693 -0.126235E-06  0.953E-04   10.26      12.1  T
   5   -127.9103693 -0.236653E-08  0.112E-04   10.26     103.2  T
     SCC iter.                  ...        0 min,  0.023 sec
     gradient                   ...        0 min,  0.013 sec
 * total energy  :  -127.1479680 Eh     change       -0.6500881E-03 Eh
   gradient norm :     0.0144687 Eh/α   predicted    -0.6004899E-03 (  -7.63%)
   displ. norm   :     0.6320005 α      lambda       -0.1367690E-02
   maximum displ.:     0.2465057 α      in ANC's #13, #18, #23, ...

........................................................................
.............................. CYCLE   19 ..............................
........................................................................
   1   -127.9112410 -0.127911E+03  0.737E-02   10.22       0.0  T
   2   -127.9112522 -0.111630E-04  0.443E-02   10.20       1.0  T
   3   -127.9112549 -0.274837E-05  0.589E-03   10.18       2.0  T
   4   -127.9112553 -0.376885E-06  0.144E-03   10.19       8.0  T
   5   -127.9112553 -0.504110E-08  0.182E-04   10.19      63.5  T
   6   -127.9112553 -0.178233E-09  0.729E-05   10.19     158.3  T
     SCC iter.                  ...        0 min,  0.029 sec
     gradient                   ...        0 min,  0.013 sec
 * total energy  :  -127.1482972 Eh     change       -0.3291401E-03 Eh
   gradient norm :     0.0320624 Eh/α   predicted    -0.9569962E-03 ( 190.76%)
   displ. norm   :     0.3814824 α      lambda       -0.1828690E-02
   maximum displ.:     0.1520843 α      in ANC's #13, #15, #18, ...

........................................................................
.............................. CYCLE   20 ..............................
........................................................................
   1   -127.9183894 -0.127918E+03  0.553E-02   10.23       0.0  T
   2   -127.9183946 -0.516237E-05  0.331E-02   10.23       1.0  T
   3   -127.9183962 -0.162073E-05  0.416E-03   10.23       2.8  T
   4   -127.9183964 -0.156407E-06  0.117E-03   10.23       9.8  T
   5   -127.9183964 -0.368611E-08  0.155E-04   10.23      74.7  T
   6   -127.9183964 -0.140176E-09  0.555E-05   10.23     208.1  T
     SCC iter.                  ...        0 min,  0.027 sec
     gradient                   ...        0 min,  0.013 sec
 * total energy  :  -127.1489132 Eh     change       -0.6160027E-03 Eh
   gradient norm :     0.0301514 Eh/α   predicted    -0.1047411E-02 (  70.03%)
   displ. norm   :     0.4639842 α      lambda       -0.2564323E-02
   maximum displ.:     0.1499344 α      in ANC's #13, #4, #37, ...
 * RMSD in coord.:     0.9501969 α      energy gain  -0.2093443E-01 Eh

generating ANC from model Hessian ...
Using Lindh-Hessian (1995)
 Shifting diagonal of input Hessian by   1.011614086808301E-002
 Lowest  eigenvalues of input Hessian
    0.010000    0.010045    0.010049    0.010106    0.010110    0.000000
    0.000000    0.000000    0.000000    0.000000    0.000000    0.010143
    0.010169    0.010222    0.010241    0.010258    0.010298    0.010312
 Highest eigenvalues
    1.408206    1.414935    1.417366    1.424083    1.426054    1.427250
 

........................................................................
.............................. CYCLE   21 ..............................
........................................................................
   1   -127.8931842 -0.127893E+03  0.994E-02   10.12       0.0  T
   2   -127.8932010 -0.167850E-04  0.601E-02   10.12       1.0  T
   3   -127.8932086 -0.759965E-05  0.780E-03   10.13       1.5  T
   4   -127.8932090 -0.395269E-06  0.243E-03   10.13       4.8  T
   5   -127.8932090 -0.199040E-07  0.309E-04   10.13      37.4  T
   6   -127.8932090 -0.572612E-09  0.125E-04   10.13      92.3  T
     SCC iter.                  ...        0 min,  0.027 sec
     gradient                   ...        0 min,  0.016 sec
 * total energy  :  -127.1474773 Eh     change        0.1435917E-02 Eh
   gradient norm :     0.0556210 Eh/α   predicted     0.0000000E+00 (-100.00%)
   displ. norm   :     0.1890139 α      lambda       -0.3812478E-02
   maximum displ.:     0.0456607 α      in ANC's #97, #10, #138, ...

........................................................................
.............................. CYCLE   22 ..............................
........................................................................
   1   -127.9079689 -0.127908E+03  0.567E-02   10.20       0.0  T
   2   -127.9079745 -0.553565E-05  0.343E-02   10.19       1.0  T
   3   -127.9079768 -0.235703E-05  0.435E-03   10.19       2.7  T
   4   -127.9079770 -0.132999E-06  0.129E-03   10.19       9.0  T
   5   -127.9079770 -0.552740E-08  0.163E-04   10.19      70.9  T
   6   -127.9079770 -0.157968E-09  0.673E-05   10.19     171.6  T
     SCC iter.                  ...        0 min,  0.027 sec
     gradient                   ...        0 min,  0.013 sec
 * total energy  :  -127.1498971 Eh     change       -0.2419849E-02 Eh
   gradient norm :     0.0192882 Eh/α   predicted    -0.1974444E-02 ( -18.41%)
   displ. norm   :     0.2234477 α      lambda       -0.1272175E-02
   maximum displ.:     0.0572205 α      in ANC's #10, #17, #19, ...

........................................................................
.............................. CYCLE   23 ..............................
........................................................................
   1   -127.9175748 -0.127918E+03  0.473E-02   10.24       0.0  T
   2   -127.9175781 -0.331101E-05  0.288E-02   10.23       1.0  T
   3   -127.9175794 -0.128467E-05  0.323E-03   10.23       3.6  T
   4   -127.9175795 -0.863349E-07  0.960E-04   10.23      12.0  T
   5   -127.9175795 -0.213619E-08  0.100E-04   10.23     115.3  T
     SCC iter.                  ...        0 min,  0.023 sec
     gradient                   ...        0 min,  0.013 sec
 * total energy  :  -127.1503821 Eh     change       -0.4849478E-03 Eh
   gradient norm :     0.0121188 Eh/α   predicted    -0.6678445E-03 (  37.71%)
   displ. norm   :     0.1599128 α      lambda       -0.4596390E-03
   maximum displ.:     0.0449607 α      in ANC's #17, #10, #26, ...

........................................................................
.............................. CYCLE   24 ..............................
........................................................................
   1   -127.9173337 -0.127917E+03  0.253E-02   10.23       0.0  T
   2   -127.9173347 -0.103766E-05  0.155E-02   10.23       1.0  T
   3   -127.9173350 -0.321466E-06  0.164E-03   10.23       7.0  T
   4   -127.9173351 -0.328343E-07  0.414E-04   10.23      27.9  T
   5   -127.9173351 -0.345381E-09  0.518E-05   10.23     222.9  T
     SCC iter.                  ...        0 min,  0.023 sec
     gradient                   ...        0 min,  0.013 sec
 * total energy  :  -127.1507408 Eh     change       -0.3587425E-03 Eh
   gradient norm :     0.0094364 Eh/α   predicted    -0.2358604E-03 ( -34.25%)
   displ. norm   :     0.4417527 α      lambda       -0.8278458E-03
   maximum displ.:     0.1404789 α      in ANC's #17, #10, #19, ...

........................................................................
.............................. CYCLE   25 ..............................
........................................................................
   1   -127.9137459 -0.127914E+03  0.515E-02   10.21       0.0  T
   2   -127.9137502 -0.430312E-05  0.314E-02   10.21       1.0  T
   3   -127.9137513 -0.113420E-05  0.347E-03   10.20       3.3  T
   4   -127.9137515 -0.149534E-06  0.863E-04   10.21      13.4  T
   5   -127.9137515 -0.189904E-08  0.121E-04   10.21      95.5  T
     SCC iter.                  ...        0 min,  0.023 sec
     gradient                   ...        0 min,  0.013 sec
 * total energy  :  -127.1513741 Eh     change       -0.6333333E-03 Eh
   gradient norm :     0.0095806 Eh/α   predicted    -0.4947024E-03 ( -21.89%)
   displ. norm   :     0.6024684 α      lambda       -0.8799592E-03
   maximum displ.:     0.2010336 α      in ANC's #17, #10, #19, ...

........................................................................
.............................. CYCLE   26 ..............................
........................................................................
   1   -127.9101727 -0.127910E+03  0.604E-02   10.18       0.0  T
   2   -127.9101788 -0.613009E-05  0.368E-02   10.18       1.0  T
   3   -127.9101804 -0.156236E-05  0.417E-03   10.17       2.8  T
   4   -127.9101806 -0.217238E-06  0.101E-03   10.17      11.4  T
   5   -127.9101806 -0.264070E-08  0.144E-04   10.17      80.3  T
   6   -127.9101806 -0.865583E-10  0.621E-05   10.17     185.8  T
     SCC iter.                  ...        0 min,  0.028 sec
     gradient                   ...        0 min,  0.013 sec
 * total energy  :  -127.1521241 Eh     change       -0.7499255E-03 Eh
   gradient norm :     0.0180877 Eh/α   predicted    -0.5996845E-03 ( -20.03%)
   displ. norm   :     0.6920184 α      lambda       -0.1276065E-02
   maximum displ.:     0.2390862 α      in ANC's #17, #10, #19, ...

........................................................................
.............................. CYCLE   27 ..............................
........................................................................
   1   -127.9092219 -0.127909E+03  0.551E-02   10.16       0.0  T
   2   -127.9092273 -0.540655E-05  0.334E-02   10.15       1.0  T
   3   -127.9092287 -0.134448E-05  0.399E-03   10.14       2.9  T
   4   -127.9092288 -0.187747E-06  0.948E-04   10.14      12.2  T
   5   -127.9092288 -0.269794E-08  0.143E-04   10.14      80.6  T
     SCC iter.                  ...        0 min,  0.023 sec
     gradient                   ...        0 min,  0.013 sec
 * total energy  :  -127.1532823 Eh     change       -0.1158236E-02 Eh
   gradient norm :     0.0178759 Eh/α   predicted    -0.9435873E-03 ( -18.53%)
   displ. norm   :     0.7392951 α      lambda       -0.1831710E-02
   maximum displ.:     0.2507621 α      in ANC's #17, #10, #19, ...

........................................................................
.............................. CYCLE   28 ..............................
........................................................................
   1   -127.9140012 -0.127914E+03  0.574E-02   10.15       0.0  T
   2   -127.9140057 -0.440841E-05  0.349E-02   10.14       1.0  T
   3   -127.9140071 -0.144209E-05  0.354E-03   10.13       3.3  T
   4   -127.9140072 -0.137423E-06  0.961E-04   10.13      12.0  T
   5   -127.9140072 -0.261421E-08  0.133E-04   10.13      86.9  T
     SCC iter.                  ...        0 min,  0.023 sec
     gradient                   ...        0 min,  0.013 sec
 * total energy  :  -127.1548940 Eh     change       -0.1611716E-02 Eh
   gradient norm :     0.0133290 Eh/α   predicted    -0.1416433E-02 ( -12.12%)
   displ. norm   :     0.8326985 α      lambda       -0.1992223E-02
   maximum displ.:     0.2794375 α      in ANC's #17, #10, #13, ...

........................................................................
.............................. CYCLE   29 ..............................
........................................................................
   1   -127.9163225 -0.127916E+03  0.711E-02   10.11       0.0  T
   2   -127.9163305 -0.797307E-05  0.432E-02   10.11       1.0  T
   3   -127.9163327 -0.217597E-05  0.487E-03   10.11       2.4  T
   4   -127.9163329 -0.275236E-06  0.117E-03   10.11       9.8  T
   5   -127.9163329 -0.406754E-08  0.181E-04   10.11      63.8  T
   6   -127.9163329 -0.150820E-09  0.747E-05   10.11     154.7  T
     SCC iter.                  ...        0 min,  0.027 sec
     gradient                   ...        0 min,  0.013 sec
 * total energy  :  -127.1567105 Eh     change       -0.1816489E-02 Eh
   gradient norm :     0.0159070 Eh/α   predicted    -0.1686818E-02 (  -7.14%)
   displ. norm   :     0.7449871 α      lambda       -0.2361799E-02
   maximum displ.:     0.2365022 α      in ANC's #10, #17, #15, ...

........................................................................
.............................. CYCLE   30 ..............................
........................................................................
   1   -127.9279127 -0.127928E+03  0.757E-02   10.15       0.0  T
   2   -127.9279293 -0.165288E-04  0.453E-02   10.14       1.0  T
   3   -127.9279328 -0.356740E-05  0.725E-03   10.14       1.6  T
   4   -127.9279333 -0.504563E-06  0.147E-03   10.15       7.9  T
   5   -127.9279333 -0.758631E-08  0.274E-04   10.15      42.2  T
   6   -127.9279333 -0.321918E-09  0.102E-04   10.15     112.9  T
     SCC iter.                  ...        0 min,  0.027 sec
     gradient                   ...        0 min,  0.013 sec
 * total energy  :  -127.1580775 Eh     change       -0.1366987E-02 Eh
   gradient norm :     0.0201217 Eh/α   predicted    -0.1836325E-02 (  34.33%)
   displ. norm   :     0.6633768 α      lambda       -0.2540550E-02
   maximum displ.:     0.2023806 α      in ANC's #17, #10, #15, ...

........................................................................
.............................. CYCLE   31 ..............................
........................................................................
   1   -127.9172157 -0.127917E+03  0.987E-02    9.93       0.0  T
   2   -127.9172695 -0.537882E-04  0.597E-02    9.94       1.0  T
   3   -127.9172790 -0.950627E-05  0.127E-02    9.94       1.0  T
   4   -127.9172805 -0.150581E-05  0.256E-03    9.94       4.5  T
   5   -127.9172805 -0.226213E-07  0.406E-04    9.94      28.5  T
   6   -127.9172805 -0.988834E-09  0.146E-04    9.94      79.0  T
     SCC iter.                  ...        0 min,  0.027 sec
     gradient                   ...        0 min,  0.013 sec
 * total energy  :  -127.1577431 Eh     change        0.3344177E-03 Eh
   gradient norm :     0.0425923 Eh/α   predicted    -0.1829298E-02 (-647.01%)
   displ. norm   :     0.2243534 α      lambda       -0.3685822E-02
   maximum displ.:     0.0675433 α      in ANC's #72, #22, #58, ...

........................................................................
.............................. CYCLE   32 ..............................
........................................................................
   1   -127.9189630 -0.127919E+03  0.709E-02   10.06       0.0  T
   2   -127.9189959 -0.328813E-04  0.419E-02   10.07       1.0  T
   3   -127.9190026 -0.668777E-05  0.104E-02   10.07       1.1  T
   4   -127.9190034 -0.832986E-06  0.222E-03   10.07       5.2  T
   5   -127.9190035 -0.164669E-07  0.286E-04   10.07      40.4  T
   6   -127.9190035 -0.554962E-09  0.106E-04   10.07     108.8  T
     SCC iter.                  ...        0 min,  0.027 sec
     gradient                   ...        0 min,  0.013 sec
 * total energy  :  -127.1591731 Eh     change       -0.1430075E-02 Eh
   gradient norm :     0.0302706 Eh/α   predicted    -0.1935670E-02 (  35.35%)
   displ. norm   :     0.3519707 α      lambda       -0.2555180E-02
   maximum displ.:     0.1159968 α      in ANC's #9, #1, #86, ...

........................................................................
.............................. CYCLE   33 ..............................
........................................................................
   1   -127.9093024 -0.127909E+03  0.866E-02    9.94       0.0  T
   2   -127.9093250 -0.225777E-04  0.526E-02    9.94       1.0  T
   3   -127.9093355 -0.105011E-04  0.891E-03    9.94       1.3  T
   4   -127.9093361 -0.545748E-06  0.302E-03    9.94       3.8  T
   5   -127.9093361 -0.364596E-07  0.329E-04    9.94      35.1  T
   6   -127.9093361 -0.659995E-09  0.143E-04    9.94      81.0  T
     SCC iter.                  ...        0 min,  0.027 sec
     gradient                   ...        0 min,  0.013 sec
 * total energy  :  -127.1568201 Eh     change        0.2353057E-02 Eh
   gradient norm :     0.0621602 Eh/α   predicted    -0.1435857E-02 (-161.02%)
   displ. norm   :     0.2777720 α      lambda       -0.6271171E-02
   maximum displ.:     0.0612604 α      in ANC's #86, #21, #19, ...

........................................................................
.............................. CYCLE   34 ..............................
........................................................................
   1   -127.9278070 -0.127928E+03  0.826E-02   10.11       0.0  T
   2   -127.9278277 -0.206713E-04  0.490E-02   10.12       1.0  T
   3   -127.9278352 -0.743696E-05  0.861E-03   10.13       1.3  T
   4   -127.9278357 -0.592617E-06  0.252E-03   10.13       4.6  T
   5   -127.9278358 -0.204083E-07  0.280E-04   10.13      41.2  T
   6   -127.9278358 -0.478153E-09  0.114E-04   10.13     101.2  T
     SCC iter.                  ...        0 min,  0.027 sec
     gradient                   ...        0 min,  0.013 sec
 * total energy  :  -127.1596316 Eh     change       -0.2811538E-02 Eh
   gradient norm :     0.0234896 Eh/α   predicted    -0.3377515E-02 (  20.13%)
   displ. norm   :     0.5264654 α      lambda       -0.2520180E-02
   maximum displ.:     0.1726212 α      in ANC's #17, #10, #13, ...

........................................................................
.............................. CYCLE   35 ..............................
........................................................................
   1   -127.9126588 -0.127913E+03  0.103E-01    9.97       0.0  T
   2   -127.9127149 -0.560343E-04  0.616E-02    9.96       1.0  T
   3   -127.9127257 -0.108516E-04  0.136E-02    9.96       1.0  T
   4   -127.9127273 -0.154060E-05  0.288E-03    9.96       4.0  T
   5   -127.9127273 -0.281099E-07  0.417E-04    9.96      27.7  T
   6   -127.9127273 -0.103223E-08  0.169E-04    9.96      68.2  T
     SCC iter.                  ...        0 min,  0.027 sec
     gradient                   ...        0 min,  0.013 sec
 * total energy  :  -127.1585979 Eh     change        0.1033695E-02 Eh
   gradient norm :     0.0501551 Eh/α   predicted    -0.1609348E-02 (-255.69%)
   displ. norm   :     0.2160150 α      lambda       -0.3574218E-02
   maximum displ.:     0.0561596 α      in ANC's #13, #75, #60, ...

........................................................................
.............................. CYCLE   36 ..............................
........................................................................
   1   -127.9220635 -0.127922E+03  0.604E-02   10.06       0.0  T
   2   -127.9220820 -0.184885E-04  0.362E-02   10.06       1.0  T
   3   -127.9220862 -0.417161E-05  0.785E-03   10.07       1.5  T
   4   -127.9220867 -0.522343E-06  0.187E-03   10.06       6.2  T
   5   -127.9220867 -0.104359E-07  0.248E-04   10.06      46.5  T
   6   -127.9220867 -0.390799E-09  0.883E-05   10.06     130.8  T
     SCC iter.                  ...        0 min,  0.027 sec
     gradient                   ...        0 min,  0.013 sec
 * total energy  :  -127.1604262 Eh     change       -0.1828298E-02 Eh
   gradient norm :     0.0060863 Eh/α   predicted    -0.1870499E-02 (   2.31%)
   displ. norm   :     0.2497982 α      lambda       -0.4360591E-03
   maximum displ.:     0.0771632 α      in ANC's #22, #21, #13, ...

........................................................................
.............................. CYCLE   37 ..............................
........................................................................
   1   -127.9223416 -0.127922E+03  0.293E-02   10.06       0.0  T
   2   -127.9223488 -0.719025E-05  0.170E-02   10.06       1.0  T
   3   -127.9223499 -0.113661E-05  0.489E-03   10.06       2.4  T
   4   -127.9223500 -0.120482E-06  0.748E-04   10.06      15.4  T
   5   -127.9223500 -0.209727E-08  0.134E-04   10.06      85.9  T
     SCC iter.                  ...        0 min,  0.023 sec
     gradient                   ...        0 min,  0.013 sec
 * total energy  :  -127.1605161 Eh     change       -0.8988734E-04 Eh
   gradient norm :     0.0129389 Eh/α   predicted    -0.2316355E-03 ( 157.70%)
   displ. norm   :     0.4230398 α      lambda       -0.7329647E-03
   maximum displ.:     0.2074533 α      in ANC's #1, #10, #9, ...

........................................................................
.............................. CYCLE   38 ..............................
........................................................................
   1   -127.9227812 -0.127923E+03  0.313E-02   10.06       0.0  T
   2   -127.9227842 -0.303230E-05  0.187E-02   10.06       1.0  T
   3   -127.9227849 -0.682991E-06  0.306E-03   10.07       3.8  T
   4   -127.9227850 -0.913408E-07  0.675E-04   10.07      17.1  T
   5   -127.9227850 -0.159571E-08  0.112E-04   10.07     103.0  T
     SCC iter.                  ...        0 min,  0.023 sec
     gradient                   ...        0 min,  0.013 sec
 * total energy  :  -127.1610882 Eh     change       -0.5720865E-03 Eh
   gradient norm :     0.0085890 Eh/α   predicted    -0.4320713E-03 ( -24.47%)
   displ. norm   :     0.6163742 α      lambda       -0.9538489E-03
   maximum displ.:     0.3306072 α      in ANC's #1, #9, #10, ...

........................................................................
.............................. CYCLE   39 ..............................
........................................................................
   1   -127.9211882 -0.127921E+03  0.443E-02   10.04       0.0  T
   2   -127.9211961 -0.799225E-05  0.267E-02   10.04       1.0  T
   3   -127.9211978 -0.165426E-05  0.501E-03   10.04       2.3  T
   4   -127.9211980 -0.240492E-06  0.106E-03   10.04      10.9  T
   5   -127.9211980 -0.375421E-08  0.167E-04   10.04      69.2  T
   6   -127.9211980 -0.141270E-09  0.642E-05   10.04     179.8  T
     SCC iter.                  ...        0 min,  0.028 sec
     gradient                   ...        0 min,  0.013 sec
 * total energy  :  -127.1618317 Eh     change       -0.7434670E-03 Eh
   gradient norm :     0.0123468 Eh/α   predicted    -0.6581167E-03 ( -11.48%)
   displ. norm   :     0.7219909 α      lambda       -0.1051719E-02
   maximum displ.:     0.4018453 α      in ANC's #1, #9, #10, ...

........................................................................
.............................. CYCLE   40 ..............................
........................................................................
   1   -127.9184255 -0.127918E+03  0.517E-02    9.99       0.0  T
   2   -127.9184326 -0.711197E-05  0.313E-02    9.99       1.0  T
   3   -127.9184344 -0.172547E-05  0.451E-03    9.99       2.6  T
   4   -127.9184346 -0.230831E-06  0.105E-03    9.99      11.0  T
   5   -127.9184346 -0.342506E-08  0.155E-04    9.99      74.4  T
   6   -127.9184346 -0.107349E-09  0.659E-05    9.99     175.3  T
     SCC iter.                  ...        0 min,  0.027 sec
     gradient                   ...        0 min,  0.013 sec
 * total energy  :  -127.1628215 Eh     change       -0.9898546E-03 Eh
   gradient norm :     0.0160800 Eh/α   predicted    -0.7999751E-03 ( -19.18%)
   displ. norm   :     0.8032506 α      lambda       -0.1507852E-02
   maximum displ.:     0.4568900 α      in ANC's #1, #9, #2, ...

........................................................................
.............................. CYCLE   41 ..............................
........................................................................
   1   -127.9168829 -0.127917E+03  0.592E-02    9.96       0.0  T
   2   -127.9168911 -0.825996E-05  0.359E-02    9.96       1.0  T
   3   -127.9168934 -0.230455E-05  0.507E-03    9.96       2.3  T
   4   -127.9168937 -0.265670E-06  0.122E-03    9.96       9.5  T
   5   -127.9168937 -0.445117E-08  0.180E-04    9.96      64.0  T
   6   -127.9168937 -0.142123E-09  0.764E-05    9.96     151.1  T
     SCC iter.                  ...        0 min,  0.028 sec
     gradient                   ...        0 min,  0.013 sec
 * total energy  :  -127.1641882 Eh     change       -0.1366726E-02 Eh
   gradient norm :     0.0183606 Eh/α   predicted    -0.1240371E-02 (  -9.25%)
   displ. norm   :     0.7649755 α      lambda       -0.1737465E-02
   maximum displ.:     0.4525219 α      in ANC's #1, #9, #2, ...

........................................................................
.............................. CYCLE   42 ..............................
........................................................................
   1   -127.9167421 -0.127917E+03  0.616E-02    9.93       0.0  T
   2   -127.9167524 -0.102981E-04  0.370E-02    9.93       1.0  T
   3   -127.9167548 -0.237916E-05  0.600E-03    9.92       1.9  T
   4   -127.9167551 -0.326856E-06  0.122E-03    9.93       9.4  T
   5   -127.9167551 -0.437095E-08  0.187E-04    9.93      61.8  T
   6   -127.9167551 -0.152312E-09  0.789E-05    9.93     146.3  T
     SCC iter.                  ...        0 min,  0.027 sec
     gradient                   ...        0 min,  0.013 sec
 * total energy  :  -127.1654814 Eh     change       -0.1293125E-02 Eh
   gradient norm :     0.0228140 Eh/α   predicted    -0.1377104E-02 (   6.49%)
   displ. norm   :     0.4256553 α      lambda       -0.1345936E-02
   maximum displ.:     0.2237853 α      in ANC's #1, #9, #3, ...
 * RMSD in coord.:     0.9100270 α      energy gain  -0.1656820E-01 Eh

generating ANC from model Hessian ...
Using Lindh-Hessian (1995)
 Shifting diagonal of input Hessian by   1.013354670565890E-002
 Lowest  eigenvalues of input Hessian
    0.010000    0.010079    0.010107    0.000000    0.000000    0.000000
    0.000000    0.000000    0.000000    0.010141    0.010189    0.010209
    0.010245    0.010275    0.010297    0.010330    0.010371    0.010405
 Highest eigenvalues
    1.413273    1.414847    1.415841    1.416993    1.418677    1.420320
 

........................................................................
.............................. CYCLE   43 ..............................
........................................................................
   1   -127.9248779 -0.127925E+03  0.477E-02    9.98       0.0  T
   2   -127.9248846 -0.671133E-05  0.285E-02    9.98       1.0  T
   3   -127.9248860 -0.141684E-05  0.474E-03    9.97       2.4  T
   4   -127.9248862 -0.201326E-06  0.965E-04    9.97      12.0  T
   5   -127.9248862 -0.299936E-08  0.167E-04    9.97      69.0  T
     SCC iter.                  ...        0 min,  0.023 sec
     gradient                   ...        0 min,  0.013 sec
 * total energy  :  -127.1662793 Eh     change       -0.7979508E-03 Eh
   gradient norm :     0.0182852 Eh/α   predicted     0.0000000E+00 (-100.00%)
   displ. norm   :     0.2162318 α      lambda       -0.1389380E-02
   maximum displ.:     0.0521832 α      in ANC's #2, #91, #87, ...

........................................................................
.............................. CYCLE   44 ..............................
........................................................................
   1   -127.9257193 -0.127926E+03  0.453E-02    9.97       0.0  T
   2   -127.9257227 -0.335019E-05  0.277E-02    9.97       1.0  T
   3   -127.9257238 -0.111635E-05  0.301E-03    9.97       3.8  T
   4   -127.9257239 -0.103666E-06  0.893E-04    9.97      12.9  T
   5   -127.9257239 -0.205154E-08  0.115E-04    9.97     100.8  T
     SCC iter.                  ...        0 min,  0.024 sec
     gradient                   ...        0 min,  0.013 sec
 * total energy  :  -127.1672224 Eh     change       -0.9430781E-03 Eh
   gradient norm :     0.0080492 Eh/α   predicted    -0.7271859E-03 ( -22.89%)
   displ. norm   :     0.2915344 α      lambda       -0.9650605E-03
   maximum displ.:     0.0913879 α      in ANC's #55, #59, #2, ...

........................................................................
.............................. CYCLE   45 ..............................
........................................................................
   1   -127.9251255 -0.127925E+03  0.479E-02    9.97       0.0  T
   2   -127.9251304 -0.487193E-05  0.292E-02    9.97       1.0  T
   3   -127.9251320 -0.157327E-05  0.376E-03    9.97       3.1  T
   4   -127.9251321 -0.158970E-06  0.113E-03    9.97      10.2  T
   5   -127.9251321 -0.418684E-08  0.152E-04    9.97      76.0  T
   6   -127.9251321 -0.139082E-09  0.595E-05    9.97     194.0  T
     SCC iter.                  ...        0 min,  0.027 sec
     gradient                   ...        0 min,  0.018 sec
 * total energy  :  -127.1677793 Eh     change       -0.5569349E-03 Eh
   gradient norm :     0.0111789 Eh/α   predicted    -0.5239983E-03 (  -5.91%)
   displ. norm   :     0.2366247 α      lambda       -0.5110759E-03
   maximum displ.:     0.0904881 α      in ANC's #2, #13, #25, ...

........................................................................
.............................. CYCLE   46 ..............................
........................................................................
   1   -127.9253488 -0.127925E+03  0.307E-02    9.97       0.0  T
   2   -127.9253502 -0.130751E-05  0.185E-02    9.97       1.0  T
   3   -127.9253505 -0.340131E-06  0.199E-03    9.97       5.8  T
   4   -127.9253505 -0.446655E-07  0.474E-04    9.97      24.3  T
   5   -127.9253505 -0.815334E-09  0.838E-05    9.97     137.7  T
     SCC iter.                  ...        0 min,  0.023 sec
     gradient                   ...        0 min,  0.013 sec
 * total energy  :  -127.1681668 Eh     change       -0.3874203E-03 Eh
   gradient norm :     0.0092156 Eh/α   predicted    -0.2698852E-03 ( -30.34%)
   displ. norm   :     0.3920031 α      lambda       -0.6383883E-03
   maximum displ.:     0.1411963 α      in ANC's #2, #13, #55, ...

........................................................................
.............................. CYCLE   47 ..............................
........................................................................
   1   -127.9257093 -0.127926E+03  0.420E-02    9.96       0.0  T
   2   -127.9257126 -0.333898E-05  0.254E-02    9.96       1.0  T
   3   -127.9257135 -0.898094E-06  0.322E-03    9.95       3.6  T
   4   -127.9257136 -0.108363E-06  0.743E-04    9.95      15.5  T
   5   -127.9257136 -0.209424E-08  0.134E-04    9.95      86.2  T
     SCC iter.                  ...        0 min,  0.023 sec
     gradient                   ...        0 min,  0.013 sec
 * total energy  :  -127.1685705 Eh     change       -0.4037942E-03 Eh
   gradient norm :     0.0080633 Eh/α   predicted    -0.3682458E-03 (  -8.80%)
   displ. norm   :     0.2885324 α      lambda       -0.3075485E-03
   maximum displ.:     0.1127457 α      in ANC's #2, #13, #9, ...

........................................................................
.............................. CYCLE   48 ..............................
........................................................................
   1   -127.9253114 -0.127925E+03  0.297E-02    9.96       0.0  T
   2   -127.9253131 -0.173967E-05  0.180E-02    9.96       1.0  T
   3   -127.9253136 -0.474066E-06  0.226E-03    9.96       5.1  T
   4   -127.9253137 -0.569450E-07  0.554E-04    9.96      20.9  T
   5   -127.9253137 -0.105393E-08  0.950E-05    9.96     121.5  T
     SCC iter.                  ...        0 min,  0.023 sec
     gradient                   ...        0 min,  0.013 sec
 * total energy  :  -127.1687497 Eh     change       -0.1791596E-03 Eh
   gradient norm :     0.0068428 Eh/α   predicted    -0.1665764E-03 (  -7.02%)
   displ. norm   :     0.2237045 α      lambda       -0.2497680E-03
   maximum displ.:     0.0968084 α      in ANC's #2, #9, #13, ...

........................................................................
.............................. CYCLE   49 ..............................
........................................................................
   1   -127.9267428 -0.127927E+03  0.205E-02    9.97       0.0  T
   2   -127.9267439 -0.111086E-05  0.125E-02    9.97       1.0  T
   3   -127.9267441 -0.260443E-06  0.176E-03    9.97       6.6  T
   4   -127.9267442 -0.383997E-07  0.432E-04    9.97      26.7  T
   5   -127.9267442 -0.524992E-09  0.593E-05    9.97     194.6  T
     SCC iter.                  ...        0 min,  0.023 sec
     gradient                   ...        0 min,  0.013 sec
 * total energy  :  -127.1689369 Eh     change       -0.1871886E-03 Eh
   gradient norm :     0.0061900 Eh/α   predicted    -0.1311351E-03 ( -29.94%)
   displ. norm   :     0.3368530 α      lambda       -0.3156157E-03
   maximum displ.:     0.1554949 α      in ANC's #2, #9, #13, ...

........................................................................
.............................. CYCLE   50 ..............................
........................................................................
   1   -127.9261760 -0.127926E+03  0.296E-02    9.96       0.0  T
   2   -127.9261779 -0.197691E-05  0.180E-02    9.96       1.0  T
   3   -127.9261784 -0.467043E-06  0.235E-03    9.96       4.9  T
   4   -127.9261785 -0.706762E-07  0.587E-04    9.96      19.7  T
   5   -127.9261785 -0.101144E-08  0.760E-05    9.96     151.9  T
     SCC iter.                  ...        0 min,  0.023 sec
     gradient                   ...        0 min,  0.013 sec
 * total energy  :  -127.1691692 Eh     change       -0.2323218E-03 Eh
   gradient norm :     0.0061418 Eh/α   predicted    -0.1757162E-03 ( -24.37%)
   displ. norm   :     0.3953166 α      lambda       -0.2846767E-03
   maximum displ.:     0.2019416 α      in ANC's #2, #13, #9, ...

........................................................................
.............................. CYCLE   51 ..............................
........................................................................
   1   -127.9242242 -0.127924E+03  0.349E-02    9.95       0.0  T
   2   -127.9242258 -0.152707E-05  0.213E-02    9.95       1.0  T
   3   -127.9242263 -0.505762E-06  0.202E-03    9.95       5.7  T
   4   -127.9242263 -0.481137E-07  0.594E-04    9.95      19.4  T
   5   -127.9242263 -0.109715E-08  0.880E-05    9.95     131.2  T
     SCC iter.                  ...        0 min,  0.023 sec
     gradient                   ...        0 min,  0.013 sec
 * total energy  :  -127.1693852 Eh     change       -0.2159352E-03 Eh
   gradient norm :     0.0080598 Eh/α   predicted    -0.1645894E-03 ( -23.78%)
   displ. norm   :     0.4372982 α      lambda       -0.3277988E-03
   maximum displ.:     0.2219447 α      in ANC's #2, #9, #13, ...

........................................................................
.............................. CYCLE   52 ..............................
........................................................................
   1   -127.9232329 -0.127923E+03  0.339E-02    9.94       0.0  T
   2   -127.9232347 -0.174599E-05  0.206E-02    9.94       1.0  T
   3   -127.9232352 -0.522252E-06  0.220E-03    9.94       5.2  T
   4   -127.9232353 -0.573597E-07  0.622E-04    9.94      18.6  T
   5   -127.9232353 -0.132329E-08  0.969E-05    9.94     119.1  T
     SCC iter.                  ...        0 min,  0.023 sec
     gradient                   ...        0 min,  0.013 sec
 * total energy  :  -127.1696304 Eh     change       -0.2452620E-03 Eh
   gradient norm :     0.0077388 Eh/α   predicted    -0.1952426E-03 ( -20.39%)
   displ. norm   :     0.5271245 α      lambda       -0.3904685E-03
   maximum displ.:     0.2829833 α      in ANC's #2, #13, #9, ...

........................................................................
.............................. CYCLE   53 ..............................
........................................................................
   1   -127.9206195 -0.127921E+03  0.439E-02    9.93       0.0  T
   2   -127.9206232 -0.372685E-05  0.265E-02    9.93       1.0  T
   3   -127.9206240 -0.787055E-06  0.324E-03    9.93       3.6  T
   4   -127.9206241 -0.130220E-06  0.731E-04    9.93      15.8  T
   5   -127.9206241 -0.187565E-08  0.123E-04    9.93      93.6  T
     SCC iter.                  ...        0 min,  0.023 sec
     gradient                   ...        0 min,  0.013 sec
 * total energy  :  -127.1699021 Eh     change       -0.2716682E-03 Eh
   gradient norm :     0.0083143 Eh/α   predicted    -0.2494872E-03 (  -8.16%)
   displ. norm   :     0.4242607 α      lambda       -0.3421991E-03
   maximum displ.:     0.2323698 α      in ANC's #2, #24, #10, ...

........................................................................
.............................. CYCLE   54 ..............................
........................................................................
   1   -127.9235682 -0.127924E+03  0.323E-02    9.96       0.0  T
   2   -127.9235718 -0.365629E-05  0.194E-02    9.96       1.0  T
   3   -127.9235725 -0.636848E-06  0.337E-03    9.96       3.4  T
   4   -127.9235726 -0.114426E-06  0.646E-04    9.96      17.9  T
   5   -127.9235726 -0.148938E-08  0.108E-04    9.96     107.0  T
     SCC iter.                  ...        0 min,  0.023 sec
     gradient                   ...        0 min,  0.013 sec
 * total energy  :  -127.1701322 Eh     change       -0.2300878E-03 Eh
   gradient norm :     0.0084813 Eh/α   predicted    -0.2018981E-03 ( -12.25%)
   displ. norm   :     0.5284248 α      lambda       -0.3688730E-03
   maximum displ.:     0.2807049 α      in ANC's #2, #24, #9, ...

........................................................................
.............................. CYCLE   55 ..............................
........................................................................
   1   -127.9220832 -0.127922E+03  0.416E-02    9.95       0.0  T
   2   -127.9220868 -0.360049E-05  0.251E-02    9.95       1.0  T
   3   -127.9220876 -0.822846E-06  0.334E-03    9.95       3.5  T
   4   -127.9220877 -0.120946E-06  0.736E-04    9.95      15.7  T
   5   -127.9220877 -0.163112E-08  0.124E-04    9.95      93.5  T
     SCC iter.                  ...        0 min,  0.023 sec
     gradient                   ...        0 min,  0.013 sec
 * total energy  :  -127.1703526 Eh     change       -0.2204433E-03 Eh
   gradient norm :     0.0101689 Eh/α   predicted    -0.2359410E-03 (   7.03%)
   displ. norm   :     0.4046663 α      lambda       -0.3968739E-03
   maximum displ.:     0.2247064 α      in ANC's #2, #24, #4, ...

........................................................................
.............................. CYCLE   56 ..............................
........................................................................
   1   -127.9263554 -0.127926E+03  0.316E-02    9.97       0.0  T
   2   -127.9263568 -0.144779E-05  0.192E-02    9.96       1.0  T
   3   -127.9263573 -0.504561E-06  0.212E-03    9.96       5.4  T
   4   -127.9263574 -0.446182E-07  0.620E-04    9.96      18.6  T
   5   -127.9263574 -0.137130E-08  0.929E-05    9.96     124.4  T
     SCC iter.                  ...        0 min,  0.023 sec
     gradient                   ...        0 min,  0.013 sec
 * total energy  :  -127.1706198 Eh     change       -0.2671998E-03 Eh
   gradient norm :     0.0075283 Eh/α   predicted    -0.2309332E-03 ( -13.57%)
   displ. norm   :     0.5267110 α      lambda       -0.4316777E-03
   maximum displ.:     0.2989200 α      in ANC's #2, #24, #4, ...

........................................................................
.............................. CYCLE   57 ..............................
........................................................................
   1   -127.9248376 -0.127925E+03  0.453E-02    9.96       0.0  T
   2   -127.9248403 -0.268465E-05  0.276E-02    9.96       1.0  T
   3   -127.9248413 -0.100002E-05  0.278E-03    9.96       4.2  T
   4   -127.9248414 -0.775847E-07  0.859E-04    9.96      13.4  T
   5   -127.9248414 -0.234262E-08  0.117E-04    9.96      98.5  T
     SCC iter.                  ...        0 min,  0.023 sec
     gradient                   ...        0 min,  0.013 sec
 * total energy  :  -127.1708831 Eh     change       -0.2632813E-03 Eh
   gradient norm :     0.0114328 Eh/α   predicted    -0.2757196E-03 (   4.72%)
   displ. norm   :     0.4925088 α      lambda       -0.5034671E-03
   maximum displ.:     0.2681530 α      in ANC's #2, #24, #6, ...

........................................................................
.............................. CYCLE   58 ..............................
........................................................................
   1   -127.9252396 -0.127925E+03  0.406E-02    9.95       0.0  T
   2   -127.9252430 -0.342979E-05  0.246E-02    9.94       1.0  T
   3   -127.9252440 -0.939339E-06  0.320E-03    9.94       3.6  T
   4   -127.9252441 -0.117596E-06  0.877E-04    9.94      13.2  T
   5   -127.9252441 -0.247806E-08  0.114E-04    9.94     101.3  T
     SCC iter.                  ...        0 min,  0.023 sec
     gradient                   ...        0 min,  0.013 sec
 * total energy  :  -127.1711428 Eh     change       -0.2597025E-03 Eh
   gradient norm :     0.0131042 Eh/α   predicted    -0.3127964E-03 (  20.44%)
   displ. norm   :     0.4926517 α      lambda       -0.6516549E-03
   maximum displ.:     0.2774972 α      in ANC's #2, #24, #6, ...

........................................................................
.............................. CYCLE   59 ..............................
........................................................................
   1   -127.9220707 -0.127922E+03  0.489E-02    9.91       0.0  T
   2   -127.9220747 -0.401455E-05  0.297E-02    9.91       1.0  T
   3   -127.9220761 -0.143294E-05  0.352E-03    9.91       3.3  T
   4   -127.9220762 -0.117096E-06  0.106E-03    9.91      10.9  T
   5   -127.9220762 -0.401279E-08  0.152E-04    9.91      76.1  T
   6   -127.9220762 -0.125524E-09  0.625E-05    9.91     184.8  T
     SCC iter.                  ...        0 min,  0.027 sec
     gradient                   ...        0 min,  0.013 sec
 * total energy  :  -127.1712748 Eh     change       -0.1320388E-03 Eh
   gradient norm :     0.0206050 Eh/α   predicted    -0.4049103E-03 ( 206.66%)
   displ. norm   :     0.2915502 α      lambda       -0.7617923E-03
   maximum displ.:     0.1664473 α      in ANC's #2, #24, #4, ...

........................................................................
.............................. CYCLE   60 ..............................
........................................................................
   1   -127.9220373 -0.127922E+03  0.324E-02    9.90       0.0  T
   2   -127.9220394 -0.205288E-05  0.196E-02    9.91       1.0  T
   3   -127.9220400 -0.622589E-06  0.254E-03    9.91       4.5  T
   4   -127.9220401 -0.630056E-07  0.705E-04    9.91      16.4  T
   5   -127.9220401 -0.122347E-08  0.895E-05    9.91     129.0  T
     SCC iter.                  ...        0 min,  0.023 sec
     gradient                   ...        0 min,  0.013 sec
 * total energy  :  -127.1716831 Eh     change       -0.4082928E-03 Eh
   gradient norm :     0.0105707 Eh/α   predicted    -0.4132655E-03 (   1.22%)
   displ. norm   :     0.4147011 α      lambda       -0.4789252E-03
   maximum displ.:     0.2353737 α      in ANC's #2, #24, #4, ...

........................................................................
.............................. CYCLE   61 ..............................
........................................................................
   1   -127.9254275 -0.127925E+03  0.316E-02    9.92       0.0  T
   2   -127.9254288 -0.137318E-05  0.192E-02    9.92       1.0  T
   3   -127.9254293 -0.432559E-06  0.195E-03    9.92       5.9  T
   4   -127.9254293 -0.414665E-07  0.585E-04    9.92      19.7  T
   5   -127.9254293 -0.896293E-09  0.760E-05    9.92     151.8  T
     SCC iter.                  ...        0 min,  0.023 sec
     gradient                   ...        0 min,  0.013 sec
 * total energy  :  -127.1719537 Eh     change       -0.2705302E-03 Eh
   gradient norm :     0.0093723 Eh/α   predicted    -0.2806475E-03 (   3.74%)
   displ. norm   :     0.5383049 α      lambda       -0.5273286E-03
   maximum displ.:     0.3000749 α      in ANC's #2, #24, #4, ...

........................................................................
.............................. CYCLE   62 ..............................
........................................................................
   1   -127.9254019 -0.127925E+03  0.463E-02    9.92       0.0  T
   2   -127.9254046 -0.270604E-05  0.283E-02    9.92       1.0  T
   3   -127.9254056 -0.990751E-06  0.274E-03    9.92       4.2  T
   4   -127.9254057 -0.739379E-07  0.823E-04    9.92      14.0  T
   5   -127.9254057 -0.215915E-08  0.125E-04    9.92      92.1  T
     SCC iter.                  ...        0 min,  0.024 sec
     gradient                   ...        0 min,  0.013 sec
 * total energy  :  -127.1722620 Eh     change       -0.3083779E-03 Eh
   gradient norm :     0.0118217 Eh/α   predicted    -0.3400684E-03 (  10.28%)
   displ. norm   :     0.5530190 α      lambda       -0.6739130E-03
   maximum displ.:     0.3214468 α      in ANC's #2, #24, #1, ...

........................................................................
.............................. CYCLE   63 ..............................
........................................................................
   1   -127.9228292 -0.127923E+03  0.505E-02    9.89       0.0  T
   2   -127.9228317 -0.246829E-05  0.306E-02    9.89       1.0  T
   3   -127.9228325 -0.854941E-06  0.268E-03    9.90       4.3  T
   4   -127.9228326 -0.713870E-07  0.781E-04    9.89      14.8  T
   5   -127.9228326 -0.179145E-08  0.114E-04    9.89     101.3  T
     SCC iter.                  ...        0 min,  0.023 sec
     gradient                   ...        0 min,  0.013 sec
 * total energy  :  -127.1725730 Eh     change       -0.3109795E-03 Eh
   gradient norm :     0.0144772 Eh/α   predicted    -0.4400114E-03 (  41.49%)
   displ. norm   :     0.3462807 α      lambda       -0.5466157E-03
   maximum displ.:     0.1209874 α      in ANC's #2, #20, #25, ...

........................................................................
.............................. CYCLE   64 ..............................
........................................................................
   1   -127.9335539 -0.127934E+03  0.371E-02    9.96       0.0  T
   2   -127.9335573 -0.337979E-05  0.219E-02    9.96       1.0  T
   3   -127.9335583 -0.102305E-05  0.340E-03    9.96       3.4  T
   4   -127.9335584 -0.970256E-07  0.920E-04    9.96      12.5  T
   5   -127.9335584 -0.304216E-08  0.141E-04    9.96      81.8  T
     SCC iter.                  ...        0 min,  0.023 sec
     gradient                   ...        0 min,  0.013 sec
 * total energy  :  -127.1725442 Eh     change        0.2885393E-04 Eh
   gradient norm :     0.0189274 Eh/α   predicted    -0.3060837E-03 (*******%)
   displ. norm   :     0.4748216 α      lambda       -0.9730291E-03
   maximum displ.:     0.2605335 α      in ANC's #2, #24, #4, ...

........................................................................
.............................. CYCLE   65 ..............................
........................................................................
   1   -127.9239214 -0.127924E+03  0.485E-02    9.88       0.0  T
   2   -127.9239269 -0.546212E-05  0.289E-02    9.88       1.0  T
   3   -127.9239285 -0.160243E-05  0.429E-03    9.88       2.7  T
   4   -127.9239287 -0.148569E-06  0.108E-03    9.88      10.7  T
   5   -127.9239287 -0.429684E-08  0.192E-04    9.88      60.0  T
   6   -127.9239287 -0.172264E-09  0.671E-05    9.88     172.1  T
     SCC iter.                  ...        0 min,  0.027 sec
     gradient                   ...        0 min,  0.013 sec
 * total energy  :  -127.1728230 Eh     change       -0.2788798E-03 Eh
   gradient norm :     0.0165447 Eh/α   predicted    -0.5962050E-03 ( 113.79%)
   displ. norm   :     0.1755348 α      lambda       -0.6937947E-03
   maximum displ.:     0.0693782 α      in ANC's #2, #1, #25, ...

........................................................................
.............................. CYCLE   66 ..............................
........................................................................
   1   -127.9231288 -0.127923E+03  0.362E-02    9.87       0.0  T
   2   -127.9231313 -0.244911E-05  0.220E-02    9.87       1.0  T
   3   -127.9231324 -0.111037E-05  0.281E-03    9.88       4.1  T
   4   -127.9231325 -0.568314E-07  0.900E-04    9.88      12.8  T
   5   -127.9231325 -0.264360E-08  0.104E-04    9.88     111.4  T
     SCC iter.                  ...        0 min,  0.023 sec
     gradient                   ...        0 min,  0.013 sec
 * total energy  :  -127.1729245 Eh     change       -0.1015068E-03 Eh
   gradient norm :     0.0169061 Eh/α   predicted    -0.3575899E-03 ( 252.28%)
   displ. norm   :     0.2429287 α      lambda       -0.5770130E-03
   maximum displ.:     0.1246801 α      in ANC's #2, #32, #1, ...
 * RMSD in coord.:     0.8908991 α      energy gain  -0.7443180E-02 Eh

generating ANC from model Hessian ...
Using Lindh-Hessian (1995)
 Shifting diagonal of input Hessian by   1.007947563338700E-002
 Lowest  eigenvalues of input Hessian
    0.010000    0.010043    0.000000    0.000000    0.000000    0.000000
    0.000000    0.000000    0.010083    0.010144    0.010155    0.010180
    0.010295    0.010323    0.010380    0.010421    0.010436    0.010457
 Highest eigenvalues
    1.406634    1.407026    1.410282    1.418630    1.423134    1.426412
 

........................................................................
.............................. CYCLE   67 ..............................
[...]
    64   8 o       66   1 h                                       0.9888679
    67   8 o       68   1 h                                       0.9572329
    67   8 o       69   1 h                                       0.9834581
    70   8 o       71   1 h                                       0.9575707
    70   8 o       72   1 h                                       0.9852442
    73   8 o       74   1 h                                       0.9566594 (min)
    73   8 o       75   1 h                                       0.9941675

 * 1 distinct bonds (by element types)

   Z      Z             #   av. dist./Å        max./Å        min./Å
   1 H    8 O          48     0.9736209     1.0002929     0.9566594

           -------------------------------------------------
          |               Frequency Printout                |
           -------------------------------------------------
 projected vibrational frequencies (cm⁻¹)
eigval :       -0.00    -0.00    -0.00     0.00     0.00     0.00
eigval :       23.36    26.06    30.17    33.21    35.78    36.17
eigval :       40.53    44.49    47.25    48.44    49.79    50.85
eigval :       53.64    56.96    57.65    60.36    60.66    63.92
eigval :       67.68    69.45    71.79    74.23    79.64    81.89
eigval :       85.72    90.11    93.90    95.88   101.63   118.86
eigval :      130.97   135.83   144.92   151.76   158.33   159.82
eigval :      166.39   169.99   176.61   178.40   182.65   189.86
eigval :      191.07   197.61   205.53   210.78   217.74   219.92
eigval :      225.24   234.20   237.63   245.37   250.02   253.78
eigval :      256.92   262.44   264.69   266.42   274.50   280.37
eigval :      286.61   288.82   291.55   297.64   308.33   310.92
eigval :      312.89   318.70   329.60   343.09   349.44   351.08
eigval :      369.03   371.31   377.14   382.37   391.81   396.23
eigval :      399.53   411.90   417.77   422.19   427.69   435.33
eigval :      441.62   449.98   461.87   463.28   469.51   486.74
eigval :      494.08   500.88   507.32   513.11   521.27   532.09
eigval :      539.85   550.81   553.42   558.19   558.77   569.65
eigval :      575.11   585.03   586.75   592.63   595.54   596.34
eigval :      603.41   606.58   612.65   615.95   620.07   627.66
eigval :      638.85   647.27   655.92   666.12   689.62   693.40
eigval :      700.58   702.75   712.81   721.15   729.29   737.70
eigval :      753.12   757.99   767.47   776.42   781.53   803.75
eigval :      808.72   827.07   833.78   845.08   868.48   889.04
eigval :      911.69   944.16   944.99   962.62   966.31   983.67
eigval :     1489.38  1506.56  1508.91  1513.71  1515.13  1518.19
eigval :     1521.50  1524.18  1524.75  1526.22  1526.35  1529.67
eigval :     1532.78  1535.04  1538.17  1543.94  1545.92  1550.11
eigval :     1552.61  1557.40  1560.24  1564.37  1571.04  1579.59
eigval :     1585.02  2795.72  2824.62  2856.63  2888.30  2937.32
eigval :     2977.53  2979.47  3069.21  3136.24  3145.60  3164.14
eigval :     3202.77  3204.79  3232.52  3242.29  3249.52  3278.58
eigval :     3290.60  3299.54  3312.07  3331.63  3344.27  3349.07
eigval :     3374.65  3383.62  3387.36  3398.40  3407.78  3412.69
eigval :     3432.56  3434.45  3438.09  3450.78  3458.71  3460.06
eigval :     3477.13  3486.42  3499.93  3505.60  3548.36  3635.94
eigval :     3640.55  3674.98  3675.19  3679.06  3680.52  3682.49
eigval :     3683.83  3684.18  3687.77
 reduced masses (amu)
   1: 14.32   2: 14.30   3: 14.29   4: 14.31   5: 14.30   6: 14.29   7: 14.28   8: 14.34
   9: 14.34  10: 14.40  11: 14.27  12: 14.47  13: 14.45  14: 14.37  15: 14.23  16: 14.42
  17: 14.25  18: 14.52  19: 14.28  20: 14.36  21: 14.27  22: 14.53  23: 14.19  24: 14.51
  25: 14.59  26: 14.42  27: 14.32  28: 14.18  29: 14.31  30: 14.28  31: 14.48  32: 14.41
  33: 14.52  34: 14.58  35: 14.43  36: 14.05  37: 12.78  38: 10.50  39: 13.13  40:  8.39
  41: 10.30  42:  9.73  43: 12.32  44: 11.19  45: 12.27  46: 11.14  47: 11.79  48: 13.53
  49: 11.43  50: 12.48  51: 13.60  52: 11.20  53: 13.08  54: 12.34  55: 10.90  56: 10.90
  57: 11.93  58: 12.87  59:  8.38  60: 11.51  61:  9.78  62: 12.47  63: 11.12  64: 11.34
  65: 10.41  66: 12.05  67: 13.33  68: 12.93  69: 11.07  70: 11.20  71: 10.89  72:  8.88
  73: 12.58  74: 10.24  75: 12.92  76:  8.70  77: 11.49  78: 11.21  79: 12.50  80: 13.12
  81: 12.83  82: 13.02  83: 10.93  84: 12.02  85:  6.40  86:  7.01  87:  1.94  88:  2.39
  89:  2.30  90:  1.94  91:  2.32  92:  2.15  93:  2.23  94:  2.13  95:  1.90  96:  1.97
  97:  1.83  98:  1.75  99:  2.04 100:  1.96 101:  1.73 102:  1.92 103:  1.60 104:  1.61
 105:  1.85 106:  1.64 107:  1.72 108:  1.69 109:  1.86 110:  1.75 111:  1.63 112:  1.70
 113:  1.73 114:  1.76 115:  1.69 116:  1.85 117:  1.68 118:  1.99 119:  1.71 120:  1.88
 121:  1.87 122:  1.72 123:  1.88 124:  1.76 125:  1.78 126:  2.00 127:  1.73 128:  1.92
 129:  1.96 130:  1.92 131:  1.96 132:  1.89 133:  2.00 134:  2.01 135:  2.06 136:  1.90
 137:  1.96 138:  2.20 139:  2.24 140:  2.27 141:  1.98 142:  1.86 143:  1.93 144:  1.99
 145:  2.02 146:  1.93 147:  2.06 148:  2.03 149:  1.91 150:  2.03 151:  1.97 152:  2.00
 153:  2.00 154:  2.06 155:  1.99 156:  2.05 157:  2.01 158:  2.03 159:  2.05 160:  2.03
 161:  2.02 162:  2.04 163:  2.05 164:  2.04 165:  2.03 166:  2.02 167:  2.00 168:  2.04
 169:  2.03 170:  2.01 171:  2.06 172:  2.06 173:  2.03 174:  2.10 175:  1.98 176:  1.90
 177:  1.89 178:  1.90 179:  1.94 180:  1.89 181:  1.89 182:  1.89 183:  1.98 184:  1.89
 185:  1.87 186:  1.89 187:  2.02 188:  2.06 189:  2.04 190:  2.04 191:  1.94 192:  2.01
 193:  1.98 194:  2.14 195:  1.67 196:  1.96 197:  1.69 198:  1.88 199:  1.75 200:  1.59
 201:  1.67 202:  2.08 203:  1.81 204:  1.78 205:  2.01 206:  1.96 207:  1.78 208:  1.65
 209:  1.65 210:  1.90 211:  1.62 212:  1.74 213:  1.66 214:  1.79 215:  1.70 216:  1.84
 217:  1.82 218:  1.83 219:  1.84 220:  1.84 221:  1.84 222:  1.84 223:  1.84 224:  1.84
 225:  1.84
 IR intensities (km·mol⁻¹)
   1:  0.19   2:  0.17   3:  0.24   4:  0.11   5:  0.11   6:  0.04   7:  1.51   8:  0.58
   9:  0.42  10:  0.89  11:  0.90  12:  0.06  13:  1.81  14:  0.31  15:  0.35  16:  1.19
  17:  1.06  18:  0.28  19:  2.81  20:  0.13  21:  0.27  22:  0.23  23:  0.73  24:  1.24
  25:  1.20  26:  0.07  27:  0.13  28:  3.41  29:  0.64  30:  1.73  31:  1.23  32:  2.51
  33:  0.63  34:  3.94  35:  1.89  36:  0.46  37:  3.09  38: 10.18  39:  0.70  40: 14.33
  41:  5.78  42: 12.82  43:  5.07  44:  3.60  45:  7.61  46:  1.96  47: 12.75  48: 11.62
  49: 21.25  50:  2.25  51:  1.71  52:  2.31  53: 11.34  54:  4.66  55: 18.25  56: 16.70
  57: 11.56  58: 32.49  59:  0.58  60: 62.25  61: 43.74  62: 34.62  63:  7.64  64: 57.85
  65: 13.10  66: 87.06  67: 32.81  68: 24.15  69: 38.27  70: 14.17  71: 12.50  72: 69.26
  73:  8.72  74:201.13  75: 59.23  76: 72.40  77:106.55  78: 47.03  79: 27.52  80: 47.76
  81: 44.88  82:  7.78  83: 81.46  84:  2.24  85: 16.55  86: 38.36  87: 11.32  88:110.03
  89: 66.03  90: 43.83  91: 51.59  92: 12.81  93: 12.42  94: 54.07  95: 10.54  96:132.17
  97: 63.20  98: 10.30  99: 20.82 100: 10.99 101: 57.35 102: 21.82 103: 47.61 104:138.13
 105:104.81 106:120.77 107: 29.86 108:190.31 109: 16.97 110: 15.50 111: 46.75 112:101.78
 113: 93.57 114: 96.19 115: 80.66 116:127.60 117: 78.29 118: 41.58 119: 40.69 120: 53.41
 121:264.69 122: 60.73 123:289.63 124: 24.09 125:127.66 126:251.28 127:424.68 128:202.04
 129:144.20 130: 40.21 131:193.81 132:189.55 133: 15.08 134: 78.72 135:126.57 136:210.98
 137:485.74 138:987.75 139:430.18 140:128.95 141:455.44 142:235.06 143:784.33 144:230.04
 145:416.80 146:102.56 147:301.86 148:473.15 149:112.48 150:215.32 151: 30.57 152:193.96
 153: 62.60 154:  2.26 155: 60.75 156:474.28 157:247.84 158:193.62 159:181.00 160: 60.61
 161:316.20 162:313.31 163:254.10 164:291.91 165: 88.03 166:522.18 167:283.07 168: 57.32
 169: 62.49 170:104.60 171:230.93 172:311.52 173: 77.83 174: 20.89 175:110.66 176:******
 177:****** 178:615.43 179:870.09 180:****** 181:****** 182:485.43 183:440.34 184:956.64
 185:795.72 186:779.06 187: 35.68 188:****** 189:110.31 190:****** 191:****** 192:518.50
 193:****** 194:666.33 195:892.28 196:353.25 197:226.51 198:439.28 199:171.24 200:282.96
 201:180.09 202:851.67 203:311.04 204:324.69 205:705.32 206:624.36 207: 47.94 208: 98.39
 209:211.09 210:293.62 211:151.21 212:181.88 213: 81.53 214:460.49 215:156.79 216: 35.59
 217: 24.73 218: 15.56 219:  9.88 220: 13.43 221:  9.50 222: 13.41 223:  6.82 224: 15.38
 225:  8.48
 Raman intensities (amu)
   1:  0.00   2:  0.00   3:  0.00   4:  0.00   5:  0.00   6:  0.00   7:  0.00   8:  0.00
   9:  0.00  10:  0.00  11:  0.00  12:  0.00  13:  0.00  14:  0.00  15:  0.00  16:  0.00
  17:  0.00  18:  0.00  19:  0.00  20:  0.00  21:  0.00  22:  0.00  23:  0.00  24:  0.00
  25:  0.00  26:  0.00  27:  0.00  28:  0.00  29:  0.00  30:  0.00  31:  0.00  32:  0.00
  33:  0.00  34:  0.00  35:  0.00  36:  0.00  37:  0.00  38:  0.00  39:  0.00  40:  0.00
  41:  0.00  42:  0.00  43:  0.00  44:  0.00  45:  0.00  46:  0.00  47:  0.00  48:  0.00
  49:  0.00  50:  0.00  51:  0.00  52:  0.00  53:  0.00  54:  0.00  55:  0.00  56:  0.00
  57:  0.00  58:  0.00  59:  0.00  60:  0.00  61:  0.00  62:  0.00  63:  0.00  64:  0.00
  65:  0.00  66:  0.00  67:  0.00  68:  0.00  69:  0.00  70:  0.00  71:  0.00  72:  0.00
  73:  0.00  74:  0.00  75:  0.00  76:  0.00  77:  0.00  78:  0.00  79:  0.00  80:  0.00
  81:  0.00  82:  0.00  83:  0.00  84:  0.00  85:  0.00  86:  0.00  87:  0.00  88:  0.00
  89:  0.00  90:  0.00  91:  0.00  92:  0.00  93:  0.00  94:  0.00  95:  0.00  96:  0.00
  97:  0.00  98:  0.00  99:  0.00 100:  0.00 101:  0.00 102:  0.00 103:  0.00 104:  0.00
 105:  0.00 106:  0.00 107:  0.00 108:  0.00 109:  0.00 110:  0.00 111:  0.00 112:  0.00
 113:  0.00 114:  0.00 115:  0.00 116:  0.00 117:  0.00 118:  0.00 119:  0.00 120:  0.00
 121:  0.00 122:  0.00 123:  0.00 124:  0.00 125:  0.00 126:  0.00 127:  0.00 128:  0.00
 129:  0.00 130:  0.00 131:  0.00 132:  0.00 133:  0.00 134:  0.00 135:  0.00 136:  0.00
 137:  0.00 138:  0.00 139:  0.00 140:  0.00 141:  0.00 142:  0.00 143:  0.00 144:  0.00
 145:  0.00 146:  0.00 147:  0.00 148:  0.00 149:  0.00 150:  0.00 151:  0.00 152:  0.00
 153:  0.00 154:  0.00 155:  0.00 156:  0.00 157:  0.00 158:  0.00 159:  0.00 160:  0.00
 161:  0.00 162:  0.00 163:  0.00 164:  0.00 165:  0.00 166:  0.00 167:  0.00 168:  0.00
 169:  0.00 170:  0.00 171:  0.00 172:  0.00 173:  0.00 174:  0.00 175:  0.00 176:  0.00
 177:  0.00 178:  0.00 179:  0.00 180:  0.00 181:  0.00 182:  0.00 183:  0.00 184:  0.00
 185:  0.00 186:  0.00 187:  0.00 188:  0.00 189:  0.00 190:  0.00 191:  0.00 192:  0.00
 193:  0.00 194:  0.00 195:  0.00 196:  0.00 197:  0.00 198:  0.00 199:  0.00 200:  0.00
 201:  0.00 202:  0.00 203:  0.00 204:  0.00 205:  0.00 206:  0.00 207:  0.00 208:  0.00
 209:  0.00 210:  0.00 211:  0.00 212:  0.00 213:  0.00 214:  0.00 215:  0.00 216:  0.00
 217:  0.00 218:  0.00 219:  0.00 220:  0.00 221:  0.00 222:  0.00 223:  0.00 224:  0.00
 225:  0.00
 output can be read by thermo (or use thermo option).
 writing <g98.out> molden fake output.
 recommended (thermochemical) frequency scaling factor: 1.0
           -------------------------------------------------
          |             Thermodynamic Functions             |
           -------------------------------------------------

Molecule has no symmetry elements
It seems to be the C1 point group
c1  symmetry found (for desy threshold:  0.10E+00) used in thermo

          ...................................................
          :                      SETUP                      :
          :.................................................:
          :  # frequencies                         219      :
          :  # imaginary freq.                       0      :
          :  linear?                             false      :
          :  only rotor calc.                    false      :
          :  symmetry                               c1      :
          :  rotational number                       1      :
          :  scaling factor                  1.0000000      :
          :  rotor cutoff                   50.0000000 cm⁻¹ :
          :  imag. cutoff                  -20.0000000 cm⁻¹ :
          :.................................................:

    mode    ω/cm⁻¹     T·S(HO)/kcal·mol⁻¹    T·S(FR)/kcal·mol⁻¹   T·S(vib)
   ------------------------------------------------------------------------
       1     23.36    -1.88608 (  4.55%)    -1.28195 ( 95.45%)    -1.30942
       2     26.06    -1.82137 (  6.87%)    -1.24956 ( 93.13%)    -1.28885
       3     30.17    -1.73475 ( 11.70%)    -1.20619 ( 88.30%)    -1.26804
       4     33.21    -1.67787 ( 16.30%)    -1.17770 ( 83.70%)    -1.25922
       5     35.78    -1.63388 ( 20.77%)    -1.15566 ( 79.23%)    -1.25500
       6     36.17    -1.62752 ( 21.49%)    -1.15247 ( 78.51%)    -1.25456
       7     40.53    -1.56025 ( 30.15%)    -1.11875 ( 69.85%)    -1.25186
       8     44.49    -1.50524 ( 38.52%)    -1.09115 ( 61.48%)    -1.25066
       9     47.25    -1.46965 ( 44.37%)    -1.07328 ( 55.63%)    -1.24915
      10     48.44    -1.45503 ( 46.83%)    -1.06594 ( 53.17%)    -1.24814
      11     49.79    -1.43881 ( 49.57%)    -1.05779 ( 50.43%)    -1.24668
      12     50.85    -1.42631 ( 51.69%)    -1.05151 ( 48.31%)    -1.24526
      13     53.64    -1.39483 ( 56.99%)    -1.03569 ( 43.01%)    -1.24036
      14     56.96    -1.35946 ( 62.75%)    -1.01790 ( 37.25%)    -1.23224
      15     57.65    -1.35247 ( 63.86%)    -1.01438 ( 36.14%)    -1.23027
      16     60.36    -1.32538 ( 67.99%)    -1.00074 ( 32.01%)    -1.22146
      17     60.66    -1.32245 ( 68.42%)    -0.99927 ( 31.58%)    -1.22039
      18     63.92    -1.29168 ( 72.76%)    -0.98377 ( 27.24%)    -1.20781
      19     67.68    -1.25812 ( 77.05%)    -0.96685 ( 22.95%)    -1.19127
      20     69.45    -1.24294 ( 78.83%)    -0.95919 ( 21.17%)    -1.18285
      21     71.79    -1.22349 ( 80.95%)    -0.94937 ( 19.05%)    -1.17128
      22     74.23    -1.20393 ( 82.93%)    -0.93949 ( 17.07%)    -1.15878
      23     79.64    -1.16267 ( 86.56%)    -0.91862 ( 13.44%)    -1.12986
      24     81.89    -1.14639 ( 87.80%)    -0.91038 ( 12.20%)    -1.11759
      25     85.72    -1.11971 ( 89.62%)    -0.89686 ( 10.38%)    -1.09658
      26     90.11    -1.09051 ( 91.34%)    -0.88204 (  8.66%)    -1.07246
      27     93.90    -1.06654 ( 92.56%)    -0.86985 (  7.44%)    -1.05190
      28     95.88    -1.05438 ( 93.11%)    -0.86367 (  6.89%)    -1.04125
      29    101.63    -1.02052 ( 94.47%)    -0.84641 (  5.53%)    -1.01088
      30    118.86    -0.92985 ( 96.96%)    -0.80001 (  3.04%)    -0.92591
      31    130.97    -0.87410 ( 97.92%)    -0.77128 (  2.08%)    -0.87196
      32    135.83    -0.85326 ( 98.20%)    -0.76049 (  1.80%)    -0.85158
      33    144.92    -0.81629 ( 98.60%)    -0.74129 (  1.40%)    -0.81524
      34    151.76    -0.79011 ( 98.84%)    -0.72763 (  1.16%)    -0.78938
      35    158.33    -0.76614 ( 99.02%)    -0.71508 (  0.98%)    -0.76564
      36    159.82    -0.76084 ( 99.05%)    -0.71230 (  0.95%)    -0.76038
      37    166.39    -0.73817 ( 99.19%)    -0.70036 (  0.81%)    -0.73786
      38    169.99    -0.72617 ( 99.26%)    -0.69403 (  0.74%)    -0.72593
      39    176.61    -0.70481 ( 99.36%)    -0.68271 (  0.64%)    -0.70467
      40    178.40    -0.69920 ( 99.39%)    -0.67973 (  0.61%)    -0.69908
      41    182.65    -0.68609 ( 99.44%)    -0.67275 (  0.56%)    -0.68601
      42    189.86    -0.66464 ( 99.52%)    -0.66128 (  0.48%)    -0.66462
      43    191.07    -0.66113 ( 99.53%)    -0.65940 (  0.47%)    -0.66112
      44    197.61    -0.64258 ( 99.59%)    -0.64943 (  0.41%)    -0.64261
      45    205.53    -0.62106 ( 99.65%)    -0.63779 (  0.35%)    -0.62112
      46    210.78    -0.60731 ( 99.68%)    -0.63032 (  0.32%)    -0.60739
      47    217.74    -0.58967 ( 99.72%)    -0.62068 (  0.28%)    -0.58976
      48    219.92    -0.58431 ( 99.73%)    -0.61775 (  0.27%)    -0.58440
      49    225.24    -0.57142 ( 99.76%)    -0.61066 (  0.24%)    -0.57151
      50    234.20    -0.55054 ( 99.79%)    -0.59910 (  0.21%)    -0.55064
      51    237.63    -0.54280 ( 99.80%)    -0.59480 (  0.20%)    -0.54290
      52    245.37    -0.52581 ( 99.83%)    -0.58530 (  0.17%)    -0.52591
      53    250.02    -0.51592 ( 99.84%)    -0.57974 (  0.16%)    -0.51602
      54    253.78    -0.50810 ( 99.85%)    -0.57532 (  0.15%)    -0.50820
      55    256.92    -0.50168 ( 99.86%)    -0.57168 (  0.14%)    -0.50178
      56    262.44    -0.49060 ( 99.87%)    -0.56538 (  0.13%)    -0.49070
      57    264.69    -0.48618 ( 99.87%)    -0.56285 (  0.13%)    -0.48628
      58    266.42    -0.48280 ( 99.88%)    -0.56092 (  0.12%)    -0.48290
      59    274.50    -0.46741 ( 99.89%)    -0.55207 (  0.11%)    -0.46750
      60    280.37    -0.45659 ( 99.90%)    -0.54580 (  0.10%)    -0.45668
      61    286.61    -0.44541 ( 99.91%)    -0.53928 (  0.09%)    -0.44549
      62    288.82    -0.44152 ( 99.91%)    -0.53700 (  0.09%)    -0.44160
      63    291.55    -0.43677 ( 99.91%)    -0.53422 (  0.09%)    -0.43686
      64    297.64    -0.42639 ( 99.92%)    -0.52809 (  0.08%)    -0.42647
   ------------------------------------------------------------------------

   temp. (K)  partition function   enthalpy   heat capacity  entropy
                                   cal/mol     cal/K/mol   cal/K/mol   J/K/mol
 298.15  VIB  0.249E+29            36381.708    195.616    234.596
         ROT  0.240E+08              888.752      2.981     36.749
         INT  0.596E+36            37270.460    198.597    271.345
         TR   0.925E+28             1481.254      4.968     44.184
         TOT                       38751.7143   203.5653   315.5289  1320.1727

       T/K    H(0)-H(T)+PV         H(T)/Eh          T*S/Eh         G(T)/Eh
   ------------------------------------------------------------------------
    298.15    0.617548E-01    0.660017E+00    0.149918E+00    0.510099E+00
   ------------------------------------------------------------------------

         :::::::::::::::::::::::::::::::::::::::::::::::::::::
         ::                  THERMODYNAMIC                  ::
         :::::::::::::::::::::::::::::::::::::::::::::::::::::
         :: total free energy        -126.664356353041 Eh   ::
         ::.................................................::
         :: total energy             -127.174455062304 Eh   ::
         :: zero point energy           0.598261860480 Eh   ::
         :: G(RRHO) w/o ZPVE           -0.088163151217 Eh   ::
         :: G(RRHO) contrib.            0.510098709263 Eh   ::
         :::::::::::::::::::::::::::::::::::::::::::::::::::::

optimized geometry written to: xtbopt.coord


           -------------------------------------------------
          | TOTAL ENERGY             -127.174455062304 Eh   |
          | TOTAL ENTHALPY           -126.514438414287 Eh   |
          | TOTAL FREE ENERGY        -126.664356353041 Eh   |
          | GRADIENT NORM               0.000421243217 Eh/α |
          | HOMO-LUMO GAP               9.846261567046 eV   |
           -------------------------------------------------

------------------------------------------------------------------------
 * finished run on 2022/10/12 at 03:16:19.239     
------------------------------------------------------------------------
 total:
 * wall-time:     0 d,  0 h,  0 min, 10.250 sec
 *  cpu-time:     0 d,  0 h,  1 min, 41.434 sec
 * ratio c/w:     9.896 speedup
 SCF:
 * wall-time:     0 d,  0 h,  0 min,  0.076 sec
 *  cpu-time:     0 d,  0 h,  0 min,  0.720 sec
 * ratio c/w:     9.494 speedup
 ANC optimizer:
 * wall-time:     0 d,  0 h,  0 min,  4.901 sec
 *  cpu-time:     0 d,  0 h,  0 min, 48.831 sec
 * ratio c/w:     9.963 speedup
 analytical hessian:
 * wall-time:     0 d,  0 h,  0 min,  5.141 sec
 *  cpu-time:     0 d,  0 h,  0 min, 50.751 sec
 * ratio c/w:     9.871 speedup

