75
 energy: -127.127978742359 gnorm: 0.047055783388 xtb: 6.5.1 (579679a)
o            1.09469497433735       -3.90843505528690       -0.25113884330002
h            0.18554599708538       -3.58502939349147       -0.17457616110338
h            1.56000459736731       -3.61637106258381        0.55045390583036
o           -3.18895514233810        2.08438611451654        2.16644941420297
h           -2.64393474210372        1.67285388589733        2.85004193958146
h           -2.65004896623623        2.79012587574034        1.77909938524043
o           -0.30462520153793       -1.17042858261128       -2.72892383571868
h           -0.30598422131151       -1.11147421518072       -1.74719156590067
h           -1.24051265260877       -1.23389058042331       -2.98165240797087
o           -3.03082185960909       -1.09982860176125       -3.25426547507893
h           -3.39134301186116       -1.54012377581199       -4.02441504732677
h           -3.23761550702373       -0.13555991952297       -3.36411523108719
o           -3.55237440832138        1.47206556402597       -3.47735994138085
h           -4.07393472213245        1.88999663385157       -2.79066298429050
h           -2.70654926979448        1.98608538723665       -3.52236808050529
o            1.97772035591277       -2.73291433414845       -2.53909799312995
h            1.73797091595623       -3.26347764572429       -1.75100406684678
h            1.17437944984475       -2.23522775882214       -2.75835305238793
o           -1.30584287504764       -3.04523606707181        2.59883213768789
h           -1.40081597963657       -3.17914155964832        1.62898133856793
h           -1.16794955234125       -3.91112914303680        2.98451189680558
o            4.26335467495862        1.10688087750659        1.53430444585157
h            3.54768491685617        1.04298101653533        2.21405524108652
h            5.05040151633874        1.37386430043690        2.01075782174795
o            0.23271094940984        2.47833341576768        2.71479518852946
h           -0.30399189019646        3.12743979904551        2.23513028813123
h           -0.39326809401350        1.90276625866683        3.18339728205392
o           -1.44403927642642        4.08011828905876        1.14151486709339
h           -0.99752748595229        4.01565592033935        0.27221577424471
h           -1.60159147680879        5.01155384364292        1.29938804654680
o           -3.77977634902341       -2.11706408098504       -0.77170767890342
h           -3.55268483299211       -1.73285705773037       -1.63566846174751
h           -4.00994967026876       -1.38303324938631       -0.18395017903339
o            4.36096540320267       -1.51156326726167        0.70351322152993
h            4.33992703665419       -0.59396942679323        1.02970144786713
h            4.23108008255267       -1.43765594451824       -0.26100349378462
o           -1.72835643294819       -3.59966109473418        0.01774101935418
h           -2.45646194519662       -3.00323840576841       -0.28671508539939
h           -1.97343824421014       -4.48203554746972       -0.26374585393061
o            2.60842381499809       -3.02437086990790        1.94485792616175
h            3.26056981839396       -2.43805846950409        1.47409579643797
h            3.13035184147499       -3.71973511559399        2.34637155541075
o           -0.01146345943667        3.74646826321354       -1.13699801951278
h            0.70788361762458        4.10364199127616       -1.67817600680361
h            0.41994339443891        2.96610909211292       -0.70776580273538
o           -3.28092767490491       -1.28460782041767        3.40962559466502
h           -3.73095228455347       -0.99359674491727        2.60028843745279
h           -2.66254128617743       -1.98503232793452        3.14436818597482
o            4.31698571078259        1.61837807655184       -1.30753871409027
h            4.19337380935115        0.71664150851225       -1.63958738868381
h            4.36459481596553        1.52383119872325       -0.34677286012735
o            0.84520717208416       -1.45644262437543        3.40087706837669
h            1.54402511114993       -1.99551114926213        2.99017029528072
h            0.02730710836649       -1.91030339496792        3.13610552094121
o            2.32250149152514        3.21040083794869       -2.54236545752680
h            3.12511022206150        2.78747634518627       -2.19731072204022
h            1.85801198421926        2.51439212582213       -3.02573939788098
o            2.39681781713037        0.91668264525312        3.40969731225851
h            1.72412139064088        1.60565298993231        3.30243525910956
h            1.91126310697876        0.08381979052325        3.51356596292154
o           -1.27086384639275        2.80756396412239       -3.43416386018819
h           -0.98897177794606        3.22319831646101       -2.60133584305576
h           -0.53918228887620        2.21308286187661       -3.67530693971593
o           -1.36262976487939        0.53100936433450        3.84532139014246
h           -0.59345693024075       -0.03962361092406        3.95796150999197
h           -2.12404823533685       -0.09272230699737        3.80786318441743
o           -4.43806619324930       -0.07696437195957        1.14588496228835
h           -5.36644629331665        0.05721573889164        1.34205070908854
h           -3.98117397263854        0.74985013723119        1.41929070662221
o            0.80054208092818        1.02515328588904       -3.78445753728913
h            1.11765443230734        0.75534636802129       -4.64660375820156
h            0.41272052040909        0.21788832998470       -3.36650487616548
o            3.98749969605172       -1.14143219420128       -1.98356121657094
h            4.71282127035832       -1.48909522424589       -2.50360762092246
h            3.20081047243812       -1.71201513416438       -2.20499922802672
75
 energy: -127.132311874860 gnorm: 0.018903974849 xtb: 6.5.1 (579679a)
o            1.10583825208599       -3.88749061140257       -0.25932987290144
h            0.18088715035208       -3.62218126627028       -0.14777168973288
h            1.57676228325163       -3.60327426638844        0.54284392921720
o           -3.18345714866496        2.07291174886297        2.15769375446289
h           -2.63380545616211        1.67120436345679        2.84425321546885
h           -2.64864824394177        2.77697180581329        1.76322067427593
o           -0.32518282038971       -1.16739445077403       -2.69402489270070
h           -0.33891682709122       -1.09663483306770       -1.72903768378918
h           -1.25924469484203       -1.22033529895620       -2.96890996675645
o           -3.00407066431226       -1.09867383837628       -3.24840059274582
h           -3.38579308511000       -1.53515628039222       -4.01144905585275
h           -3.23637468939246       -0.13738534068110       -3.33816397774075
o           -3.54948109566431        1.46275375548445       -3.46648724994181
h           -4.08041769317842        1.88861755087279       -2.79187352443315
h           -2.71247612697503        1.98884428693393       -3.52123279726584
o            1.97996040896794       -2.74145600065912       -2.55082721230170
h            1.74914477185586       -3.26210564574722       -1.75371356622388
h            1.17895374458733       -2.24426927940478       -2.77126076934983
o           -1.30480374751153       -3.05212801033367        2.59361812661535
h           -1.41690641289248       -3.20023532030201        1.62948324790363
h           -1.17054555129556       -3.91293823384082        2.99204863635572
o            4.26376151157239        1.08347779793238        1.53534242668072
h            3.53935902644556        1.05256223222586        2.21073682887518
h            5.04277586242112        1.38254336719558        2.00727114355287
o            0.23229835873177        2.49646549125554        2.73061736270899
h           -0.30789082564976        3.12479168000432        2.23118219827253
h           -0.39111254108614        1.89361303971617        3.16694288308825
o           -1.46573238192410        4.08804246325487        1.13062316434688
h           -0.99783173139056        4.03516422879508        0.27436210490434
h           -1.60449013466870        5.01923108127842        1.30874990089526
o           -3.76287500840300       -2.10518034548027       -0.76863814372654
h           -3.56508549587016       -1.71617392647605       -1.63792141168244
h           -4.00611976345789       -1.37835178552217       -0.17649905420481
o            4.36009519997577       -1.51806216931059        0.70548533328599
h            4.34095547458505       -0.60157510770828        1.03756301181165
h            4.22589745321707       -1.43780606006171       -0.25747772486785
o           -1.71283378877889       -3.57903743146622       -0.00984946343078
h           -2.47343146325243       -3.00028561808804       -0.27222050416886
h           -1.96774183005637       -4.47031375362326       -0.25609765730665
o            2.59773667847060       -3.02781335620972        1.92635227000407
h            3.25214278280710       -2.43085186093649        1.47059601543032
h            3.12409752313074       -3.70990251753195        2.34556417256655
o            0.01957732352285        3.71318085474435       -1.13068295984085
h            0.74312660214724        4.07517066087272       -1.66718468751986
h            0.43570967183199        2.94240367142151       -0.71065038529525
o           -3.29224927291368       -1.29181810914559        3.40554991242194
h           -3.72109408592052       -0.99107349586609        2.58810391789770
h           -2.66416351705920       -1.98513031527533        3.14692359310220
o            4.29889783530422        1.61745908310171       -1.31393749804163
h            4.17770322010206        0.70994339887449       -1.62874137091685
h            4.31402530171064        1.54856134018796       -0.34827217491719
o            0.84455948923263       -1.45847193560121        3.40441107191215
h            1.54621660354923       -1.97291156718387        2.96780199669429
h            0.02877132340529       -1.91282205167621        3.13921241047786
o            2.29577963357732        3.19838483916135       -2.52517110697756
h            3.09767286677280        2.80075603400931       -2.14416096178789
h            1.87726326522840        2.48890130922471       -3.03163656773543
o            2.40436849955317        0.92261650779505        3.42371094195080
h            1.73791488094638        1.60660907512239        3.24449102348253
h            1.90939653013405        0.09082720024936        3.48280150248224
o           -1.27450187507529        2.80025099116692       -3.42760731052378
h           -0.98812720504067        3.22360103328788       -2.60138515422479
h           -0.53459623786137        2.22128410929970       -3.68081520378049
o           -1.37418427860849        0.53226593211981        3.85700344540970
h           -0.59107830651436       -0.02455689111408        3.94400650083178
h           -2.12390653475363       -0.10415524268907        3.81567739421307
o           -4.42545076096842       -0.07348426194181        1.12543163531164
h           -5.35021218308473        0.05590153568767        1.34300497909344
h           -3.96402450168059        0.74565166766886        1.41573432682958
o            0.79285676776397        1.02863833185487       -3.79172459767322
h            1.13449394323377        0.76690381541498       -4.64748146456704
h            0.43968501846235        0.20949696930330       -3.37552928420698
o            3.98695453602992       -1.14213886479233       -1.98584640758227
h            4.71767166018872       -1.48512242411475       -2.50140552386881
h            3.20741027855590       -1.71725220025320       -2.20999023112043
75
 energy: -127.134310622890 gnorm: 0.012791259018 xtb: 6.5.1 (579679a)
o            1.11703108449575       -3.87531327963274       -0.26450375651040
h            0.18080092327271       -3.65564194593718       -0.13873766090864
h            1.59139142408938       -3.57439439593580        0.53122952125070
o           -3.17047326392473        2.05320979571252        2.14155906810594
h           -2.61720920529780        1.66943490812714        2.83707919426585
h           -2.64698360096658        2.76288393648275        1.74292578184883
o           -0.34760072448603       -1.15345811044576       -2.65533394159416
h           -0.36991925698278       -1.09439761507294       -1.70220522902900
h           -1.28111282579614       -1.20102541034840       -2.94775661089376
o           -2.99079922884925       -1.09653264611999       -3.23066347174178
h           -3.37183235177776       -1.52411573321557       -3.99914211239951
h           -3.20569421363375       -0.13114799571878       -3.31955441356866
o           -3.54973092727020        1.45531606255645       -3.45404513687105
h           -4.08370448572203        1.88543314338883       -2.78461183484426
h           -2.71485247613133        1.98383006284105       -3.51375710193317
o            1.97832783934240       -2.74765582867866       -2.56391708455379
h            1.75939776863163       -3.25989920394884       -1.75722525343297
h            1.17603744200369       -2.25524568979632       -2.78210892571528
o           -1.31017292919263       -3.06256992906903        2.59207650343012
h           -1.42871744054493       -3.22247158206897        1.63196021327716
h           -1.17151011242979       -3.91702756404990        3.00304483531056
o            4.25764525933271        1.07448926316836        1.52899441738977
h            3.53065367146633        1.04140201895085        2.20216670267113
h            5.03044321960698        1.38910247497480        2.00124830396746
o            0.23310698451250        2.49471643110667        2.71358535684211
h           -0.31508269774356        3.12568370173598        2.23118814032389
h           -0.37893147675258        1.89816464080721        3.16936896127148
o           -1.48241726123223        4.09851804573576        1.12169034736244
h           -1.00415110046779        4.05419579426240        0.27336467303547
h           -1.60805533674540        5.02864706876454        1.31718491050634
o           -3.74998445794801       -2.09032400910624       -0.75730177928800
h           -3.56150800884714       -1.69612352705359       -1.62603803867147
h           -3.98389103932898       -1.36698422042660       -0.15661234343021
o            4.35849804449878       -1.52254437977288        0.70949991764625
h            4.34878432810196       -0.60546858859318        1.04477028467302
h            4.22555367892959       -1.43827044204991       -0.25270815876142
o           -1.70458262739187       -3.55570551594207       -0.02078649297855
h           -2.47540031572335       -2.99106065952651       -0.28940125066516
h           -1.95080453775341       -4.45312106401170       -0.25402092748647
o            2.58465038947533       -3.01963876824551        1.91072887510827
h            3.23910094117513       -2.42671067273217        1.44787232185057
h            3.11348726928240       -3.69437059239039        2.33908031817053
o            0.05558273940062        3.67734932313469       -1.11124776447083
h            0.79097166718233        4.01089205584013       -1.65587586259033
h            0.42913016527524        2.89238115012778       -0.70740013973641
o           -3.30161877496901       -1.29918061428939        3.39902402808179
h           -3.71142730409972       -0.99099393532852        2.57424480388746
h           -2.66869508498057       -1.98970192682328        3.14788858375167
o            4.24295363848925        1.61858743609479       -1.31012155657707
h            4.16327148021644        0.70404081534050       -1.61987366164074
h            4.26525883676220        1.56097288350682       -0.34469116304822
o            0.84090713500807       -1.43906274802380        3.37448067252560
h            1.54159938758690       -1.96057274497475        2.94876024483850
h            0.02517475165934       -1.91608154390329        3.15284752131188
o            2.28021660479167        3.18890075021627       -2.50918800211558
h            3.06962603667373        2.79520663998196       -2.09497955286220
h            1.88365375956034        2.47602413830626       -3.02830540944054
o            2.40235515929467        0.93651357673716        3.40801992651662
h            1.73874469821166        1.61663430763380        3.20403184224987
h            1.90506908512467        0.10783983069339        3.46629268692568
o           -1.27563770866719        2.79823327869575       -3.42055342728832
h           -0.98604399516981        3.21423325510419       -2.59316589805415
h           -0.53605162103675        2.22286549520566       -3.68283908283154
o           -1.38170215708410        0.53284817844153        3.84764111781304
h           -0.59290417193890       -0.01434313102972        3.94123375120271
h           -2.12807686208954       -0.10685841017994        3.82329789320439
o           -4.40450688006585       -0.07273914158906        1.10476595688903
h           -5.32585679204144        0.05500003175751        1.33887431542286
h           -3.93934289289699        0.74317664045111        1.40175417773912
o            0.80404949002764        1.03116172764517       -3.79690527224191
h            1.14971814049947        0.76383534357102       -4.64928999721488
h            0.45107124055445        0.22036560662813       -3.37611481646169
o            3.98289844057944       -1.14095367956023       -1.98684989024723
h            4.72064264725354       -1.47839596706168       -2.49636756234130
h            3.21104452788096       -1.72193331609263       -2.21457023509971
75
 energy: -127.135842501709 gnorm: 0.013671392675 xtb: 6.5.1 (579679a)
o            1.12290510106183       -3.87242097862361       -0.27012225870757
h            0.18951099589282       -3.66140131731252       -0.14689670574567
h            1.60154667956090       -3.55358113023847        0.51801432714246
o           -3.15770729030884        2.03904842610927        2.12815599853926
h           -2.59387423151522        1.65745819672580        2.81692171381636
h           -2.64090974318963        2.74653848734698        1.71740307855627
o           -0.36120711354896       -1.13416601219909       -2.61520940487148
h           -0.38962270106866       -1.09653621451111       -1.66369757426766
h           -1.29414655324023       -1.18360410266301       -2.91691873236659
o           -2.97902802292068       -1.09012683299474       -3.21569752359805
h           -3.35532603471747       -1.51253241180052       -3.98904759450452
h           -3.19930863605145       -0.12413895500743       -3.29526070970009
o           -3.54944317410591        1.45272668022940       -3.44070807046634
h           -4.08540421035657        1.88555496017794       -2.77483790849691
h           -2.71283414313584        1.97774579416327       -3.49937740534985
o            1.97508123705969       -2.75008312029797       -2.57520676316002
h            1.76435756877541       -3.25811324653260       -1.76293345913549
h            1.17132737111090       -2.25959257084565       -2.78723753501729
o           -1.31586106492833       -3.07762198836898        2.59721308273434
h           -1.43724765613212       -3.23682665758670        1.63758905235709
h           -1.17178557819895       -3.92983164117795        3.01034778034401
o            4.25176410220952        1.06634918821995        1.52132124589752
h            3.52205201004364        1.03594837226848        2.19343521447888
h            5.01914855279409        1.39625340544749        1.99183604993612
o            0.23305319691281        2.50208594872307        2.70585138020980
h           -0.31605828094410        3.12791123629353        2.21887471668270
h           -0.37692089216948        1.90301075895460        3.15996304559657
o           -1.49720425297869        4.11038572349895        1.11387626394835
h           -1.00449925086065        4.06875993844201        0.27495907044192
h           -1.61127704842930        5.03967421523440        1.32029263366537
o           -3.73718581121446       -2.07867335748285       -0.74552947925405
h           -3.54587499650619       -1.68002143000242       -1.61089876091871
h           -3.95787103522029       -1.35609018461482       -0.13722460507945
o            4.36306299550574       -1.52696151510412        0.71108392644880
h            4.35256600721227       -0.60983312999699        1.04900299382041
h            4.21832705898674       -1.44110122576100       -0.24879832339878
o           -1.69249169206608       -3.53669901626630       -0.02310719383423
h           -2.46513603730617       -2.97261054740552       -0.29536121311476
h           -1.93695573193079       -4.43376086378524       -0.25670977482269
o            2.57278221685749       -3.00581878851079        1.89434286664798
h            3.23448791056959       -2.41647160418591        1.43406215713079
h            3.09682521243116       -3.67873246541616        2.33101712659841
o            0.08173970418587        3.63822024092911       -1.08730763539746
h            0.85060383401429        3.90918004548950       -1.63401754684414
h            0.38542739097782        2.82392856343814       -0.67786952110987
o           -3.30666320691605       -1.30751826457149        3.39211368080056
h           -3.70218978360468       -0.99255735647000        2.56289906652543
h           -2.67200890855445       -1.99687902323646        3.14449414468216
o            4.19570003166899        1.61672491718581       -1.30021444414945
h            4.11650449125588        0.70240446474688       -1.60771513862950
h            4.20343656045672        1.56577708075243       -0.33422970359424
o            0.83185817877954       -1.42999026155787        3.36358395891307
h            1.53568873304405       -1.92921401839289        2.91436802467561
h            0.02040837135156       -1.90733985005959        3.13647177932286
o            2.28369244267113        3.18561597139599       -2.51169722048372
h            3.04441156599678        2.77394379424295       -2.05575384026385
h            1.88237718317127        2.47354981589087       -3.02314962929907
o            2.39536054559045        0.94937665151554        3.38343978463943
h            1.73423611498713        1.62653934894398        3.16769411663169
h            1.89806400436272        0.12150700169977        3.44226829542609
o           -1.27411201179030        2.79682859642930       -3.40890784739859
h           -0.97847958151387        3.20812742813801       -2.58196688755543
h           -0.53415319855508        2.22758345267003       -3.68249026163862
o           -1.39037188445562        0.53685939469268        3.84988714458276
h           -0.59696964320769       -0.00769360262149        3.92163165656657
h           -2.13525141110343       -0.10292355948029        3.82536835664211
o           -4.37781349531528       -0.07396753432218        1.08750728679682
h           -5.29659658018159        0.05700052835786        1.32841687615653
h           -3.90747987618115        0.74082913573582        1.38439872466575
o            0.81505831473066        1.03319611479922       -3.80312236486348
h            1.16710553477094        0.75210325657311       -4.64870231048114
h            0.46237756637840        0.23355873232682       -3.36767196903965
o            3.98060312865468       -1.14154712966734       -1.98565949043186
h            4.72293197825141       -1.47148922371260       -2.49363234416097
h            3.21275062441051       -1.72378145002351       -2.22021211974303
75
 energy: -127.137494338984 gnorm: 0.021103543954 xtb: 6.5.1 (579679a)
o            1.13452076863055       -3.86300676053556       -0.28496717823755
h            0.20278280577216       -3.66489200804342       -0.15610983415000
h            1.61479077279860       -3.54450056634241        0.50326651804260
o           -3.13254637559175        2.02132865566294        2.10539513888122
h           -2.56053343807577        1.64307893874203        2.79015321920737
h           -2.62902174516970        2.73610601509722        1.69133809928511
o           -0.36935267073557       -1.10409620324204       -2.56235804106623
h           -0.40728253435420       -1.11070277600595       -1.60551602335313
h           -1.30057535485008       -1.15992136772910       -2.87272379426060
o           -2.96957737607359       -1.07862964019446       -3.19656791293265
h           -3.33148771632788       -1.49748602213525       -3.97819628403293
h           -3.19908353518065       -0.11264814934006       -3.26759305644865
o           -3.54909066066152        1.45367731618930       -3.42018566783536
h           -4.08950631247382        1.88800455227063       -2.75912060975497
h           -2.71126293668971        1.97610155215360       -3.47590931191248
o            1.96872893512282       -2.74648394223842       -2.59126126730267
h            1.76456957578804       -3.25766281405929       -1.77925580616576
h            1.16240597992034       -2.25653687883806       -2.79172930897414
o           -1.32371422386914       -3.09706332062108        2.60451180782624
h           -1.44050870449077       -3.25099053962333        1.64298706929956
h           -1.17347007054366       -3.94799572316882        3.01685290305720
o            4.24242315909174        1.05880517404551        1.50936097756154
h            3.51146487839701        1.03451966265575        2.18346847634220
h            5.00561206050103        1.40578838176507        1.97350061741251
o            0.22877702507457        2.50491324981949        2.68063368101427
h           -0.32059900089821        3.13707249420870        2.20222339468066
h           -0.37822633811225        1.91769216366868        3.15274254253502
o           -1.50892656955512        4.12419236735787        1.10050090334621
h           -0.99543314192663        4.08466255137237        0.27417992169038
h           -1.61394981820208        5.05147414096967        1.31731601569142
o           -3.71887450069471       -2.06735894414481       -0.73047727332350
h           -3.52637177121441       -1.66619930124237       -1.59399089676783
h           -3.93037468758664       -1.34372782491719       -0.11735309845513
o            4.37074176600900       -1.53041444084957        0.71089233445492
h            4.36334479700395       -0.61234677043833        1.04856362701306
h            4.21883625503262       -1.44572018264844       -0.24751504073857
o           -1.67351235384995       -3.51645368492537       -0.02299699320720
h           -2.44662647601401       -2.94448891233383       -0.28954456137331
h           -1.92412570419887       -4.40949369530857       -0.26203149446783
o            2.55792669815494       -2.97872825599665        1.87401386405848
h            3.23627459367923       -2.39785263854655        1.42192269433225
h            3.06714368080969       -3.65692222157842        2.31918724795777
o            0.11013934765761        3.57148868299128       -1.05723091186642
h            0.93537925266648        3.74308098231146       -1.59792923693391
h            0.31258876415320        2.72962032768984       -0.61027303591731
o           -3.30848187776450       -1.31467646014293        3.38226941157170
h           -3.69189493041858       -0.99815979480165        2.54871785705723
h           -2.67707824578967       -2.00913431946387        3.14158276088315
o            4.11217069066309        1.61484664479970       -1.27652235295175
h            4.06095427072601        0.70099711268799       -1.59341486377407
h            4.13479008518006        1.55726073295857       -0.31281977033213
o            0.81500547632792       -1.40310363137496        3.32324686712856
h            1.51749907894399       -1.90517461295788        2.87710190999295
h            0.00620338805374       -1.90041388150358        3.12767759277317
o            2.27293232806562        3.17910979133719       -2.49614939173070
h            3.01609089504338        2.74908199680160       -2.03003374282603
h            1.88206014293693        2.48176943383527       -3.03774815909444
o            2.38270248508977        0.96853698928658        3.34649312073195
h            1.72440135271432        1.64403441218823        3.12583056896814
h            1.88660483879927        0.14106884424058        3.41383511551565
o           -1.27035834300973        2.79315458178416       -3.38927802087953
h           -0.96065089920709        3.20473718080810       -2.56754100037154
h           -0.52972834688832        2.23524349977169       -3.68252872233162
o           -1.39893636548394        0.54111909362801        3.84112512091420
h           -0.60316270937859       -0.00207431310656        3.89607770786237
h           -2.14436970711692       -0.09688609187751        3.82849644115756
o           -4.33927070582380       -0.07582972028063        1.06722305934869
h           -5.25688607871276        0.05660920084744        1.30799962825676
h           -3.86760761275995        0.74177975424180        1.36129083971334
o            0.82991057410000        1.03620422702055       -3.80885011157490
h            1.19030108101202        0.73199848137508       -4.64357314703823
h            0.47685949106259        0.25244465016882       -3.34832203992087
o            3.97455958167793       -1.14124489768729       -1.98167896137830
h            4.72199406190923       -1.45908826367771       -2.49005266841425
h            3.21083265339635       -1.72344097985072       -2.22762411234232
75
 energy: -127.138954647089 gnorm: 0.015467358360 xtb: 6.5.1 (579679a)
o            1.14483924704307       -3.85741147768402       -0.29937254266890
h            0.21288915170236       -3.66397962805366       -0.16971832517928
h            1.62141051526735       -3.53843669514670        0.49083654261102
o           -3.11019748327843        2.01531501987823        2.08739832289485