      -----------------------------------------------------------      
     |                   =====================                   |     
     |                           x T B                           |     
     |                   =====================                   |     
     |                         S. Grimme                         |     
     |          Mulliken Center for Theoretical Chemistry        |     
     |                    University of Bonn                     |     
      -----------------------------------------------------------      

   * xtb version 6.5.1 (579679a) compiled by 'ehlert@majestix' on 2022-07-11

   xtb is free software: you can redistribute it and/or modify it under
   the terms of the GNU Lesser General Public License as published by
   the Free Software Foundation, either version 3 of the License, or
   (at your option) any later version.
   
   xtb is distributed in the hope that it will be useful,
   but WITHOUT ANY WARRANTY; without even the implied warranty of
   MERCHANTABILITY or FITNESS FOR A PARTICULAR PURPOSE.  See the
   GNU Lesser General Public License for more details.
   
   Cite this work as:
   * C. Bannwarth, E. Caldeweyher, S. Ehlert, A. Hansen, P. Pracht,
     J. Seibert, S. Spicher, S. Grimme, WIREs Comput. Mol. Sci., 2020, 11,
     e01493. DOI: 10.1002/wcms.1493
   
   for GFN2-xTB:
   * C. Bannwarth, S. Ehlert and S. Grimme., J. Chem. Theory Comput., 2019,
     15, 1652-1671. DOI: 10.1021/acs.jctc.8b01176
   for GFN1-xTB:
   * S. Grimme, C. Bannwarth, P. Shushkov, J. Chem. Theory Comput., 2017,
     13, 1989-2009. DOI: 10.1021/acs.jctc.7b00118
   for GFN0-xTB:
   * P. Pracht, E. Caldeweyher, S. Ehlert, S. Grimme, ChemRxiv, 2019, preprint.
     DOI: 10.26434/chemrxiv.8326202.v1
   for GFN-FF:
   * S. Spicher and S. Grimme, Angew. Chem. Int. Ed., 2020, 59, 15665-15673.
     DOI: 10.1002/anie.202004239
   
   for ALPB and GBSA implicit solvation:
   * S. Ehlert, M. Stahn, S. Spicher, S. Grimme, J. Chem. Theory Comput.,
     2021, 17, 4250-4261. DOI: 10.1021/acs.jctc.1c00471
   
   for DFT-D4:
   * E. Caldeweyher, C. Bannwarth and S. Grimme, J. Chem. Phys., 2017,
     147, 034112. DOI: 10.1063/1.4993215
   * E. Caldeweyher, S. Ehlert, A. Hansen, H. Neugebauer, S. Spicher,
     C. Bannwarth and S. Grimme, J. Chem. Phys., 2019, 150, 154122.
     DOI: 10.1063/1.5090222
   * E. Caldeweyher, J.-M. Mewes, S. Ehlert and S. Grimme, Phys. Chem. Chem. Phys.
     2020, 22, 8499-8512. DOI: 10.1039/D0CP00502A
   
   for sTDA-xTB:
   * S. Grimme and C. Bannwarth, J. Chem. Phys., 2016, 145, 054103.
     DOI: 10.1063/1.4959605
   
   in the mass-spec context:
   * V. Asgeirsson, C. Bauer and S. Grimme, Chem. Sci., 2017, 8, 4879.
     DOI: 10.1039/c7sc00601b
   * J. Koopman and S. Grimme, ACS Omega 2019, 4, 12, 15120-15133.
     DOI: 10.1021/acsomega.9b02011
   
   for metadynamics refer to:
   * S. Grimme, J. Chem. Theory Comput., 2019, 155, 2847-2862
     DOI: 10.1021/acs.jctc.9b00143
   
   for SPH calculations refer to:
   * S. Spicher and S. Grimme, J. Chem. Theory Comput., 2021, 17, 1701-1714
     DOI: 10.1021/acs.jctc.0c01306
   
   with help from (in alphabetical order)
   P. Atkinson, C. Bannwarth, F. Bohle, G. Brandenburg, E. Caldeweyher
   M. Checinski, S. Dohm, S. Ehlert, S. Ehrlich, I. Gerasimov, C. Hölzer
   A. Katbashev, J. Koopman, C. Lavigne, S. Lehtola, F. März, M. Müller,
   F. Musil, H. Neugebauer, J. Pisarek, C. Plett, P. Pracht, F. Pultar,
   J. Seibert, P. Shushkov, S. Spicher, M. Stahn, M. Steiner, T. Strunk,
   J. Stückrath, T. Rose, and J. Unsleber
   
 * started run on 2022/11/17 at 06:48:47.986     

           -------------------------------------------------
          |                Calculation Setup                |
           -------------------------------------------------

          program call               : xtb solvent_cluster.coord --gfn2 --input xcontrol --opt 1
          hostname                   : cn0363
          coordinate file            : solvent_cluster.coord
          omp threads                :                     2

   ID    Z sym.   atoms
    1    8 o      1, 4, 7, 10, 13, 16, 19, 22, 25, 28, 31, 34, 37, 40, 43,
                  46, 49, 52, 55, 58, 61, 64, 67, 70, 73, 76, 79, 82, 85, 88,
                  91, 94, 97, 100, 103, 106, 109, 112, 115, 118, 121, 124,
                  127, 130, 133, 136, 139, 142, 145, 148, 151, 154, 157, 160,
                  163, 166, 169, 172, 175, 178, 181, 184, 187, 190, 193, 196,
                  199, 202, 205, 208, 211, 214, 217, 220, 223, 226, 229, 232,
                  235, 238, 241, 244, 247, 250, 253, 256, 259, 262, 265, 268,
                  271, 274, 277, 280, 283, 286, 289, 292, 295, 298, 301, 304,
                  307, 310, 313, 316, 319, 322, 325, 328, 331, 334, 337, 340,
                  343, 346, 349, 352, 355, 358, 361, 364, 367, 370, 373, 376,
                  379, 382, 385, 388, 391, 394, 397, 400, 403, 406, 409, 412,
                  415, 418, 421, 424, 427, 430, 433, 436, 439, 442, 445, 448,
                  451, 454, 457, 460, 463, 466, 469, 472, 475, 478, 481, 484,
                  487, 490, 493, 496, 499, 502, 505, 508, 511, 514, 517, 520,
                  523, 526, 529
    2    1 h      2, 3, 5, 6, 8, 9, 11, 12, 14, 15, 17, 18, 20, 21, 23, 24,
                  26, 27, 29, 30, 32, 33, 35, 36, 38, 39, 41, 42, 44, 45, 47,
                  48, 50, 51, 53, 54, 56, 57, 59, 60, 62, 63, 65, 66, 68, 69,
                  71, 72, 74, 75, 77, 78, 80, 81, 83, 84, 86, 87, 89, 90, 92,
                  93, 95, 96, 98, 99, 101, 102, 104, 105, 107, 108, 110, 111,
                  113, 114, 116, 117, 119, 120, 122, 123, 125, 126, 128, 129,
                  131, 132, 134, 135, 137, 138, 140, 141, 143, 144, 146, 147,
                  149, 150, 152, 153, 155, 156, 158, 159, 161, 162, 164, 165,
                  167, 168, 170, 171, 173, 174, 176, 177, 179, 180, 182, 183,
                  185, 186, 188, 189, 191, 192, 194, 195, 197, 198, 200, 201,
                  203, 204, 206, 207, 209, 210, 212, 213, 215, 216, 218, 219,
                  221, 222, 224, 225, 227, 228, 230, 231, 233, 234, 236, 237,
                  239, 240, 242, 243, 245, 246, 248, 249, 251, 252, 254, 255,
                  257, 258, 260, 261, 263, 264, 266, 267, 269, 270, 272, 273,
                  275, 276, 278, 279, 281, 282, 284, 285, 287, 288, 290, 291,
                  293, 294, 296, 297, 299, 300, 302, 303, 305, 306, 308, 309,
                  311, 312, 314, 315, 317, 318, 320, 321, 323, 324, 326, 327,
                  329, 330, 332, 333, 335, 336, 338, 339, 341, 342, 344, 345,
                  347, 348, 350, 351, 353, 354, 356, 357, 359, 360, 362, 363,
                  365, 366, 368, 369, 371, 372, 374, 375, 377, 378, 380, 381,
                  383, 384, 386, 387, 389, 390, 392, 393, 395, 396, 398, 399,
                  401, 402, 404, 405, 407, 408, 410, 411, 413, 414, 416, 417,
                  419, 420, 422, 423, 425, 426, 428, 429, 431, 432, 434, 435,
                  437, 438, 440, 441, 443, 444, 446, 447, 449, 450, 452, 453,
                  455, 456, 458, 459, 461, 462, 464, 465, 467, 468, 470, 471,
                  473, 474, 476, 477, 479, 480, 482, 483, 485, 486, 488, 489,
                  491, 492, 494, 495, 497, 498, 500, 501, 503, 504, 506, 507,
                  509, 510, 512, 513, 515, 516, 518, 519, 521, 522, 524, 525,
                  527, 528, 530, 531

molecular fragmentation (1/2 indicates fragments):
111222222222222222222222222222222222222222222222222222222222222222222222
222222222222222222222222222222222222222222222222222222222222222222222222
222222222222222222222222222222222222222222222222222222222222222222222222
222222222222222222222222222222222222222222222222222222222222222222222222
222222222222222222222222222222222222222222222222222222222222222222222222
222222222222222222222222222222222222222222222222222222222222222222222222
222222222222222222222222222222222222222222222222222222222222222222222222
222222222222222222222222222
# atoms in fragment 1/2:     3   528
 fragment masses (1/2) :       18.02     3170.69
CMA distance (Bohr)    :   5.020
constraining FC (au)   :  0.0500

           -------------------------------------------------
          |                 G F N 2 - x T B                 |
           -------------------------------------------------

        Reference                      10.1021/acs.jctc.8b01176
      * Hamiltonian:
        H0-scaling (s, p, d)           1.850000    2.230000    2.230000
        zeta-weighting                 0.500000
      * Dispersion:
        s8                             2.700000
        a1                             0.520000
        a2                             5.000000
        s9                             5.000000
      * Repulsion:
        kExp                           1.500000    1.000000
        rExp                           1.000000
      * Coulomb:
        alpha                          2.000000
        third order                    shell-resolved
        anisotropic                    true
        a3                             3.000000
        a5                             4.000000
        cn-shift                       1.200000
        cn-exp                         4.000000
        max-rad                        5.000000


          ...................................................
          :                      SETUP                      :
          :.................................................:
          :  # basis functions                1062          :
          :  # atomic orbitals                1062          :
          :  # shells                          708          :
          :  # electrons                      1416          :
          :  max. iterations                   250          :
          :  Hamiltonian                  GFN2-xTB          :
          :  restarted?                      false          :
          :  GBSA solvation                  false          :
          :  PC potential                    false          :
          :  electronic temp.          300.0000000     K    :
          :  accuracy                    1.0000000          :
          :  -> integral cutoff          0.2500000E+02      :
          :  -> integral neglect         0.1000000E-07      :
          :  -> SCF convergence          0.1000000E-05 Eh   :
          :  -> wf. convergence          0.1000000E-03 e    :
          :  Broyden damping             0.4000000          :
          ...................................................

 iter      E             dE          RMSdq      gap      omega  full diag
   1   -906.5550904 -0.906555E+03  0.406E+00    8.55       0.0  T
   2   -906.6154378 -0.603474E-01  0.241E+00    7.29       1.0  T
   3   -906.6385047 -0.230670E-01  0.217E-01    5.68       1.0  T
   4   -906.6426512 -0.414648E-02  0.469E-02    6.13       1.0  T
   5   -906.6427237 -0.724822E-04  0.313E-02    6.06       1.0  T
   6   -906.6427537 -0.299668E-04  0.439E-03    6.09       1.0  T
   7   -906.6427555 -0.183524E-05  0.756E-04    6.09       5.7  T
   8   -906.6427555 -0.204578E-07  0.390E-04    6.09      11.1  T
   9   -906.6427555 -0.104760E-07  0.618E-05    6.09      70.2  T

   *** convergence criteria satisfied after 9 iterations ***

         #    Occupation            Energy/Eh            Energy/eV
      -------------------------------------------------------------
         1        2.0000           -0.7055214             -19.1982
       ...           ...                  ...                  ...
       702        2.0000           -0.3532022              -9.6111
       703        2.0000           -0.3479426              -9.4680
       704        2.0000           -0.3407462              -9.2722
       705        2.0000           -0.3323110              -9.0426
       706        2.0000           -0.3128215              -8.5123
       707        2.0000           -0.3111327              -8.4664
       708        2.0000           -0.2995200              -8.1504 (HOMO)
       709                         -0.0757098              -2.0602 (LUMO)
       710                         -0.0719676              -1.9583
       711                         -0.0519545              -1.4138
       712                         -0.0444688              -1.2101
       713                         -0.0413465              -1.1251
       ...                                ...                  ...
      1062                          0.5317007              14.4683
      -------------------------------------------------------------
                  HL-Gap            0.2238102 Eh            6.0902 eV
             Fermi-level           -0.1876149 Eh           -5.1053 eV

 SCC (total)                   0 d,  0 h,  0 min,  8.399 sec
 SCC setup                      ...        0 min,  0.033 sec (  0.397%)
 Dispersion                     ...        0 min,  0.086 sec (  1.019%)
 classical contributions        ...        0 min,  0.024 sec (  0.284%)
 integral evaluation            ...        0 min,  0.499 sec (  5.943%)
 iterations                     ...        0 min,  2.935 sec ( 34.938%)
 molecular gradient             ...        0 min,  4.792 sec ( 57.052%)
 printout                       ...        0 min,  0.031 sec (  0.366%)

         :::::::::::::::::::::::::::::::::::::::::::::::::::::
         ::                     SUMMARY                     ::
         :::::::::::::::::::::::::::::::::::::::::::::::::::::
         :: total energy            -901.171797878947 Eh    ::
         :: gradient norm              0.105827025147 Eh/a0 ::
         :: HOMO-LUMO gap              6.090185519540 eV    ::
         ::.................................................::
         :: SCC energy              -906.642755534160 Eh    ::
         :: -> isotropic ES            5.098724851923 Eh    ::
         :: -> anisotropic ES         -1.106687410788 Eh    ::
         :: -> anisotropic XC         -0.093392916632 Eh    ::
         :: -> dispersion             -0.531859589185 Eh    ::
         :: repulsion energy           5.375904976238 Eh    ::
         :: add. restraining           0.000000000000 Eh    ::
         :: total charge               0.000000000000 e     ::
         :::::::::::::::::::::::::::::::::::::::::::::::::::::

      ----------------------------------------------------------- 
     |                       L-ANC optimizer                     |
      ----------------------------------------------------------- 
          low memory version by Sebastian Ehlert

          ...................................................
          :                      SETUP                      :
          :.................................................:
          :   energy convergence        0.1000000E-05 Eh    :
          :   grad. convergence         0.8000000E-03 Eh/a0 :
          :   optimization log               true           :
          :   writing optlog all                1     steps :
          :   Hessian reset                    20     steps :
          :   maximium step len.        1.0000000     a0    :
          :   LBFGS images                     20           :
          ...................................................
 * calculating model hessian...
Using Lindh-Hessian (1995)
 Shifting diagonal of input Hessian by   1.000005804474412E-002
 Lowest  eigenvalues of input Hessian
    0.010000    0.010000   -0.000000   -0.000000   -0.000000   -0.000000
   -0.000000   -0.000000   -0.000000   -0.000000   -0.000000   -0.000000
   -0.000000   -0.000000   -0.000000   -0.000000   -0.000000   -0.000000
 Highest eigenvalues
    0.310473    0.333801    1.234668    1.249973    1.402305    1.470785
 

........................................................................
.............................. CYCLE    1 ..............................
........................................................................
   1   -906.6421776 -0.906642E+03  0.395E-02    6.20       0.0  T
   2   -906.6422146 -0.370666E-04  0.236E-02    6.20       1.0  T
   3   -906.6422227 -0.805808E-05  0.430E-03    6.21       1.0  T
   4   -906.6422238 -0.107484E-05  0.839E-04    6.21       5.2  T
   5   -906.6422238 -0.120432E-07  0.139E-04    6.21      31.2  T
   6   -906.6422238 -0.741352E-09  0.497E-05    6.21      87.3  T
     SCC iter.                  ...        0 min,  1.708 sec
     gradient                   ...        0 min,  4.826 sec
 * total energy  :  -901.1771167 Eh     change       -0.5318789E-02 Eh
   gradient norm :     0.0217978 Eh/a0  converged?    E=F G=F D=F
   step length   :     0.5089304 a0

........................................................................
.............................. CYCLE    2 ..............................
........................................................................
   1   -906.6443683 -0.906644E+03  0.431E-02    6.18       0.0  T
   2   -906.6444236 -0.552831E-04  0.255E-02    6.24       1.0  T
   3   -906.6444325 -0.890316E-05  0.517E-03    6.28       1.0  T
   4   -906.6444340 -0.142746E-05  0.729E-04    6.27       6.0  T
   5   -906.6444340 -0.102106E-07  0.147E-04    6.27      29.5  T
   6   -906.6444340 -0.616410E-09  0.453E-05    6.27      95.8  T
     SCC iter.                  ...        0 min,  1.683 sec
     gradient                   ...        0 min,  4.865 sec
 * total energy  :  -901.1809046 Eh     change       -0.3787936E-02 Eh
   gradient norm :     0.0243341 Eh/a0  converged?    E=F G=F D=F
   step length   :     0.7139451 a0

........................................................................
.............................. CYCLE    3 ..............................
........................................................................
   1   -906.6490294 -0.906649E+03  0.183E-02    6.28       0.0  T
   2   -906.6490491 -0.196833E-04  0.107E-02    6.33       1.0  T
   3   -906.6490517 -0.258495E-05  0.311E-03    6.36       1.4  T
   4   -906.6490520 -0.294989E-06  0.348E-04    6.36      12.5  T
   5   -906.6490520 -0.298974E-08  0.819E-05    6.36      53.0  T
     SCC iter.                  ...        0 min,  1.378 sec
     gradient                   ...        0 min,  4.887 sec
 * total energy  :  -901.1830710 Eh     change       -0.2166435E-02 Eh
   gradient norm :     0.0146209 Eh/a0  converged?    E=F G=F D=F
   step length   :     0.6070410 a0

........................................................................
.............................. CYCLE    4 ..............................
........................................................................
   1   -906.6538002 -0.906654E+03  0.128E-02    6.38       0.0  T
   2   -906.6538139 -0.136848E-04  0.731E-03    6.42       1.0  T
   3   -906.6538158 -0.183843E-05  0.259E-03    6.46       1.7  T
   4   -906.6538159 -0.132278E-06  0.286E-04    6.46      15.2  T
   5   -906.6538159 -0.195439E-08  0.650E-05    6.46      66.7  T
     SCC iter.                  ...        0 min,  1.367 sec
     gradient                   ...        0 min,  4.907 sec
 * total energy  :  -901.1841618 Eh     change       -0.1090779E-02 Eh
   gradient norm :     0.0138654 Eh/a0  converged?    E=F G=F D=F
   step length   :     0.4711884 a0

........................................................................
.............................. CYCLE    5 ..............................
........................................................................
   1   -906.6526274 -0.906653E+03  0.189E-02    6.45       0.0  T
   2   -906.6526546 -0.272236E-04  0.109E-02    6.49       1.0  T
   3   -906.6526583 -0.371899E-05  0.352E-03    6.51       1.2  T
   4   -906.6526586 -0.344276E-06  0.462E-04    6.51       9.4  T
   5   -906.6526586 -0.650527E-08  0.111E-04    6.51      39.0  T
     SCC iter.                  ...        0 min,  1.368 sec
     gradient                   ...        0 min,  4.939 sec
 * total energy  :  -901.1848324 Eh     change       -0.6705324E-03 Eh
   gradient norm :     0.0136123 Eh/a0  converged?    E=F G=F D=F
   step length   :     0.4957178 a0

........................................................................
.............................. CYCLE    6 ..............................
........................................................................
   1   -906.6537147 -0.906654E+03  0.120E-02    6.53       0.0  T
   2   -906.6537222 -0.746589E-05  0.703E-03    6.54       1.0  T
   3   -906.6537233 -0.108792E-05  0.194E-03    6.55       2.2  T
   4   -906.6537234 -0.148182E-06  0.248E-04    6.55      17.5  T
   5   -906.6537234 -0.102148E-08  0.455E-05    6.55      95.4  T
     SCC iter.                  ...        0 min,  1.353 sec
     gradient                   ...        0 min,  4.951 sec
 * total energy  :  -901.1853488 Eh     change       -0.5164987E-03 Eh
   gradient norm :     0.0135672 Eh/a0  converged?    E=F G=F D=F
   step length   :     0.1931200 a0

........................................................................
.............................. CYCLE    7 ..............................
........................................................................
   1   -906.6527614 -0.906653E+03  0.108E-02    6.57       0.0  T
   2   -906.6527632 -0.185343E-05  0.662E-03    6.58       1.0  T
   3   -906.6527637 -0.521462E-06  0.865E-04    6.60       5.0  T
   4   -906.6527638 -0.634692E-07  0.207E-04    6.59      20.9  T
     SCC iter.                  ...        0 min,  1.088 sec
     gradient                   ...        0 min,  4.972 sec
 * total energy  :  -901.1856991 Eh     change       -0.3502118E-03 Eh
   gradient norm :     0.0151499 Eh/a0  converged?    E=F G=F D=F
   step length   :     0.1220762 a0

........................................................................
.............................. CYCLE    8 ..............................
........................................................................
   1   -906.6517754 -0.906652E+03  0.222E-02    6.65       0.0  T
   2   -906.6517844 -0.902760E-05  0.137E-02    6.68       1.0  T
   3   -906.6517870 -0.260833E-05  0.189E-03    6.71       2.3  T
   4   -906.6517873 -0.322146E-06  0.534E-04    6.70       8.1  T
   5   -906.6517874 -0.541763E-08  0.623E-05    6.70      69.6  T
     SCC iter.                  ...        0 min,  1.345 sec
     gradient                   ...        0 min,  5.205 sec
 * total energy  :  -901.1863085 Eh     change       -0.6094132E-03 Eh
   gradient norm :     0.0131605 Eh/a0  converged?    E=F G=F D=F
   step length   :     0.3093706 a0

........................................................................
.............................. CYCLE    9 ..............................
........................................................................
   1   -906.6507876 -0.906651E+03  0.144E-02    6.73       0.0  T
   2   -906.6507897 -0.214596E-05  0.874E-03    6.74       1.0  T
   3   -906.6507903 -0.628030E-06  0.948E-04    6.76       4.6  T
   4   -906.6507904 -0.775187E-07  0.261E-04    6.75      16.6  T
     SCC iter.                  ...        0 min,  1.070 sec
     gradient                   ...        0 min,  4.998 sec
 * total energy  :  -901.1866196 Eh     change       -0.3111153E-03 Eh
   gradient norm :     0.0221267 Eh/a0  converged?    E=F G=F D=F
   step length   :     0.2598559 a0

........................................................................
.............................. CYCLE   10 ..............................
........................................................................
   1   -906.6561145 -0.906656E+03  0.165E-02    6.81       0.0  T
   2   -906.6561205 -0.599768E-05  0.962E-03    6.80       1.0  T
   3   -906.6561219 -0.134915E-05  0.176E-03    6.80       2.5  T
   4   -906.6561220 -0.171609E-06  0.375E-04    6.81      11.6  T
   5   -906.6561220 -0.193063E-08  0.527E-05    6.80      82.3  T
     SCC iter.                  ...        0 min,  1.324 sec
     gradient                   ...        0 min,  5.002 sec
 * total energy  :  -901.1869572 Eh     change       -0.3375773E-03 Eh
   gradient norm :     0.0182940 Eh/a0  converged?    E=F G=F D=F
   step length   :     0.3103560 a0

........................................................................
.............................. CYCLE   11 ..............................
........................................................................
   1   -906.6526360 -0.906653E+03  0.139E-02    6.79       0.0  T
   2   -906.6526388 -0.280747E-05  0.837E-03    6.80       1.0  T
   3   -906.6526397 -0.834618E-06  0.116E-03    6.80       3.7  T
   4   -906.6526397 -0.904097E-07  0.341E-04    6.80      12.7  T
   5   -906.6526397 -0.196019E-08  0.389E-05    6.80     111.7  T
     SCC iter.                  ...        0 min,  1.341 sec
     gradient                   ...        0 min,  4.962 sec
 * total energy  :  -901.1872498 Eh     change       -0.2926822E-03 Eh
   gradient norm :     0.0110511 Eh/a0  converged?    E=F G=F D=F
   step length   :     0.2424091 a0

........................................................................
.............................. CYCLE   12 ..............................
........................................................................
   1   -906.6545926 -0.906655E+03  0.763E-03    6.80       0.0  T
   2   -906.6545933 -0.690712E-06  0.455E-03    6.80       1.0  T
   3   -906.6545935 -0.194888E-06  0.544E-04    6.81       8.0  T
   4   -906.6545935 -0.197963E-07  0.133E-04    6.81      32.7  T
     SCC iter.                  ...        0 min,  1.085 sec
     gradient                   ...        0 min,  4.936 sec
 * total energy  :  -901.1874086 Eh     change       -0.1587138E-03 Eh
   gradient norm :     0.0053627 Eh/a0  converged?    E=F G=F D=F
   step length   :     0.0933785 a0

........................................................................
.............................. CYCLE   13 ..............................
........................................................................
   1   -906.6546732 -0.906655E+03  0.614E-03    6.82       0.0  T
   2   -906.6546735 -0.288615E-06  0.376E-03    6.82       1.2  T
   3   -906.6546736 -0.955480E-07  0.329E-04    6.82      13.2  T
   4   -906.6546736 -0.952127E-08  0.102E-04    6.82      42.5  T
     SCC iter.                  ...        0 min,  1.085 sec
     gradient                   ...        0 min,  4.922 sec
 * total energy  :  -901.1874924 Eh     change       -0.8385588E-04 Eh
   gradient norm :     0.0052681 Eh/a0  converged?    E=F G=F D=F
   step length   :     0.0979594 a0

........................................................................
.............................. CYCLE   14 ..............................
........................................................................
   1   -906.6554559 -0.906655E+03  0.644E-03    6.82       0.0  T
   2   -906.6554564 -0.514449E-06  0.382E-03    6.81       1.1  T
   3   -906.6554565 -0.944596E-07  0.487E-04    6.81       8.9  T
   4   -906.6554565 -0.180596E-07  0.992E-05    6.81      43.7  T
     SCC iter.                  ...        0 min,  1.067 sec
     gradient                   ...        0 min,  4.900 sec
 * total energy  :  -901.1875553 Eh     change       -0.6290104E-04 Eh
   gradient norm :     0.0024702 Eh/a0  converged?    E=F G=F D=F
   step length   :     0.0989008 a0

........................................................................
.............................. CYCLE   15 ..............................
........................................................................
   1   -906.6553298 -0.906655E+03  0.301E-03    6.81       0.0  T
   2   -906.6553299 -0.859292E-07  0.183E-03    6.81       2.4  T
   3   -906.6553299 -0.221678E-07  0.184E-04    6.81      23.6  T
   4   -906.6553299 -0.301486E-08  0.452E-05    6.81      96.1  T
     SCC iter.                  ...        0 min,  1.071 sec
     gradient                   ...        0 min,  4.895 sec
 * total energy  :  -901.1875731 Eh     change       -0.1781407E-04 Eh
   gradient norm :     0.0030165 Eh/a0  converged?    E=F G=F D=F
   step length   :     0.0314292 a0

........................................................................
.............................. CYCLE   16 ..............................
........................................................................
   1   -906.6557434 -0.906656E+03  0.227E-03    6.81       0.0  T
   2   -906.6557436 -0.198912E-06  0.136E-03    6.80       3.2  T
   3   -906.6557436 -0.282281E-07  0.294E-04    6.80      14.8  T
   4   -906.6557436 -0.495925E-08  0.412E-05    6.80     105.3  T
     SCC iter.                  ...        0 min,  1.079 sec
     gradient                   ...        0 min,  4.852 sec
 * total energy  :  -901.1875884 Eh     change       -0.1528106E-04 Eh
   gradient norm :     0.0027436 Eh/a0  converged?    E=F G=F D=F
   step length   :     0.0427114 a0

........................................................................
.............................. CYCLE   17 ..............................
........................................................................
   1   -906.6556777 -0.906656E+03  0.211E-03    6.80       0.0  T
   2   -906.6556778 -0.100361E-06  0.127E-03    6.80       3.4  T
   3   -906.6556778 -0.165973E-07  0.204E-04    6.80      21.3  T
   4   -906.6556778 -0.334103E-08  0.376E-05    6.80     115.4  T
     SCC iter.                  ...        0 min,  1.077 sec
     gradient                   ...        0 min,  4.778 sec
 * total energy  :  -901.1876002 Eh     change       -0.1182521E-04 Eh
   gradient norm :     0.0022617 Eh/a0  converged?    E=F G=F D=F
   step length   :     0.0340563 a0

........................................................................
.............................. CYCLE   18 ..............................
........................................................................
   1   -906.6555912 -0.906656E+03  0.367E-03    6.79       0.0  T
   2   -906.6555914 -0.260900E-06  0.222E-03    6.79       2.0  T
   3   -906.6555915 -0.608421E-07  0.333E-04    6.78      13.0  T
   4   -906.6555915 -0.913496E-08  0.819E-05    6.79      53.0  T
     SCC iter.                  ...        0 min,  1.073 sec
     gradient                   ...        0 min,  4.770 sec
 * total energy  :  -901.1876144 Eh     change       -0.1417541E-04 Eh
   gradient norm :     0.0009151 Eh/a0  converged?    E=F G=F D=F
   step length   :     0.0576584 a0

........................................................................
.............................. CYCLE   19 ..............................
........................................................................
   1   -906.6555235 -0.906656E+03  0.235E-03    6.78       0.0  T
   2   -906.6555236 -0.636649E-07  0.143E-03    6.78       3.0  T
   3   -906.6555236 -0.248351E-07  0.165E-04    6.78      26.3  T
   4   -906.6555236 -0.195814E-08  0.549E-05    6.78      79.1  T
     SCC iter.                  ...        0 min,  1.072 sec
     gradient                   ...        0 min,  4.780 sec
 * total energy  :  -901.1876194 Eh     change       -0.4976046E-05 Eh
   gradient norm :     0.0009903 Eh/a0  converged?    E=F G=F D=F
   step length   :     0.0347112 a0

........................................................................
.............................. CYCLE   20 ..............................
........................................................................
   1   -906.6555052 -0.906656E+03  0.597E-04    6.78       0.0  T
   2   -906.6555052 -0.190180E-07  0.353E-04    6.78      12.3  T
   3   -906.6555052 -0.291186E-08  0.942E-05    6.78      46.1  T
     SCC iter.                  ...        0 min,  0.798 sec
     gradient                   ...        0 min,  4.824 sec
 * total energy  :  -901.1876212 Eh     change       -0.1764676E-05 Eh
   gradient norm :     0.0005983 Eh/a0  converged?    E=F G=T D=F
   step length   :     0.0163272 a0
 * RMSD in coord.:     0.1312392 a0     energy gain  -0.1582328E-01 Eh
 * calculating model hessian...
Using Lindh-Hessian (1995)
 Shifting diagonal of input Hessian by   1.000006392692598E-002
 Lowest  eigenvalues of input Hessian
    0.010000    0.010000   -0.000000   -0.000000   -0.000000   -0.000000
   -0.000000   -0.000000   -0.000000   -0.000000   -0.000000   -0.000000
   -0.000000   -0.000000   -0.000000   -0.000000   -0.000000   -0.000000
 Highest eigenvalues
    0.289261    0.312666    1.219219    1.228312    1.362239    1.427544
 

........................................................................
.............................. CYCLE   21 ..............................
........................................................................
   1   -906.6554662 -0.906655E+03  0.560E-03    6.80       0.0  T
   2   -906.6554667 -0.427192E-06  0.340E-03    6.80       1.3  T
   3   -906.6554668 -0.136767E-06  0.420E-04    6.80      10.3  T
   4   -906.6554668 -0.141036E-07  0.125E-04    6.80      34.7  T
     SCC iter.                  ...        0 min,  1.066 sec
     gradient                   ...        0 min,  4.783 sec
 * total energy  :  -901.1878561 Eh     change       -0.2349921E-03 Eh
   gradient norm :     0.0016184 Eh/a0  converged?    E=F G=F D=F
   step length   :     0.1822292 a0

........................................................................
.............................. CYCLE   22 ..............................
........................................................................
   1   -906.6543858 -0.906654E+03  0.152E-02    6.85       0.0  T
   2   -906.6543888 -0.302159E-05  0.923E-03    6.85       1.0  T
   3   -906.6543897 -0.886460E-06  0.113E-03    6.85       3.9  T
   4   -906.6543898 -0.104295E-06  0.319E-04    6.85      13.6  T
   5   -906.6543898 -0.298826E-08  0.561E-05    6.85      77.4  T
     SCC iter.                  ...        0 min,  1.316 sec
     gradient                   ...        0 min,  4.775 sec
 * total energy  :  -901.1880944 Eh     change       -0.2382444E-03 Eh
   gradient norm :     0.0077081 Eh/a0  converged?    E=F G=F D=F
   step length   :     0.4665560 a0

........................................................................
.............................. CYCLE   23 ..............................
........................................................................
   1   -906.6555735 -0.906656E+03  0.247E-03    6.86       0.0  T
   2   -906.6555736 -0.725367E-07  0.147E-03    6.86       3.0  T
   3   -906.6555736 -0.181050E-07  0.177E-04    6.86      24.5  T
   4   -906.6555736 -0.225407E-08  0.493E-05    6.86      88.0  T
     SCC iter.                  ...        0 min,  1.049 sec
     gradient                   ...        0 min,  4.779 sec
 * total energy  :  -901.1881500 Eh     change       -0.5558188E-04 Eh
   gradient norm :     0.0027943 Eh/a0  converged?    E=F G=F D=F
   step length   :     0.0443734 a0

........................................................................
.............................. CYCLE   24 ..............................
........................................................................
   1   -906.6563898 -0.906656E+03  0.330E-03    6.87       0.0  T
   2   -906.6563901 -0.322079E-06  0.197E-03    6.87       2.2  T
   3   -906.6563902 -0.597263E-07  0.383E-04    6.87      11.3  T
   4   -906.6563902 -0.950797E-08  0.780E-05    6.87      55.6  T
     SCC iter.                  ...        0 min,  1.047 sec
     gradient                   ...        0 min,  4.778 sec
 * total energy  :  -901.1881908 Eh     change       -0.4084079E-04 Eh
   gradient norm :     0.0015445 Eh/a0  converged?    E=F G=F D=F
   step length   :     0.0952449 a0

........................................................................
.............................. CYCLE   25 ..............................
........................................................................
   1   -906.6566262 -0.906657E+03  0.594E-03    6.88       0.0  T
   2   -906.6566273 -0.116493E-05  0.357E-03    6.88       1.2  T
   3   -906.6566275 -0.186063E-06  0.727E-04    6.88       6.0  T
   4   -906.6566275 -0.338632E-07  0.127E-04    6.88      34.1  T
     SCC iter.                  ...        0 min,  1.046 sec
     gradient                   ...        0 min,  4.776 sec
 * total energy  :  -901.1882189 Eh     change       -0.2805170E-04 Eh
   gradient norm :     0.0017488 Eh/a0  converged?    E=F G=F D=F
   step length   :     0.1679498 a0

........................................................................
.............................. CYCLE   26 ..............................
........................................................................
   1   -906.6564231 -0.906656E+03  0.834E-04    6.87       0.0  T
   2   -906.6564231 -0.205187E-07  0.505E-04    6.87       8.6  T
   3   -906.6564231 -0.336536E-08  0.904E-05    6.87      48.0  T
     SCC iter.                  ...        0 min,  0.791 sec
     gradient                   ...        0 min,  4.771 sec
 * total energy  :  -901.1882229 Eh     change       -0.3988234E-05 Eh
   gradient norm :     0.0003011 Eh/a0  converged?    E=F G=T D=F
   step length   :     0.0162276 a0

........................................................................
.............................. CYCLE   27 ..............................
........................................................................
   1   -906.6563984 -0.906656E+03  0.870E-04    6.87       0.0  T
   2   -906.6563985 -0.345485E-07  0.524E-04    6.87       8.3  T
   3   -906.6563985 -0.531884E-08  0.126E-04    6.87      34.6  T
     SCC iter.                  ...        0 min,  0.788 sec
     gradient                   ...        0 min,  4.792 sec
 * total energy  :  -901.1882247 Eh     change       -0.1877062E-05 Eh
   gradient norm :     0.0003178 Eh/a0  converged?    E=F G=T D=F
   step length   :     0.0220491 a0

........................................................................
.............................. CYCLE   28 ..............................
........................................................................
   1   -906.6564073 -0.906656E+03  0.512E-04    6.87       0.0  T
   2   -906.6564073 -0.920681E-08  0.312E-04    6.87      13.9  T
   3   -906.6564073 -0.194530E-08  0.649E-05    6.86      66.8  T
     SCC iter.                  ...        0 min,  0.715 sec
     gradient                   ...        0 min,  4.758 sec
 * total energy  :  -901.1882252 Eh     change       -0.4448542E-06 Eh
   gradient norm :     0.0002136 Eh/a0  converged?    E=T G=T D=F
   step length   :     0.0114274 a0

   *** GEOMETRY OPTIMIZATION CONVERGED AFTER 28 CYCLES ***

------------------------------------------------------------------------
 total energy gain   :        -0.0164273 Eh      -10.3083 kcal/mol
 total RMSD          :         0.1492327 a0        0.0790 Å
 total power (kW/mol):        -1.5403523 (step)   -0.2261 (real)
------------------------------------------------------------------------

 L-ANCopt (total)              0 d,  0 h,  3 min, 10.745 sec
 setup                          ...        0 min,  0.019 sec (  0.010%)
 model hessian                  ...        0 min,  7.847 sec (  4.114%)
 ANC generation                 ...        0 min,  1.966 sec (  1.031%)
 coordinate transformation      ...        0 min,  0.002 sec (  0.001%)
 Rational function              ...        0 min,  0.000 sec (  0.000%)
 singlepoint calculation        ...        3 min,  0.769 sec ( 94.770%)
 optimization log               ...        0 min,  0.137 sec (  0.072%)
 hessian update                 ...        0 min,  0.000 sec (  0.000%)

================
 final structure:
================
$coord
       -1.69194259953600       -4.53138263877800       -0.63794583293300      o
       -3.33521323289700       -5.25767821391300       -0.93644273130700      h
       -0.49799125060700       -5.58967756154100       -1.53696358853400      h
        5.93770050039600       -7.58761011593700        4.74023135121100      o
        5.30012064993100       -8.63296119489300        6.13206067622800      h
        6.14692070101400       -5.92758976018700        5.44531215910500      h
        6.00165420827000       -1.38789902177600        4.23056905563200      o
        6.20645753920000       -2.07560135766200        5.92048605301000      h
        5.51281056521600        0.35618868732200        4.48082904790700      h
        2.55118938973300       -8.89507708173300       -8.27913278321900      o
        1.67900788745200      -10.50057845531800       -8.09047481424300      h
        1.66863409399000       -7.97251186266000       -9.63272106874000      h
       -7.68708570867200        0.43743480266000        8.51239976959700      o
       -7.54748184493000        0.39235495512400       10.33721195653800      h
       -9.24037918352700        1.36206202908300        8.16577227751600      h
        7.39651099047600       -9.50993944033000       -6.15152053245800      o
        5.94844991355100       -9.80867943248400       -7.21194588180100      h
        6.98237430006000       -8.00231405654100       -5.16405825790800      h
        1.23433503624100       -4.66594045424400        7.11867447081900      o
        0.18143630264800       -3.15892607233300        7.40005701359900      h
        2.94393095519600       -4.22042012236100        7.64959265596600      h
        7.58386409952700      -13.46327694750100        2.71611593438500      o
        8.10737278034200      -13.78535942474200        0.99991584275600      h
        8.80680436192600      -12.26580075360800        3.37444776973200      h
       -8.35833884434100       -3.76413304513500        0.68138400259300      o
       -7.38609085488700       -4.66980853788000       -0.57445457501300      h
       -9.14211531349600       -2.29545360962800       -0.09883464172300      h
        0.26855034228000        4.50420728056200        7.64117958696900      o
       -1.50043464377100        4.18059825303200        7.24655467791600      h
        0.29751975264400        5.71730093069400        9.00345804050600      h
       -4.57750789423600       -1.23515995774300       -4.09562978858900      o
       -6.01196238780200       -2.06831620429000       -4.88615231406600      h
       -5.18950611143000       -0.41125543697800       -2.55517272851100      h
        5.02533835014000       11.93384478180300        3.35956695626000      o
        5.80372259798200       10.35542980928500        2.70843825299700      h
        6.35602787164400       13.16065379925800        3.38588658118100      h
        4.64224284958900        3.86744896917900        4.30125844731100      o
        2.88008603714400        4.34887814321400        4.08745477120500      h
        5.07494248751400        4.55042717047200        5.97474433217300      h
       -4.65990184612200        3.97771082378000        6.72390389488800      o
       -5.76928228529700        2.54370293217100        7.13973859099700      h
       -4.98159928735400        4.43897281130300        4.99307212010600      h
       -3.65103646214900        7.41594305148300       -6.03722683378300      o
       -3.65000438945500        7.40207762669200       -7.88089405448000      h
       -2.56524752046200        8.78358409448700       -5.51647207081400      h
       -5.18118613146800       12.76322591620800       -5.26149963076600      o
       -3.36694754494900       12.64687998592400       -5.34848905601100      h
       -5.87703724778300       11.91594197509500       -6.74927146756100      h
       -8.25650975875300        6.23064348759100       -3.74701696252000      o
       -8.52863571329600        4.55493493919200       -4.48633462121900      h
       -6.68114823188000        6.85067529545800       -4.44286615698500      h
       -1.18113609246900       -3.12612779959600       -7.53543746192000      o
       -1.92099586573300       -4.78683497945500       -7.17493410941400      h
       -2.24240873974800       -1.99731982587500       -6.55754440166200      h
        8.14174743657700        1.41451276062000        8.58208541633100      o
        8.42263098531500        2.02514400146400       10.29654271538400      h
        6.30847997436600        1.14756051082000        8.44887060698700      h
       10.36752342835000       -7.52056858187700       -1.07425666779400      o
        8.77271902311100       -6.83913063063200       -1.68337803631200      h
       11.60826930979600       -6.16603633119100       -1.33209771788000      h
      -11.13506732243200       10.17989919275800       -5.35479549461400      o
      -11.19701909186300       11.35432018639700       -3.98014688934300      h
      -10.23060252173300        8.69297725491800       -4.71914487122900      h
        0.47496406383800        3.13888471039000       -6.90548100970900      o
        0.60546470685500        4.91157081107400       -7.42620816926300      h
        1.88515398790900        2.87165864137900       -5.75286207933400      h
        9.81301650036900        7.69904004983100       10.03918866430500      o
       10.09657075570500        8.78472093509800        8.58819734941000      h
       11.13705545529300        6.42168252732600        9.90707665801800      h
       16.45529547112400       -1.41616013280700        1.02091080973500      o
       17.00519529731900       -2.55832809935900        2.37309255465700      h
       17.87265658070800       -1.24981848898800       -0.14167607712400      h
      -11.04544512816000        0.24407191835900       -0.83520947631000      o
      -11.13219654639000        1.97319364951500       -0.17405280982800      h
      -12.74603621799600       -0.37376737163600       -1.10359109818900      h
        3.81899890256100       -4.48966756489100        0.68467216788600      o
        4.59229122997500       -3.63762183582900        2.10186853267300      h
        2.60787500128000       -5.69652838937200        1.37219402473900      h
       -4.08132574064100       -2.20115834626000       14.11397728182800      o
       -5.63171585661100       -1.32872466628700       14.54366474383300      h
       -4.51087791508700       -3.13915240273200       12.57797478825900      h
       -8.14843163328700        5.21736237399900       -9.29726450150200      o
       -6.81328808025500        4.15656178177400       -8.58638335422800      h
       -8.59240665027800        4.41780149642100      -10.89985512869500      h
       -7.60072399842000       10.29633656612500       -9.10815539579300      o
       -7.68620689615400        8.45327628439700       -9.21598362786800      h
       -9.09939658121400       10.71455961921000       -8.13502808832000      h
       12.90985204787500       -0.24097660016600       11.79890611531600      o
       13.60046825783900        0.20479529165700       13.40979414308200      h
       12.84346825844300        1.32633606818300       10.80743766181500      h
       10.25023377932000       -5.98261651322700      -11.72006391733500      o
       11.51877752778000       -6.84059003763700      -10.74591876661500      h
        8.76065079837300       -5.91054867040200      -10.62948039849600      h
      -15.93704854645500       -5.87304988256700       -5.86346510619100      o
      -15.89669176600700       -7.38999575019500       -4.76293437817000      h
      -17.60430269906200       -5.17814925021500       -5.65665476290500      h
       -2.38895697955700        4.19884206948000       -2.47171080386200      o
       -0.95089251907800        5.25346230353900       -2.02778355139400      h
       -3.11414436213700        5.02289477442800       -3.94301515979700      h
        1.38653264333400       -7.43943364516500       -3.51926565684200      o
        2.90251381682600       -7.79145920782800       -2.53831188286500      h
        1.79732001390200       -7.73753447663300       -5.29099746236300      h
        3.20226473431600        0.55111007453300        8.37515459073200      o
        2.06291428622600        1.98944892246500        8.11931284518900      h
        3.02974396122000        0.03197844631500       10.11881443318300      h
        0.16789462022600      -13.33254916207100       -6.88172049853400      o
        0.66428527900100      -15.04674788841100       -7.16935928539300      h
        0.19438866515200      -13.06739748832000       -5.03816258752300      h
       11.35227617226000       -2.26214723191200        6.81012310563000      o
       10.10815506528000       -1.19978621643700        7.64918729501000      h
       12.75656881382200       -1.11383736444000        6.42692766200900      h
      -12.13626081910600       -1.37294024595800        4.48801807640000      o
      -10.87169569682600       -0.05867346926400        4.07201324448400      h
      -12.31092925931900       -2.51556209803900        3.04658496512100      h
       10.31071579682000       -2.64212414550800        1.87807583133900      o
       11.11468317251600       -2.97134903850600        3.49219919767500      h
        8.62023709219900       -2.12113174780000        2.38434200611700      h
        4.86174572637500       10.76867011859100       -7.23432759771300      o
        6.29530137557300       10.43668169527900       -8.32191155663000      h
        3.48960850131800        9.71822996872500       -7.90729488508300      h
        4.86939581417400       -9.68376620718700       -0.41337341801100      o
        5.21300719195700       -9.00971974003600        1.24677207180100      h
        6.30283844094100      -10.72507853153000       -0.88128558472100      h
        4.20836720875000       -1.32509376990200       13.06199598939700      o
        2.92520338421200       -2.57110073078300       13.63943657934200      h
        4.15643639486700        0.05329189787900       14.23575420720100      h
        9.09401150627700       -3.43203546633900       13.67870649449300      o
       10.33083973393000       -2.32145027679400       12.91018403398500      h
        7.51300584193700       -2.51622292499900       13.72364843001800      h
       -1.62545399626600        1.83058694453300       12.22837300359400      o
       -1.62658528731900        1.06239311870700       10.53547015077700      h
       -2.34642986284000        0.50039862219300       13.28375770738900      h
        6.94453009148600        8.01293437269000       -3.45959950263200      o
        6.05000102309800        8.81340397393500       -4.85018394233300      h
        7.69473595086100        6.43751137322100       -4.06461941561900      h
        0.00909375603200       11.22412144486300       -4.54035837953400      o
        0.38239273773800       12.04258272095800       -2.90492253862200      h
        1.25575731523300       11.83885986276100       -5.70682887431700      h
       -5.71474543256100       -7.40801873402500       -1.86776960861800      o
       -5.18673905753200       -8.84476524690400       -0.82500606564200      h
       -7.17612494686600       -8.00600500312500       -2.85517777993700      h
       -8.91074913952300        2.22880252998800        3.81400931627300      o
       -7.87059524458800        1.88611149806400        2.32677273509400      h
       -9.15190524551300        4.04570692266700        3.88686065913000      h
       16.51697544939900        4.35058898146900       -0.85699829996500      o
       17.99680476311500        3.44683579959600       -0.32669849456500      h
       15.06172476610200        3.43959650817200       -0.20213932019700      h
       -4.52548854593600        4.09677178040500      -14.19674819738100      o
       -6.33134764823400        3.99147953126300      -14.42803046298700      h
       -4.03349206010900        2.41276262305800      -13.63563259369800      h
      -16.21299498338200        8.69350237706700       -6.26115109972800      o
      -15.93122309753100       10.33853347968900       -6.95825601878700      h
      -14.70933664855500        7.69665205341600       -6.71015204848400      h
        2.82930732907900        4.20382651835800       12.93659188189600      o
        1.30264671558300        3.16502491131200       12.72910400420500      h
        2.16552336659400        5.89361407706700       13.12000282022700      h
      -19.50572798252900        4.58763018577200       -6.66485549851500      o
      -18.39614738282600        6.04788104726900       -6.76900799932300      h
      -20.24869038193400        4.69891223481500       -4.99953851002600      h
       -1.99429163641700       -0.95979002593600        8.05628671893400      o
       -3.36064517133600       -2.10608572673700        8.53023783259300      h
       -2.45852283902000       -0.24221601018900        6.43415888827100      h
       16.14550095368800       -3.77396022308300        9.62018166237900      o
       15.02675631318700       -2.47145505912300       10.28069024753600      h
       15.15409499947100       -5.30642529461700        9.60795173568100      h
       19.29663370587800        5.92947051806400        4.42757961443800      o
       17.73063110478300        6.71996193562800        3.85867210922900      h
       19.87976289495100        4.89409082431100        3.05073599383300      h
      -19.76036442268900       -2.45318021753200        3.86646502175800      o
      -18.58955800727300       -1.04125720576100        4.01142244302000      h
      -19.26527012989900       -3.55604815029300        5.26172485378500      h
       -3.36439701963000       -0.44629968434400      -11.94267567053100      o
       -3.95348415462900        0.37000172380800      -10.37467342606500      h
       -1.56063998989700       -0.12724419223900      -11.98795014396500      h
       -4.27034052408100       -7.20082144856300        4.00550764842000      o
       -4.56054934730200       -5.38137973899300        4.25124911130900      h
       -2.56800933736300       -7.38152235396500        3.30606834428200      h
        6.26740979194800       13.54473760191400       -2.71930095201000      o
        4.66279199110000       13.81797811644400       -1.90012753647000      h
        5.88655646635300       12.81999174473200       -4.34826237809200      h
      -11.31252245476300        5.20516313286000        0.17697316037400      o
      -12.78623687703400        5.37515270497500       -0.92886663894100      h
       -9.90534495378700        5.83176545473600       -0.82616692731700      h
      -16.27723136553500        1.18679305286100        4.69441844798800      o
      -14.70741759387000        0.15304342953100        4.50532734229700      h
      -15.75553706124900        2.91847510076300        4.43067466088800      h
      -10.73983115336400       10.86218337386600        1.41436101241400      o
      -12.15727217114400       10.26262039925900        0.40323397588900      h
      -10.10631960904700        9.39084429383800        2.33877999840700      h
      -14.99809741692200        4.05608876125900       -3.00747792771700      o
      -15.10097398497400        2.23284558731800       -2.76788022486100      h
      -14.24657730530600        4.35419908822200       -4.66409680869500      h
       12.20209616868300        1.83873096890100        0.64924959492800      o
       12.01035050259000        2.70632774771900        2.26385538184300      h
       11.83025045369500        0.05558830362400        1.04421574936900      h
        7.21149891172600        2.26210436329000        0.11529674517800      o
        6.51946855199300        2.69633736226700        1.74637737778100      h
        9.02913961760200        2.58000073926100        0.22403497459400      h
        6.33025803074000       -5.25854075286600       -3.43754960388900      o
        5.35939888592300       -5.05230488078800       -1.85396172069100      h
        7.40724688075200       -3.74439837172900       -3.55940732732900      h
       -0.01668433182500        8.24207900411300       11.51192960256800      o
       -1.80239602831800        7.73024522860300       11.60351545056900      h
        0.07741675294200        9.92893904020000       10.86672770368100      h
       -8.43110657759600        0.54987092151300       13.67993086059700      o
       -9.12734069657500        1.92631568578700       14.62050436199800      h
       -9.85366721635000       -0.60424404631400       13.27568614097300      h
       -5.70096733276100        1.28929554588200        0.08492478153700      o
       -5.16187044772100        2.95583800426300       -0.46429968797200      h
       -4.42854468973200        0.79155917357400        1.32466304107600      h
       11.36219971035800       -2.79920603164200       -7.27772844736400      o
        9.55882502963200       -2.69630700041800       -7.49463129273500      h
       11.73251258453500       -4.60050513168300       -7.05170467623600      h
       -5.36421049933200       -4.45547508787500        9.72574180606300      o
       -7.09001744500500       -4.28540245493500        9.09911217160000      h
       -4.90644292065800       -6.21418707353400        9.47819493188400      h
        9.29163040622700       -0.95927255320800      -12.37264746523700      o
       10.83390281623200       -0.02112578533700      -12.56344778534100      h
        9.80661778021200       -2.73517670203700      -12.29008282498800      h
        4.30323298151500       -2.50607508039900      -12.90810580239200      o
        5.88871888845000       -1.85421705233500      -13.52962478848800      h
        3.28830690305900       -1.04020547273700      -12.39664925378700      h
      -12.85741953272900       -0.85676368122800       -8.22371971331500      o
      -14.55910568020300       -0.73158448891000       -7.54991584029900      h
      -12.67431870447300       -2.57232127623900       -8.86795487848400      h
        9.03123641480700       -1.16832113628600       -3.13052453727900      o
        8.24385977375500       -0.42579961315800       -1.65499177572400      h
       10.55952664764900       -2.03394898790600       -2.55895883489000      h
        9.13055867461100      -12.29285358728400       -2.20258626986400      o
       10.06261192138200      -10.76685551378400       -1.75398360239400      h
        8.53771131284100      -11.95560867713800       -3.90113452532000      h
      -20.81667900827800       -3.63372172606200       -4.38595939761300      o
      -21.06003202594200       -2.26659300080300       -3.15539376673100      h
      -22.41416862546200       -4.45855521928500       -4.58273948071800      h
       -4.52135141521400        6.03818488024200       11.25492634547400      o
       -3.81872001604900        4.53444817942500       12.05692826596500      h
       -4.60413586706300        5.54254493456500        9.46249747220800      h
        6.66232542437700        1.12846544728700       -8.41107905090300      o
        7.66186845991800        0.31670910084100       -9.72810440323900      h
        5.47528656390100       -0.11778932696400       -7.74746610880400      h
       -2.90353703634200       12.52622650073800        2.28022519656300      o
       -3.12803321726300       11.46514944160700        3.75557928282900      h
       -4.12237260006200       11.90395946983800        1.03709459246200      h
       14.21461115033600        0.04458954283100      -10.39398063835900      o
       13.17763269438300       -1.07410475480400       -9.34124261991200      h
       15.86853589834900        0.07195546101100       -9.63340673331300      h
        0.67782423436000       -7.72420575630900        3.08671847161400      o
        1.44656426298400       -9.36963862071500        3.39022476306000      h
        0.95440242575800       -6.71156425296900        4.60347141353000      h
      -13.45802531764100       -4.83864992290100        1.01838748116300      o
      -12.58310770251200       -4.67530884188000       -0.58100666173800      h
      -15.24686507541900       -5.04014197322100        0.60738320841700      h
      -14.40509547632500        2.43675841928700      -11.68786098688400      o
      -16.18409520809700        2.16422155706400      -11.86308634199400      h
      -13.74317367567900        1.07626388632000      -10.59618093056400      h
        1.41550965247400        7.59177633010900       -8.96954310980800      o
        2.71935564219100        6.73155762853500       -9.99127521541600      h
       -0.05780474391500        7.88229446216200      -10.03230353681500      h
       14.76362263828200        1.03742898608300        5.22825988214200      o
       16.20777238046900        1.38971398241900        6.31562525986100      h
       15.40255756020200        0.42945148946900        3.62548109796000      h
       21.51369381235300        2.37190597797000        0.89906801399600      o
       21.26284953287700        0.97768254440900       -0.30842617367900      h
       22.98582896400300        3.27069234210900        0.35079394227900      h
        1.43679572247700       13.07309644938300       -0.14840860206300      o
        2.67066503292300       12.60653899243500        1.13851203243300      h
       -0.18346810310800       13.10837352459200        0.76231848398000      h
       10.22254085993800        4.12186924906800        4.75131097810200      o
       10.01785794933800        5.92677640702100        5.00065600778100      h
        9.33985166728400        3.23577954578000        6.10302107917500      h
       -4.90107436589400      -11.94391423679100       -7.57857344928200      o
       -3.22689981557400      -12.68054745304100       -7.57589553583600      h
       -5.75615026069000      -12.63415949411700       -6.07737033371400      h
       10.55792505161700       -9.12457381823200        3.63796236255500      o
       10.60713558893300       -8.48663894249700        1.89242987406500      h
        8.88015512212300       -8.56521470556000        4.21012640811500      h
        2.82191864253600      -12.28884563293600        4.33757867052000      o
        3.26972237866000      -11.99076790128900        6.08752960340700      h
        4.39128857275500      -12.88654312980100        3.57192377446500      h
      -15.96410191076600       -9.56951985597400       -2.54925983459700      o
      -16.78572820117000       -8.79938095431400       -1.11778249031300      h
      -14.44992216747900      -10.42088140144200       -1.91580307419100      h
      -12.13683963819600       -2.34826144248900       12.10227815722800      o
      -11.37827387253900       -3.27583375370300       10.68484945498200      h
      -13.52456479176800       -1.39918776781900       11.39395712166500      h
       -4.38452676405600       -9.37367322057600        8.33038657273400      o
       -4.36020724152100       -8.57004180773000        6.59796994999400      h
       -5.94591000527900      -10.27618951124200        8.46400833059200      h
       -3.86201399565100       -7.13746836683800       -6.55214471630900      o
       -4.14904491341900       -8.88311770124100       -7.09698691531100      h
       -4.20234607757000       -7.13517633864300       -4.74029887263100      h
       15.02921231668200       -9.49074445413600       -2.94520850215700      o
       15.10482729000900       -8.70636060136100       -1.28914540280900      h
       14.86518208624500      -11.27025193486200       -2.66787201589100      h
       -9.06647653510300        1.44477795833500       -5.29284228558900      o
       -9.69151654513700        0.87306045539400       -3.65011494333700      h
      -10.29388699979300        0.90511770687200       -6.52969913370800      h
       -6.90270072848600      -13.73309805961800       -3.27720535496900      o
       -8.64754947368700      -13.61489926475700       -2.76302204236800      h
       -5.92685332774900      -13.14071301589900       -1.82989997982900      h
       18.03783083725100       -4.00882303332500        5.00024832132800      o
       19.60242853859600       -3.08004342363500        5.19144310263800      h
       17.23523161766200       -3.89622799910200        6.68294925938400      h
        0.34793222407200      -12.04125514388100       -1.99995998070700      o
        1.77367820472900      -12.23520271543800       -0.88031282013100      h
        0.42676836019000      -10.24398643603800       -2.50753961668700      h
       -2.32396984518900      -13.08265137678100        4.94895932168400      o
       -2.62091415700700      -12.04060080567300        6.41430279090200      h
       -0.51295667523600      -13.10468978069800        4.67037496773800      h
       -5.46178449618200       -2.31830789441000        4.45571996328800      o
       -6.58265341012600       -2.62748021107300        3.01923027096800      h
       -6.48671553668000       -1.53370963049300        5.74547094540700      h
        0.12725573260600       -7.96415180293300       10.63747790088300      o
       -1.45447200206600       -8.76497496717800       10.21695211562900      h
        0.40563465992500       -6.67400253215700        9.30908439017200      h
       13.40272252496300       -3.74831172582900       -2.20746336076500      o
       14.57669004654500       -4.18861269511100       -3.54856280615700      h
       14.39870731387800       -3.00045616982900       -0.83839141387100      h
       10.67107833885400        9.32337366159700        5.23261907229300      o
       12.42546228951700        9.02086824611500        4.77154935588100      h
       10.02788685742100       10.36104803974400        3.86378177588400      h
      -16.02859658652000        0.32675235855800        9.60525694301400      o
      -17.63336811373900        0.42269528116200       10.43194102256000      h
      -16.33867929434500        0.60177489297300        7.77684575750700      h
        0.40712338262600        6.40779428031400        2.80291314728800      o
        0.78966521407200        7.63491270618800        4.13706265136900      h
        1.04502387404200        7.06695038048300        1.21238083718900      h
      -18.37075075675000       -5.64240365714100        0.14200872123600      o
      -19.06598319436500       -4.59471210289700        1.50162194176700      h
      -19.13808041997100       -5.08854171530300       -1.41565131559100      h
      -13.23306011618900       -7.64529487964000        5.33783735227000      o
      -12.07560356391700       -8.95093993929400        4.80722669961300      h
      -13.42596769558800       -6.61077944543600        3.81985612987200      h
      -19.73769305960000        4.68306327713300       -1.36227666113200      o
      -19.72234846486000        5.81123618596200        0.07266474148900      h
      -17.97290980606400        4.62962994007000       -1.94496978517200      h
       12.24090691897800       -7.76500239107000       -6.95708722498800      o
       10.57566705341800       -8.52650116862500       -6.77853063111600      h
       13.21392933702400       -8.34976722658100       -5.50556859189300      h
        4.36460745478700      -10.16134613720900        8.82577137649500      o
        5.79631847237700       -9.73178688120500        9.88445210381900      h
        2.86982873092500       -9.52310496278700        9.70676540371400      h
       -8.28168687482900       -8.59749389117700       -9.85116271662900      o
       -7.37714751140300      -10.16425884343600       -9.59877591962300      h
       -7.06548274693400       -7.44657353341300      -10.61840429216500      h
       -4.68029529651400        6.34174820683000        1.74696612360100      o
       -5.14079492663800        7.60269573677400        0.48874808830600      h
       -2.92526603108400        6.64967652332600        2.17956287596300      h
        9.69968697199900        3.95386782720000       -4.56842251706000      o
        9.54636687298300        2.14801537560400       -4.30240547279000      h
       10.61684671729800        4.13964252186500       -6.16691953316400      h
        0.48295686931100       -5.79109305320500      -11.65451765614400      o
        1.78573003514900       -4.95596159574200      -12.62455471650500      h
       -0.12265835213700       -4.53706036347800      -10.45260968148900      h
       -4.07637575261600      -11.57157888209300        0.43982148420400      o
       -2.47067590772900      -11.85689123092700       -0.42245823658400      h
       -3.77129734372900      -12.14181498199700        2.16998525276800      h
       18.25181255917900        0.43067672106700       -6.70296631416100      o
       18.95295088606000        2.06041344331400       -7.06205260728700      h
       16.61862628431900        0.77305174035600       -5.79639909281100      h
       20.35351289395900       -1.25977968044200       -2.28071140793200      o
       20.37342084748700       -3.12144190776500       -2.18767242719400      h
       19.77210575582900       -0.80171087793900       -3.96876552802000      h
       -9.04527734581800       -8.63092450533500        2.56147887382800      o
       -9.32796276412200       -6.91327475164000        1.97889674454300      h
       -7.25408936771000       -8.67028546238000        2.94022305625900      h
      -13.04641024351700       10.40505578981200        6.18480420133700      o
      -11.76824338578000       10.21381281538800        7.46658053295800      h
      -12.23709077805000       11.15628897488900        4.71263507638300      h
      -15.92218355131100       -0.86633873307400       -2.12518181771500      o
      -17.49674357076500       -0.77133782657300       -1.18297916051800      h
      -16.43585118472400       -0.97644736718300       -3.88980773531300      h
      -11.39100626829700      -11.44812108706300       -1.10744017741800      o
      -10.59485485336200      -10.62282140959700        0.33519780989800      h
      -10.76232296508700      -10.54611682085500       -2.58287140286400      h
      -18.28669160367900        7.81302551776300        2.54245576123200      o
      -16.80574657648700        6.98616104554500        3.29832289184200      h
      -18.71740337897400        9.18955548675700        3.63327209468500      h
        9.18543705203800        8.54525768378600       -9.24960099362500      o
       10.08115788800100        9.47933015715800       -7.94287237380500      h
       10.26284305792000        7.07582246202300       -9.49467531503500      h
        9.93444513091900       11.97644982911800        0.74143151918500      o
        8.64878612773300       12.58561854849900       -0.41837053788000      h
       10.69842366828100       10.53021919876100       -0.07622203966200      h
        4.56990417388700        3.32894658171800       -4.06939455693900      o
        5.48803109925800        2.86874669784600       -2.53621931411000      h
        5.69561160432300        2.90254779806700       -5.44485924338500      h
      -11.87927931880500        3.46688537164300        8.56138458708500      o
      -12.50967403096600        4.15261311984600        6.96973977264300      h
      -13.24664872239600        2.49153961018700        9.27605957368600      h
       21.80046354599600       -0.36170025843500        5.36568710586700      o
       21.66643655209200        0.67983899969500        3.85169433981300      h
       23.55767433052600       -0.68368785480300        5.64297174107600      h
      -11.64078932246600       -4.13898514648900       -3.84921770013300      o
      -10.53158119436200       -3.36172719440000       -5.08809454378300      h
      -13.28794658580000       -4.40596111424000       -4.63676056299200      h
      -12.71423126156300       -5.68980690685800       -9.96566651201100      o
      -11.37701560513000       -6.94004203241800       -9.89254202268600      h
      -13.99567213791500       -6.20280492721900       -8.75778824093800      h
       -4.41130616931600        2.14623045480100       -7.80779722091600      o
       -5.01328117481800        1.15565130406400       -6.36719553179600      h
       -2.70055470845400        2.66259181602000       -7.39004500401200      h
       -9.14813511714400       -2.41481537453100      -12.16564996916200      o
       -7.80101619786200       -3.41600591246100      -12.87727493146600      h
      -10.61609860767600       -3.49096928125700      -12.07773616613800      h
        6.18605683018200       -4.79973925013300       -8.86278373998900      o
        5.09121547985600       -6.21628095281300       -8.55804351116700      h
        5.45963948035100       -3.91040782988300      -10.31933359079000      h
       -3.39218655540900        9.33533468123700        6.42110734066700      o
       -1.58787556895400        9.33767541126000        6.74486361753300      h
       -4.24152676005000        9.87974247060400        7.92069310480200      h
      -14.78357924771700        9.14326415330100       -1.21532644222100      o
      -16.26325251939200        8.86302315560600       -0.18579388861100      h
      -15.30443103507500        9.00551209154400       -2.97173134121400      h
       12.36329787980700       -7.05135478138300        8.00020225699000      o
       11.93839148776000       -5.28765091474300        7.60395183647900      h
       11.96126974825000       -8.00967823239400        6.48741225898500      h
       15.71645492816500       -7.53958252722300        1.93960726543700      o
       16.58957315701700       -6.50528972692400        3.17799351808900      h
       14.29159245051500       -8.25851092921100        2.81495340181500      h
       -9.51427245777700        2.62165372487900      -13.46219473962300      o
       -9.22725750705900        0.85327518306400      -13.04012796543800      h
      -11.32492590365700        2.84587232282100      -13.40788699140200      h
       12.35298670184700        4.56157926910900       -8.80000366606800      o
       13.01829613105400        2.98814510850300       -9.49380266529200      h
       13.69161591165100        5.30376384616400       -7.75115249491300      h
        3.23234254321500       -1.73230399242800       -5.80477250931000      o
        4.19271065502700       -3.18687777418900       -5.22302649210600      h
        1.72648038220700       -2.38227940236900       -6.66805902411600      h
        5.25148104795700        5.22604279896700      -11.01979867483300      o
        6.61920765642900        6.42171273799600      -10.86470199569800      h
        5.79028331867500        3.74070077935700      -10.03580002341700      h
      -20.81666824080800       -0.16692685774100       -0.72718719923800      o
      -21.12052773091600       -0.63191618853800        1.00851304513700      h
      -20.65993758216300        1.68547542745900       -0.83234895033100      h
       19.60137779446500       -6.16798914639700       -1.80988342526300      o
       18.57829173914200       -6.74659018605600       -0.41767975196100      h
       18.61533121056600       -6.47096678417400       -3.31854546546500      h
       16.76630392129900       -4.69823998049300       -6.04255698024500      o
       15.91640187467600       -5.64115293880900       -7.33688114149100      h
       17.42306697910600       -3.16386729826600       -6.77215097319200      h
        1.47451695486700        1.36549333865900      -11.45660356285900      o
        2.29518926474700        2.80286654551300      -12.20345248962500      h
        1.17168300051300        1.81175746440800       -9.66730468728000      h
        8.37552781141800       -7.64983514956800       10.97355205361600      o
        9.97457050686600       -7.72553269031300       10.02930609735600      h
        8.70831093271100       -6.50037017255800       12.38061293695800      h
        6.75095433711600        7.65787778390200        1.57494257614200      o
        5.90464837132300        6.24942168206500        2.40498230763000      h
        6.31211174890600        7.70027146631400       -0.21096857128700      h
      -10.19888809451100       -4.48062670247800        7.93046952263200      o
      -11.16320303824100       -5.91732790558700        7.28946419126200      h
      -10.66348793105700       -3.11253623426700        6.76450345466500      h
       -3.16309616119900        7.79963553139100      -11.12500997926500      o
       -3.64350136322900        6.41036475433600      -12.28099617205800      h
       -4.39324962206400        9.11582670237900      -11.35857982880800      h
       13.35033255472800        4.09111506341000        9.14619714857000      o
       15.17496701804600        4.08286870811500        9.19685991004200      h
       12.89845071744000        3.70034834905800        7.40091526381900      h
       13.91634396799300        0.95557794395800       -4.63725913978200      o
       12.86397047938200       -0.40722169713000       -5.28168321310700      h
       13.55894662045800        1.15765965926000       -2.86331500828300      h
       -7.75742734069900       -3.64171282322300       -7.19668266300800      o
       -6.49103581756300       -4.96367491849500       -7.38763162366400      h
       -8.07385838801900       -2.93574758786900       -8.85662604058200      h
      -17.69364147714900       -0.05923207716800       -6.83190356403400      o
      -19.16056533136000       -1.13082314421400       -6.79096849456500      h
      -18.30916952100300        1.71007690523200       -6.83574655570000      h
        1.86315293537000        9.55670528038200        6.54449980276900      o
        2.90458270693600       10.73441548452000        5.59473874897800      h
        3.04291692447300        8.42030193720000        7.40411079531300      h
       -8.75646397031500        7.32094992989700        4.47155050029900      o
       -8.61784341281000        7.64645886314200        6.27707144596500      h
       -7.05184950634500        7.29821985151100        3.76613292094200      h
       -6.17632281194400       10.39757570421700       -0.95917384696400      o
       -5.94383377263800       11.28800843766400       -2.57215434692000      h
       -7.83756863059500       10.85090505306300       -0.30775926312500      h
       11.19201598742200       10.52541954769600       -4.83899948478500      o
       11.04580547943400       12.28107766875700       -4.42550197603000      h
        9.76915943137800        9.66838650096200       -4.00696737686700      h
      -13.98435105733800        5.83678986319300        4.42894680527300      o
      -13.62104227003300        7.51370310338000        5.17648905548200      h
      -12.84469090716400        5.69306098017100        2.97075304426300      h
       11.48375595788100        6.94534098800800       -0.56225138756000      o
       11.20424280816600        5.80234927649800       -1.97214413332900      h
        9.96801781599600        6.87941226877400        0.47077673386800      h
       18.44558281359300        2.79358835676300        8.23530724222700      o
       19.74297450593400        1.52602316055700        8.08369204073500      h
       18.89829614088100        4.12625537480600        7.01579294299200      h
        1.79446901214200        7.08747572429700       -1.99828541158400      o
        3.02941877623400        6.07907777443000       -2.91664018763800      h
        1.30429173638300        8.50591480782800       -3.05708940818800      h
      -12.88228923140000        5.12811818179800       -7.52363937426200      o
      -13.59610124176500        4.42462830092100       -9.05916472620200      h
      -11.06702873891400        5.29162002123800       -7.86186408217900      h
       15.32015801850600        6.79916363696400       -5.36724705404000      o
       14.15031875217000        8.13714993138600       -4.95235268556300      h
       15.67823368487100        5.91993396390500       -3.79398070166500      h
        8.05575765273800        3.52860723455900       13.23516388043600      o
        8.77584784312200        5.17948412163400       12.99340867878600      h
        6.25071178701100        3.76515989330300       13.42689736157600      h
      -17.19458707730600       -4.87502592193800        7.56189876167400      o
      -16.01057291426300       -6.11854529104300        6.93602948603600      h
[...]
   157   8 o      159   1 h                                       0.9667675
   160   8 o      161   1 h                                       0.9765501
   160   8 o      162   1 h                                       0.9702464
   163   8 o      164   1 h                                       0.9735108
   163   8 o      165   1 h                                       0.9658731
   166   8 o      167   1 h                                       0.9758833
   166   8 o      168   1 h                                       0.9624262
   169   8 o      170   1 h                                       0.9736469
   169   8 o      171   1 h                                       0.9769286
   172   8 o      173   1 h                                       0.9860324
   172   8 o      174   1 h                                       0.9696205
   175   8 o      176   1 h                                       0.9836120
   175   8 o      177   1 h                                       0.9785916
   178   8 o      179   1 h                                       0.9642800
   178   8 o      180   1 h                                       0.9647616
   181   8 o      182   1 h                                       0.9791370
   181   8 o      183   1 h                                       0.9727466
   184   8 o      185   1 h                                       0.9996702 (max)
   184   8 o      186   1 h                                       0.9671717
   187   8 o      188   1 h                                       0.9744613
   187   8 o      189   1 h                                       0.9787242
   190   8 o      191   1 h                                       0.9746357
   190   8 o      192   1 h                                       0.9754731
   193   8 o      194   1 h                                       0.9752440
   193   8 o      195   1 h                                       0.9862969
   196   8 o      197   1 h                                       0.9653517
   196   8 o      198   1 h                                       0.9781480
   199   8 o      200   1 h                                       0.9889885
   199   8 o      201   1 h                                       0.9853760
   202   8 o      203   1 h                                       0.9842026
   202   8 o      204   1 h                                       0.9570120
   205   8 o      206   1 h                                       0.9560434 (min)
   205   8 o      207   1 h                                       0.9926939
   208   8 o      209   1 h                                       0.9713880
   208   8 o      210   1 h                                       0.9762929
   211   8 o      212   1 h                                       0.9627239
   211   8 o      213   1 h                                       0.9804638
   214   8 o      215   1 h                                       0.9757545
   214   8 o      216   1 h                                       0.9705605
   217   8 o      218   1 h                                       0.9605884
   217   8 o      219   1 h                                       0.9794590
   220   8 o      221   1 h                                       0.9649283
   220   8 o      222   1 h                                       0.9815399
   223   8 o      224   1 h                                       0.9707796
   223   8 o      225   1 h                                       0.9745633
   226   8 o      227   1 h                                       0.9683361
   226   8 o      228   1 h                                       0.9774278
   229   8 o      230   1 h                                       0.9755592
   229   8 o      231   1 h                                       0.9685922
   232   8 o      233   1 h                                       0.9818418
   232   8 o      234   1 h                                       0.9570717
   235   8 o      236   1 h                                       0.9754851
   235   8 o      237   1 h                                       0.9850821
   238   8 o      239   1 h                                       0.9746909
   238   8 o      240   1 h                                       0.9761269
   241   8 o      242   1 h                                       0.9689802
   241   8 o      243   1 h                                       0.9783556
   244   8 o      245   1 h                                       0.9807724
   244   8 o      246   1 h                                       0.9634353
   247   8 o      248   1 h                                       0.9743943
   247   8 o      249   1 h                                       0.9761101
   250   8 o      251   1 h                                       0.9685856
   250   8 o      252   1 h                                       0.9771128
   253   8 o      254   1 h                                       0.9568924
   253   8 o      255   1 h                                       0.9872881
   256   8 o      257   1 h                                       0.9877242
   256   8 o      258   1 h                                       0.9735302
   259   8 o      260   1 h                                       0.9746113
   259   8 o      261   1 h                                       0.9680870
   262   8 o      263   1 h                                       0.9850126
   262   8 o      264   1 h                                       0.9577382
   265   8 o      266   1 h                                       0.9752199
   265   8 o      267   1 h                                       0.9837465
   268   8 o      269   1 h                                       0.9702516
   268   8 o      270   1 h                                       0.9745220
   271   8 o      272   1 h                                       0.9679021
   271   8 o      273   1 h                                       0.9844979
   274   8 o      275   1 h                                       0.9837954
   274   8 o      276   1 h                                       0.9836388
   277   8 o      278   1 h                                       0.9688001
   277   8 o      279   1 h                                       0.9766714
   280   8 o      281   1 h                                       0.9638163
   280   8 o      282   1 h                                       0.9784521
   283   8 o      284   1 h                                       0.9821787
   283   8 o      285   1 h                                       0.9654028
   286   8 o      288   1 h                                       0.9569638
   289   8 o      290   1 h                                       0.9795543
   289   8 o      291   1 h                                       0.9755561
   292   8 o      293   1 h                                       0.9705060
   292   8 o      294   1 h                                       0.9569872
   295   8 o      296   1 h                                       0.9780606
   295   8 o      297   1 h                                       0.9653076
   298   8 o      299   1 h                                       0.9646210
   298   8 o      300   1 h                                       0.9754520
   301   8 o      302   1 h                                       0.9681418
   301   8 o      303   1 h                                       0.9883475
   304   8 o      305   1 h                                       0.9647842
   304   8 o      306   1 h                                       0.9891549
   307   8 o      308   1 h                                       0.9643922
   307   8 o      309   1 h                                       0.9696895
   310   8 o      311   1 h                                       0.9779673
   310   8 o      312   1 h                                       0.9655906
   313   8 o      314   1 h                                       0.9642101
   313   8 o      315   1 h                                       0.9909343
   316   8 o      317   1 h                                       0.9715286
   316   8 o      318   1 h                                       0.9794257
   319   8 o      320   1 h                                       0.9731623
   319   8 o      321   1 h                                       0.9706010
   322   8 o      323   1 h                                       0.9566119
   322   8 o      324   1 h                                       0.9921017
   325   8 o      326   1 h                                       0.9803518
   325   8 o      327   1 h                                       0.9716128
   328   8 o      329   1 h                                       0.9799863
   328   8 o      330   1 h                                       0.9644773
   331   8 o      332   1 h                                       0.9650723
   331   8 o      333   1 h                                       0.9774324
   334   8 o      335   1 h                                       0.9659575
   334   8 o      336   1 h                                       0.9838779
   337   8 o      338   1 h                                       0.9735692
   337   8 o      339   1 h                                       0.9751272
   340   8 o      341   1 h                                       0.9692936
   340   8 o      342   1 h                                       0.9783149
   343   8 o      344   1 h                                       0.9666206
   343   8 o      345   1 h                                       0.9746678
   346   8 o      347   1 h                                       0.9736231
   346   8 o      348   1 h                                       0.9702992
   349   8 o      350   1 h                                       0.9693301
   349   8 o      351   1 h                                       0.9801767
   352   8 o      353   1 h                                       0.9664745
   352   8 o      354   1 h                                       0.9734489
   355   8 o      356   1 h                                       0.9762139
   355   8 o      357   1 h                                       0.9774333
   358   8 o      359   1 h                                       0.9578810
   361   8 o      362   1 h                                       0.9864351
   361   8 o      363   1 h                                       0.9753798
   364   8 o      365   1 h                                       0.9713875
   364   8 o      366   1 h                                       0.9690377
   367   8 o      368   1 h                                       0.9632240
   367   8 o      369   1 h                                       0.9738344
   370   8 o      371   1 h                                       0.9723062
   370   8 o      372   1 h                                       0.9743018
   373   8 o      374   1 h                                       0.9752065
   373   8 o      375   1 h                                       0.9737080
   376   8 o      377   1 h                                       0.9826521
   376   8 o      378   1 h                                       0.9569520
   379   8 o      380   1 h                                       0.9732183
   379   8 o      381   1 h                                       0.9728957
   382   8 o      383   1 h                                       0.9713173
   382   8 o      384   1 h                                       0.9676572
   385   8 o      386   1 h                                       0.9765245
   385   8 o      387   1 h                                       0.9672423
   388   8 o      389   1 h                                       0.9758914
   388   8 o      390   1 h                                       0.9659129
   391   8 o      392   1 h                                       0.9750285
   391   8 o      393   1 h                                       0.9566776
   394   8 o      395   1 h                                       0.9713378
   394   8 o      396   1 h                                       0.9764184
   397   8 o      398   1 h                                       0.9695043
   397   8 o      399   1 h                                       0.9706080
   400   8 o      401   1 h                                       0.9784707
   400   8 o      402   1 h                                       0.9711256
   403   8 o      404   1 h                                       0.9647182
   403   8 o      405   1 h                                       0.9643162
   406   8 o      407   1 h                                       0.9610265
   406   8 o      408   1 h                                       0.9814962
   409   8 o      410   1 h                                       0.9700502
   409   8 o      411   1 h                                       0.9564088
   412   8 o      413   1 h                                       0.9653541
   412   8 o      414   1 h                                       0.9721924
   415   8 o      416   1 h                                       0.9826483
   415   8 o      417   1 h                                       0.9712304
   418   8 o      419   1 h                                       0.9708200
   418   8 o      420   1 h                                       0.9632366
   421   8 o      422   1 h                                       0.9739853
   421   8 o      423   1 h                                       0.9659028
   424   8 o      425   1 h                                       0.9757100
   424   8 o      426   1 h                                       0.9818848
   427   8 o      428   1 h                                       0.9723796
   427   8 o      429   1 h                                       0.9808144
   430   8 o      431   1 h                                       0.9648394
   430   8 o      432   1 h                                       0.9850094
   433   8 o      434   1 h                                       0.9643812
   433   8 o      435   1 h                                       0.9853243
   436   8 o      437   1 h                                       0.9641655
   436   8 o      438   1 h                                       0.9671276
   439   8 o      440   1 h                                       0.9593581
   439   8 o      441   1 h                                       0.9639083
   442   8 o      443   1 h                                       0.9609090
   442   8 o      444   1 h                                       0.9889317
   445   8 o      446   1 h                                       0.9835109
   445   8 o      447   1 h                                       0.9774514
   448   8 o      449   1 h                                       0.9741675
   448   8 o      450   1 h                                       0.9734357
   451   8 o      452   1 h                                       0.9764577
   451   8 o      453   1 h                                       0.9824759
   454   8 o      455   1 h                                       0.9895992
   454   8 o      456   1 h                                       0.9613261
   457   8 o      458   1 h                                       0.9659370
   457   8 o      459   1 h                                       0.9761714
   460   8 o      461   1 h                                       0.9728799
   460   8 o      462   1 h                                       0.9635456
   463   8 o      464   1 h                                       0.9740014
   463   8 o      465   1 h                                       0.9691210
   466   8 o      467   1 h                                       0.9615675
   466   8 o      468   1 h                                       0.9913206
   469   8 o      470   1 h                                       0.9719624
   469   8 o      471   1 h                                       0.9789331
   472   8 o      473   1 h                                       0.9736110
   472   8 o      474   1 h                                       0.9763057
   475   8 o      476   1 h                                       0.9827076
   475   8 o      477   1 h                                       0.9742592
   478   8 o      479   1 h                                       0.9576052
   478   8 o      480   1 h                                       0.9830889
   481   8 o      482   1 h                                       0.9904031
   481   8 o      483   1 h                                       0.9823064
   484   8 o      485   1 h                                       0.9717797
   484   8 o      486   1 h                                       0.9712898
   487   8 o      488   1 h                                       0.9631802
   487   8 o      489   1 h                                       0.9854875
   490   8 o      491   1 h                                       0.9736492
   490   8 o      492   1 h                                       0.9719171
   493   8 o      494   1 h                                       0.9703246
   493   8 o      495   1 h                                       0.9809496
   496   8 o      497   1 h                                       0.9657838
   496   8 o      498   1 h                                       0.9723666
   499   8 o      500   1 h                                       0.9616434
   499   8 o      501   1 h                                       0.9686849
   502   8 o      503   1 h                                       0.9670984
   502   8 o      504   1 h                                       0.9622797
   505   8 o      506   1 h                                       0.9649555
   505   8 o      507   1 h                                       0.9923416
   508   8 o      509   1 h                                       0.9718111
   508   8 o      510   1 h                                       0.9846248
   511   8 o      512   1 h                                       0.9669316
   511   8 o      513   1 h                                       0.9736358
   514   8 o      515   1 h                                       0.9835301
   514   8 o      516   1 h                                       0.9573781
   517   8 o      518   1 h                                       0.9625405
   517   8 o      519   1 h                                       0.9835442
   520   8 o      521   1 h                                       0.9740333
   520   8 o      522   1 h                                       0.9678790
   523   8 o      524   1 h                                       0.9832951
   523   8 o      525   1 h                                       0.9712378
   526   8 o      527   1 h                                       0.9782919
   526   8 o      528   1 h                                       0.9628346
   529   8 o      530   1 h                                       0.9612903
   529   8 o      531   1 h                                       0.9633366

 * 1 distinct bonds (by element types)

   Z      Z             #   av. dist./Å        max./Å        min./Å
   1 H    8 O         352     0.9732238     0.9996702     0.9560434


optimized geometry written to: xtbopt.coord


           -------------------------------------------------
          | TOTAL ENERGY             -901.188225177346 Eh   |
          | GRADIENT NORM               0.002952664301 Eh/α |
          | HOMO-LUMO GAP               6.864897544866 eV   |
           -------------------------------------------------

------------------------------------------------------------------------
 * finished run on 2022/11/17 at 06:52:13.644     
------------------------------------------------------------------------
 total:
 * wall-time:     0 d,  0 h,  3 min, 25.658 sec
 *  cpu-time:     0 d,  0 h,  5 min, 18.087 sec
 * ratio c/w:     1.547 speedup
 SCF:
 * wall-time:     0 d,  0 h,  0 min,  8.407 sec
 *  cpu-time:     0 d,  0 h,  0 min, 13.221 sec
 * ratio c/w:     1.573 speedup
 ANC optimizer:
 * wall-time:     0 d,  0 h,  3 min, 16.630 sec
 *  cpu-time:     0 d,  0 h,  5 min,  3.809 sec
 * ratio c/w:     1.545 speedup

