      -----------------------------------------------------------      
     |                   =====================                   |     
     |                           x T B                           |     
     |                   =====================                   |     
     |                         S. Grimme                         |     
     |          Mulliken Center for Theoretical Chemistry        |     
     |                    University of Bonn                     |     
      -----------------------------------------------------------      

   * xtb version 6.5.1 (579679a) compiled by 'ehlert@majestix' on 2022-07-11

   xtb is free software: you can redistribute it and/or modify it under
   the terms of the GNU Lesser General Public License as published by
   the Free Software Foundation, either version 3 of the License, or
   (at your option) any later version.
   
   xtb is distributed in the hope that it will be useful,
   but WITHOUT ANY WARRANTY; without even the implied warranty of
   MERCHANTABILITY or FITNESS FOR A PARTICULAR PURPOSE.  See the
   GNU Lesser General Public License for more details.
   
   Cite this work as:
   * C. Bannwarth, E. Caldeweyher, S. Ehlert, A. Hansen, P. Pracht,
     J. Seibert, S. Spicher, S. Grimme, WIREs Comput. Mol. Sci., 2020, 11,
     e01493. DOI: 10.1002/wcms.1493
   
   for GFN2-xTB:
   * C. Bannwarth, S. Ehlert and S. Grimme., J. Chem. Theory Comput., 2019,
     15, 1652-1671. DOI: 10.1021/acs.jctc.8b01176
   for GFN1-xTB:
   * S. Grimme, C. Bannwarth, P. Shushkov, J. Chem. Theory Comput., 2017,
     13, 1989-2009. DOI: 10.1021/acs.jctc.7b00118
   for GFN0-xTB:
   * P. Pracht, E. Caldeweyher, S. Ehlert, S. Grimme, ChemRxiv, 2019, preprint.
     DOI: 10.26434/chemrxiv.8326202.v1
   for GFN-FF:
   * S. Spicher and S. Grimme, Angew. Chem. Int. Ed., 2020, 59, 15665-15673.
     DOI: 10.1002/anie.202004239
   
   for ALPB and GBSA implicit solvation:
   * S. Ehlert, M. Stahn, S. Spicher, S. Grimme, J. Chem. Theory Comput.,
     2021, 17, 4250-4261. DOI: 10.1021/acs.jctc.1c00471
   
   for DFT-D4:
   * E. Caldeweyher, C. Bannwarth and S. Grimme, J. Chem. Phys., 2017,
     147, 034112. DOI: 10.1063/1.4993215
   * E. Caldeweyher, S. Ehlert, A. Hansen, H. Neugebauer, S. Spicher,
     C. Bannwarth and S. Grimme, J. Chem. Phys., 2019, 150, 154122.
     DOI: 10.1063/1.5090222
   * E. Caldeweyher, J.-M. Mewes, S. Ehlert and S. Grimme, Phys. Chem. Chem. Phys.
     2020, 22, 8499-8512. DOI: 10.1039/D0CP00502A
   
   for sTDA-xTB:
   * S. Grimme and C. Bannwarth, J. Chem. Phys., 2016, 145, 054103.
     DOI: 10.1063/1.4959605
   
   in the mass-spec context:
   * V. Asgeirsson, C. Bauer and S. Grimme, Chem. Sci., 2017, 8, 4879.
     DOI: 10.1039/c7sc00601b
   * J. Koopman and S. Grimme, ACS Omega 2019, 4, 12, 15120-15133.
     DOI: 10.1021/acsomega.9b02011
   
   for metadynamics refer to:
   * S. Grimme, J. Chem. Theory Comput., 2019, 155, 2847-2862
     DOI: 10.1021/acs.jctc.9b00143
   
   for SPH calculations refer to:
   * S. Spicher and S. Grimme, J. Chem. Theory Comput., 2021, 17, 1701-1714
     DOI: 10.1021/acs.jctc.0c01306
   
   with help from (in alphabetical order)
   P. Atkinson, C. Bannwarth, F. Bohle, G. Brandenburg, E. Caldeweyher
   M. Checinski, S. Dohm, S. Ehlert, S. Ehrlich, I. Gerasimov, C. Hölzer
   A. Katbashev, J. Koopman, C. Lavigne, S. Lehtola, F. März, M. Müller,
   F. Musil, H. Neugebauer, J. Pisarek, C. Plett, P. Pracht, F. Pultar,
   J. Seibert, P. Shushkov, S. Spicher, M. Stahn, M. Steiner, T. Strunk,
   J. Stückrath, T. Rose, and J. Unsleber
   
 * started run on 2022/11/17 at 06:54:59.738     

           -------------------------------------------------
          |                Calculation Setup                |
           -------------------------------------------------

          program call               : xtb solvent_cluster.coord --gfn2 --sp --lmo --chrg 0
          hostname                   : cn0363
          coordinate file            : solvent_cluster.coord
          omp threads                :                     2

   ID    Z sym.   atoms
    1    8 o      1, 4, 7, 10, 13, 16, 19, 22, 25, 28, 31, 34, 37, 40, 43,
                  46, 49, 52, 55, 58, 61, 64, 67, 70, 73, 76, 79, 82, 85, 88,
                  91, 94, 97, 100, 103, 106, 109, 112, 115, 118, 121, 124,
                  127, 130, 133, 136, 139, 142, 145, 148, 151, 154, 157, 160,
                  163, 166, 169, 172, 175, 178, 181, 184, 187, 190, 193, 196,
                  199, 202, 205, 208, 211, 214, 217, 220, 223, 226, 229, 232,
                  235, 238, 241, 244, 247, 250, 253, 256, 259, 262, 265, 268,
                  271, 274, 277, 280, 283, 286, 289, 292, 295, 298, 301, 304,
                  307, 310, 313, 316, 319, 322, 325, 328, 331, 334, 337, 340,
                  343, 346, 349, 352, 355, 358, 361, 364, 367, 370, 373, 376,
                  379, 382, 385, 388, 391, 394, 397, 400, 403, 406, 409, 412,
                  415, 418, 421, 424, 427, 430, 433, 436, 439, 442, 445, 448,
                  451, 454, 457, 460, 463, 466, 469, 472, 475, 478, 481, 484,
                  487, 490, 493, 496, 499, 502, 505, 508, 511, 514, 517, 520,
                  523, 526, 529
    2    1 h      2, 3, 5, 6, 8, 9, 11, 12, 14, 15, 17, 18, 20, 21, 23, 24,
                  26, 27, 29, 30, 32, 33, 35, 36, 38, 39, 41, 42, 44, 45, 47,
                  48, 50, 51, 53, 54, 56, 57, 59, 60, 62, 63, 65, 66, 68, 69,
                  71, 72, 74, 75, 77, 78, 80, 81, 83, 84, 86, 87, 89, 90, 92,
                  93, 95, 96, 98, 99, 101, 102, 104, 105, 107, 108, 110, 111,
                  113, 114, 116, 117, 119, 120, 122, 123, 125, 126, 128, 129,
                  131, 132, 134, 135, 137, 138, 140, 141, 143, 144, 146, 147,
                  149, 150, 152, 153, 155, 156, 158, 159, 161, 162, 164, 165,
                  167, 168, 170, 171, 173, 174, 176, 177, 179, 180, 182, 183,
                  185, 186, 188, 189, 191, 192, 194, 195, 197, 198, 200, 201,
                  203, 204, 206, 207, 209, 210, 212, 213, 215, 216, 218, 219,
                  221, 222, 224, 225, 227, 228, 230, 231, 233, 234, 236, 237,
                  239, 240, 242, 243, 245, 246, 248, 249, 251, 252, 254, 255,
                  257, 258, 260, 261, 263, 264, 266, 267, 269, 270, 272, 273,
                  275, 276, 278, 279, 281, 282, 284, 285, 287, 288, 290, 291,
                  293, 294, 296, 297, 299, 300, 302, 303, 305, 306, 308, 309,
                  311, 312, 314, 315, 317, 318, 320, 321, 323, 324, 326, 327,
                  329, 330, 332, 333, 335, 336, 338, 339, 341, 342, 344, 345,
                  347, 348, 350, 351, 353, 354, 356, 357, 359, 360, 362, 363,
                  365, 366, 368, 369, 371, 372, 374, 375, 377, 378, 380, 381,
                  383, 384, 386, 387, 389, 390, 392, 393, 395, 396, 398, 399,
                  401, 402, 404, 405, 407, 408, 410, 411, 413, 414, 416, 417,
                  419, 420, 422, 423, 425, 426, 428, 429, 431, 432, 434, 435,
                  437, 438, 440, 441, 443, 444, 446, 447, 449, 450, 452, 453,
                  455, 456, 458, 459, 461, 462, 464, 465, 467, 468, 470, 471,
                  473, 474, 476, 477, 479, 480, 482, 483, 485, 486, 488, 489,
                  491, 492, 494, 495, 497, 498, 500, 501, 503, 504, 506, 507,
                  509, 510, 512, 513, 515, 516, 518, 519, 521, 522, 524, 525,
                  527, 528, 530, 531

molecular fragmentation (1/2 indicates fragments):
111222222222222222222222222222222222222222222222222222222222222222222222
222222222222222222222222222222222222222222222222222222222222222222222222
222222222222222222222222222222222222222222222222222222222222222222222222
222222222222222222222222222222222222222222222222222222222222222222222222
222222222222222222222222222222222222222222222222222222222222222222222222
222222222222222222222222222222222222222222222222222222222222222222222222
222222222222222222222222222222222222222222222222222222222222222222222222
222222222222222222222222222
# atoms in fragment 1/2:     3   528
 fragment masses (1/2) :       18.02     3170.69
CMA distance (Bohr)    :   5.023
constraining FC (au)   :  0.0500

           -------------------------------------------------
          |                 G F N 2 - x T B                 |
           -------------------------------------------------

        Reference                      10.1021/acs.jctc.8b01176
      * Hamiltonian:
        H0-scaling (s, p, d)           1.850000    2.230000    2.230000
        zeta-weighting                 0.500000
      * Dispersion:
        s8                             2.700000
        a1                             0.520000
        a2                             5.000000
        s9                             5.000000
      * Repulsion:
        kExp                           1.500000    1.000000
        rExp                           1.000000
      * Coulomb:
        alpha                          2.000000
        third order                    shell-resolved
        anisotropic                    true
        a3                             3.000000
        a5                             4.000000
        cn-shift                       1.200000
        cn-exp                         4.000000
        max-rad                        5.000000


          ...................................................
          :                      SETUP                      :
          :.................................................:
          :  # basis functions                1062          :
          :  # atomic orbitals                1062          :
          :  # shells                          708          :
          :  # electrons                      1416          :
          :  max. iterations                   250          :
          :  Hamiltonian                  GFN2-xTB          :
          :  restarted?                      false          :
          :  GBSA solvation                  false          :
          :  PC potential                    false          :
          :  electronic temp.          300.0000000     K    :
          :  accuracy                    1.0000000          :
          :  -> integral cutoff          0.2500000E+02      :
          :  -> integral neglect         0.1000000E-07      :
          :  -> SCF convergence          0.1000000E-05 Eh   :
          :  -> wf. convergence          0.1000000E-03 e    :
          :  Broyden damping             0.4000000          :
          ...................................................

 iter      E             dE          RMSdq      gap      omega  full diag
   1   -906.5722498 -0.906572E+03  0.406E+00    8.68       0.0  T
   2   -906.6295933 -0.573434E-01  0.241E+00    7.80       1.0  T
   3   -906.6523340 -0.227407E-01  0.214E-01    6.51       1.0  T
   4   -906.6563057 -0.397170E-02  0.464E-02    6.90       1.0  T
   5   -906.6563762 -0.705260E-04  0.313E-02    6.84       1.0  T
   6   -906.6564057 -0.294559E-04  0.417E-03    6.87       1.0  T
   7   -906.6564073 -0.164770E-05  0.755E-04    6.86       5.7  T
   8   -906.6564073 -0.206954E-07  0.390E-04    6.86      11.1  T
   9   -906.6564073 -0.104739E-07  0.559E-05    6.86      77.6  T

   *** convergence criteria satisfied after 9 iterations ***

         #    Occupation            Energy/Eh            Energy/eV
      -------------------------------------------------------------
         1        2.0000           -0.7046498             -19.1745
       ...           ...                  ...                  ...
       702        2.0000           -0.3608238              -9.8185
       703        2.0000           -0.3565367              -9.7019
       704        2.0000           -0.3542822              -9.6405
       705        2.0000           -0.3478755              -9.4662
       706        2.0000           -0.3365166              -9.1571
       707        2.0000           -0.3341649              -9.0931
       708        2.0000           -0.3275405              -8.9128 (HOMO)
       709                         -0.0752627              -2.0480 (LUMO)
       710                         -0.0717414              -1.9522
       711                         -0.0519468              -1.4135
       712                         -0.0438156              -1.1923
       713                         -0.0416965              -1.1346
       ...                                ...                  ...
      1062                          0.4851714              13.2022
      -------------------------------------------------------------
                  HL-Gap            0.2522778 Eh            6.8648 eV
             Fermi-level           -0.2014016 Eh           -5.4804 eV
 
 localization/xTB-IFF output generation
 averaging CT terms over            3  occ. levels
 averaging CT terms over            2  virt. levels
 dipole moment from electron density (au)
     X       Y       Z   
  -0.1308   1.1089   0.1825  total (Debye):    2.876
cpu  time for init local    0.42 s
wall time for init local    0.21 s
 doing rotations ...
 initialization of trafo matrix to unity

 converged in     17 iterations, threshold :   0.99997640D-06
 doing transformations ...
 lmo centers(Z=2) and atoms on file <lmocent.coord>
 LMO Fii/eV  ncent    charge center   contributions...
    1 LP   *******   0.00  -4.12362   5.37926 -12.82185  148O :  8.48  121O :  4.92   37O :  4.91  211O :  4.78  268O :  4.35   16O :  4.21  472O :  3.71  241O :  3.42  175O :  3.27  475O :  3.08  412O :  2.88  454O :  2.87
  217O :  2.61   97O :  2.60   34O :  2.58  526O :  2.58  274O :  2.42  442O :  2.42  250O :  2.35  214O :  2.27    1O :  2.23   52O :  2.16  490O :  2.12  253O :  2.09
   88O :  2.08  340O :  2.02  349O :  1.96  406O :  1.95   64O :  1.94  271O :  1.91  346O :  1.88   19O :  1.88  367O :  1.80  511O :  1.79  424O :  1.79  115O :  1.78
  316O :  1.76  484O :  1.76  223O :  1.75  430O :  1.71   55O :  1.69  226O :  1.67  292O :  1.65  520O :  1.61  523O :  1.58  469O :  1.58  169O :  1.54   28O :  1.54
  517O :  1.52  109O :  1.51  298O :  1.51   10O :  1.49  445O :  1.49   25O :  1.45  130O :  1.42  154O :  1.40  313O :  1.39    7O :  1.36  361O :  1.34  103O :  1.32
  370O :  1.32  304O :  1.31  391O :  1.31  478O :  1.29  427O :  1.28  505O :  1.28  463O :  1.27  409O :  1.27  184O :  1.27   85O :  1.25  196O :  1.22  379O :  1.21
   31O :  1.21   40O :  1.19  418O :  1.12  160O :  1.04  514O :  1.04  163O :  1.03  208O :  1.00  397O :  0.99  439O :  0.99  199O :  0.99  481O :  0.98   49O :  0.98
  493O :  0.97  139O :  0.97  331O :  0.96  256O :  0.95  325O :  0.94  187O :  0.94  310O :  0.94  280O :  0.93  247O :  0.93   79O :  0.90   82O :  0.89  352O :  0.88
  244O :  0.88  235O :  0.85  436O :  0.85   76O :  0.81  388O :  0.81  151O :  0.80   13O :  0.80  238O :  0.79  400O :  0.77   70O :  0.76  322O :  0.74  127O :  0.74
  487O :  0.73  415O :  0.72  286O :  0.72  220O :  0.71  502O :  0.71  466O :  0.69  181O :  0.69  142O :  0.66  319O :  0.65   61O :  0.65   58O :  0.64  178O :  0.62
  124O :  0.61  334O :  0.59  457O :  0.59  355O :  0.58  451O :  0.58  421O :  0.58  172O :  0.56  473H :  0.56  448O :  0.56   73O :  0.54  243H :  0.52  190O :  0.50
    4O :  0.49  477H :  0.48  385O :  0.47  433O :  0.47  394O :  0.46  136O :  0.44  133O :  0.44  197H :  0.44  373O :  0.44  307O :  0.43  118O :  0.42  364O :  0.42
  358O :  0.41  301O :  0.41  289O :  0.41  205O :  0.40  456H :  0.39   94O :  0.39  529O :  0.39  218H :  0.38  382O :  0.38  499O :  0.38  277O :  0.37   22O :  0.36
  351H :  0.34  229O :  0.34   42H :  0.33  283O :  0.33  227H :  0.33  314H :  0.32   91O :  0.32    8H :  0.31  156H :  0.31  460O :  0.31   46O :  0.30  403O :  0.30
   27H :  0.28   67O :  0.28  265O :  0.28   80H :  0.27  343O :  0.27  259O :  0.27  150H :  0.27  407H :  0.26  200H :  0.25   43O :  0.24  328O :  0.24  337O :  0.24
    3H :  0.24  157O :  0.23  446H :  0.23  232O :  0.23  202O :  0.23  513H :  0.22  262O :  0.21  527H :  0.19  166O :  0.19  386H :  0.19   89H :  0.18  100O :  0.18
  318H :  0.18  447H :  0.18  363H :  0.17   35H :  0.17  149H :  0.17  399H :  0.17  335H :  0.17  496O :  0.17  171H :  0.17  145O :  0.17  438H :  0.17   50H :  0.17
  508O :  0.16  275H :  0.16  182H :  0.15  485H :  0.15   39H :  0.15   57H :  0.15  341H :  0.15  242H :  0.15  317H :  0.15  193O :  0.14  426H :  0.14   74H :  0.14
   12H :  0.14   29H :  0.14  177H :  0.14  504H :  0.13  106O :  0.13  216H :  0.13  432H :  0.13  347H :  0.13  425H :  0.12  120H :  0.12   56H :  0.12   38H :  0.12
  134H :  0.12   59H :  0.11  108H :  0.10  416H :  0.10  357H :  0.10  140H :  0.10  261H :  0.10  110H :  0.10  117H :  0.10  311H :  0.10  300H :  0.10  395H :  0.10
  312H :  0.10  295O :  0.10   98H :  0.09  239H :  0.09  348H :  0.09  252H :  0.09  521H :  0.09  519H :  0.09  417H :  0.09  267H :  0.09  231H :  0.09  237H :  0.08
  185H :  0.08    9H :  0.08  161H :  0.08  137H :  0.08  444H :  0.08  105H :  0.08  323H :  0.08  188H :  0.08  183H :  0.07  354H :  0.07  112O :  0.07  281H :  0.07
  180H :  0.07   44H :  0.07  165H :  0.07   96H :  0.07
    2 LP   *******   0.00  11.92493   3.75762   4.93396  268O :  6.65  148O :  4.61  121O :  4.43   37O :  4.40  211O :  4.30   16O :  3.79  472O :  3.34  241O :  3.08  175O :  2.95  475O :  2.77  454O :  2.64  412O :  2.59
  217O :  2.35   97O :  2.34   34O :  2.32  526O :  2.32  274O :  2.18  442O :  2.18  250O :  2.12  214O :  2.04    1O :  2.01   52O :  1.95  490O :  1.91  253O :  1.88
   88O :  1.87  340O :  1.82  349O :  1.77  406O :  1.75   64O :  1.75  271O :  1.72  346O :  1.69   19O :  1.69  367O :  1.62  511O :  1.61  424O :  1.61  115O :  1.60
  316O :  1.59  484O :  1.58  223O :  1.57  430O :  1.54  226O :  1.51   55O :  1.50  292O :  1.49  520O :  1.45  523O :  1.43  469O :  1.43  169O :  1.39   28O :  1.39
  517O :  1.37  109O :  1.36  298O :  1.36   10O :  1.34  445O :  1.34   25O :  1.31  130O :  1.28  154O :  1.26  313O :  1.26    7O :  1.23  361O :  1.20  370O :  1.19
  103O :  1.19  304O :  1.18  391O :  1.18  478O :  1.16  427O :  1.16  505O :  1.15  409O :  1.15  463O :  1.15  184O :  1.14   85O :  1.13  196O :  1.11  379O :  1.09
   31O :  1.09   40O :  1.07  418O :  1.01  160O :  0.94  514O :  0.94  163O :  0.92  208O :  0.90  397O :  0.90  199O :  0.89  439O :  0.89  481O :  0.89   49O :  0.88
  493O :  0.88  139O :  0.87  331O :  0.87  256O :  0.85  325O :  0.85  187O :  0.85  310O :  0.85  280O :  0.84  247O :  0.84   79O :  0.81   82O :  0.80  352O :  0.80
  244O :  0.79  235O :  0.77  436O :  0.76   76O :  0.73  388O :  0.73  151O :  0.72   13O :  0.72  238O :  0.71  400O :  0.69   70O :  0.69  322O :  0.67  127O :  0.66
  487O :  0.66  415O :  0.65  286O :  0.65  220O :  0.64  502O :  0.64  466O :  0.62  181O :  0.62  142O :  0.60   61O :  0.58   58O :  0.57  319O :  0.57  178O :  0.56
  124O :  0.55  334O :  0.53  421O :  0.53  355O :  0.53  172O :  0.52  451O :  0.52  457O :  0.52  448O :  0.51  473H :  0.51   73O :  0.48  243H :  0.46  190O :  0.45
    4O :  0.44  477H :  0.43  385O :  0.42  433O :  0.42  394O :  0.41  197H :  0.41  136O :  0.40  133O :  0.40  373O :  0.39  307O :  0.39  118O :  0.38  364O :  0.38
  358O :  0.37  301O :  0.37  289O :  0.37  205O :  0.36   94O :  0.35  529O :  0.35  456H :  0.35  218H :  0.34  382O :  0.34  499O :  0.34  277O :  0.33   22O :  0.33
  351H :  0.31  229O :  0.31   42H :  0.30  283O :  0.30  227H :  0.30  314H :  0.29   91O :  0.28    8H :  0.28  156H :  0.28  460O :  0.28   46O :  0.27  150H :  0.27
  403O :  0.27   27H :  0.25  259O :  0.25   67O :  0.25  265O :  0.25   80H :  0.25  343O :  0.25  407H :  0.24  200H :  0.22   43O :  0.22  328O :  0.22  337O :  0.22
    3H :  0.21  157O :  0.21  446H :  0.21  232O :  0.21  202O :  0.21  513H :  0.20  262O :  0.18  149H :  0.18  527H :  0.18  166O :  0.17  386H :  0.17   89H :  0.17
  100O :  0.16  318H :  0.16  447H :  0.16  363H :  0.16   35H :  0.16  399H :  0.15  335H :  0.15  145O :  0.15  496O :  0.15  171H :  0.15  438H :  0.15   50H :  0.15
  508O :  0.14  275H :  0.14  182H :  0.14  485H :  0.14   57H :  0.13  341H :  0.13  242H :  0.13  317H :  0.13   39H :  0.13  193O :  0.13  426H :  0.12   74H :  0.12
   12H :  0.12   29H :  0.12  177H :  0.12  504H :  0.12  106O :  0.12  216H :  0.12  432H :  0.11  347H :  0.11  425H :  0.11  120H :  0.11   56H :  0.11   38H :  0.11
  134H :  0.10   59H :  0.10  108H :  0.09  416H :  0.09  194H :  0.09  261H :  0.09  357H :  0.09  140H :  0.09  117H :  0.09  110H :  0.09  311H :  0.09  300H :  0.09
  395H :  0.09  312H :  0.09  295O :  0.09   98H :  0.09  239H :  0.08  348H :  0.08  252H :  0.08  521H :  0.08  519H :  0.08  417H :  0.08  267H :  0.08  231H :  0.08
  237H :  0.08  455H :  0.07  185H :  0.07  161H :  0.07  137H :  0.07  444H :  0.07    9H :  0.07  105H :  0.07
    3 LP   *******   0.00   3.46490 -10.73228  -0.30397  121O :  7.10  148O :  4.54   37O :  4.36  211O :  4.24  268O :  3.86   16O :  3.73  472O :  3.29  241O :  3.03  175O :  2.90  475O :  2.73  454O :  2.60  412O :  2.55
  217O :  2.32   97O :  2.31   34O :  2.29  526O :  2.29  274O :  2.15  442O :  2.15  250O :  2.09  214O :  2.01    1O :  1.98   52O :  1.92  490O :  1.88  253O :  1.85
   88O :  1.84  340O :  1.79  349O :  1.74  406O :  1.73   64O :  1.72  271O :  1.70  346O :  1.67   19O :  1.67  367O :  1.60  511O :  1.59  424O :  1.59  115O :  1.57
  316O :  1.56  484O :  1.56  223O :  1.55  430O :  1.51   55O :  1.50  226O :  1.48  292O :  1.47  520O :  1.43  469O :  1.41  523O :  1.40  169O :  1.37   28O :  1.37
  517O :  1.35  109O :  1.34  298O :  1.34   10O :  1.32  445O :  1.32   25O :  1.29  130O :  1.26  154O :  1.24  313O :  1.24    7O :  1.21  361O :  1.19  103O :  1.18
  370O :  1.17  304O :  1.16  391O :  1.16  478O :  1.15  427O :  1.14  505O :  1.13  463O :  1.13  409O :  1.13  184O :  1.13   85O :  1.11  196O :  1.08  379O :  1.08
   31O :  1.07   40O :  1.06  418O :  0.99  160O :  0.93  514O :  0.93  163O :  0.91  208O :  0.89  199O :  0.88  397O :  0.88  439O :  0.88  481O :  0.87   49O :  0.87
  493O :  0.86  139O :  0.86  331O :  0.85  256O :  0.84  325O :  0.84  187O :  0.83  310O :  0.83  280O :  0.83  247O :  0.83   79O :  0.79   82O :  0.79  352O :  0.78
  244O :  0.78  235O :  0.76  436O :  0.75  388O :  0.72   76O :  0.71  151O :  0.71   13O :  0.71  238O :  0.70  400O :  0.68   70O :  0.68  322O :  0.66  127O :  0.65
  487O :  0.65  415O :  0.64  286O :  0.64  220O :  0.63  502O :  0.63  466O :  0.61  181O :  0.61  142O :  0.59  319O :  0.58   61O :  0.57   58O :  0.56  178O :  0.55
  124O :  0.55  334O :  0.53  457O :  0.52  421O :  0.52  355O :  0.52  172O :  0.51  451O :  0.51  473H :  0.50  448O :  0.50   73O :  0.48  243H :  0.46  190O :  0.44
    4O :  0.43  477H :  0.42  385O :  0.42  433O :  0.41  394O :  0.41  136O :  0.39  133O :  0.39  197H :  0.39  373O :  0.39  307O :  0.38  118O :  0.37  364O :  0.37
  358O :  0.37  301O :  0.37  289O :  0.36  205O :  0.36   94O :  0.34  529O :  0.34  456H :  0.34  218H :  0.34  382O :  0.34  499O :  0.33  277O :  0.32   22O :  0.32
  229O :  0.30  351H :  0.30   42H :  0.30  283O :  0.29  227H :  0.29  314H :  0.28   91O :  0.28    8H :  0.28  156H :  0.27  460O :  0.27   46O :  0.27  150H :  0.26
  403O :  0.26   27H :  0.25   67O :  0.24  265O :  0.24   80H :  0.24  343O :  0.24  259O :  0.24  407H :  0.23   43O :  0.22  328O :  0.22  337O :  0.21    3H :  0.21
  200H :  0.21  157O :  0.21  446H :  0.21  232O :  0.21  202O :  0.20  513H :  0.19  262O :  0.18  149H :  0.18  527H :  0.17  166O :  0.17  386H :  0.17   89H :  0.16
  100O :  0.16  447H :  0.16  318H :  0.16  363H :  0.15   35H :  0.15  399H :  0.15  335H :  0.15  496O :  0.15  171H :  0.15  145O :  0.15  438H :  0.15   50H :  0.15
  508O :  0.14  275H :  0.14  182H :  0.14  485H :  0.13   39H :  0.13   57H :  0.13  242H :  0.13  341H :  0.13  317H :  0.13  193O :  0.13  426H :  0.12   74H :  0.12
   12H :  0.12   29H :  0.12  177H :  0.12  106O :  0.12  504H :  0.12  216H :  0.12  432H :  0.11  347H :  0.11  425H :  0.11  120H :  0.11   56H :  0.11   38H :  0.11
  134H :  0.10  108H :  0.09  416H :  0.09  357H :  0.09  140H :  0.09  261H :  0.09  110H :  0.09  117H :  0.09  311H :  0.09   59H :  0.09  300H :  0.09  395H :  0.09
  312H :  0.08  295O :  0.08   98H :  0.08  239H :  0.08  348H :  0.08  252H :  0.08  521H :  0.08  519H :  0.08  417H :  0.08  267H :  0.08  231H :  0.08  237H :  0.07
  455H :  0.07  185H :  0.07    9H :  0.07  161H :  0.07  137H :  0.07  444H :  0.07
    4 LP   *******   0.00   4.89631   2.10318   4.23041   37O :  6.85  148O :  4.41  121O :  4.24  211O :  4.12  268O :  3.75   16O :  3.63  472O :  3.20  241O :  2.95  175O :  2.82  475O :  2.66  454O :  2.53  412O :  2.48
  217O :  2.25   97O :  2.24   34O :  2.23  526O :  2.23  274O :  2.09  442O :  2.09  250O :  2.03  214O :  1.96    1O :  1.92   52O :  1.87  490O :  1.83  253O :  1.80
   88O :  1.79  340O :  1.74  349O :  1.69  406O :  1.68   64O :  1.67  271O :  1.65  346O :  1.62   19O :  1.62  367O :  1.55  511O :  1.54  424O :  1.54  115O :  1.53
  316O :  1.52  484O :  1.52  223O :  1.51  430O :  1.47   55O :  1.46  226O :  1.44  292O :  1.43  520O :  1.39  469O :  1.37   28O :  1.33  169O :  1.33  523O :  1.32
  517O :  1.32  109O :  1.30  298O :  1.30   10O :  1.29  445O :  1.28   25O :  1.25  130O :  1.23  154O :  1.21  313O :  1.20    7O :  1.16  361O :  1.15  103O :  1.15
  370O :  1.14  304O :  1.13  391O :  1.13  478O :  1.11  427O :  1.11  505O :  1.10  409O :  1.10  463O :  1.10  184O :  1.09   85O :  1.08  196O :  1.07  379O :  1.05
   31O :  1.04   40O :  1.03  418O :  0.96  160O :  0.90  514O :  0.90  163O :  0.88  208O :  0.87  397O :  0.86  439O :  0.86  199O :  0.86  481O :  0.85   49O :  0.85
  493O :  0.84  139O :  0.84  331O :  0.83  256O :  0.82  187O :  0.81  310O :  0.81  280O :  0.81  247O :  0.80  325O :  0.79   79O :  0.77   82O :  0.77  352O :  0.76
  244O :  0.76  235O :  0.73  436O :  0.73   76O :  0.70  388O :  0.70  151O :  0.69   13O :  0.69  238O :  0.68  400O :  0.66   70O :  0.66  322O :  0.64  127O :  0.64
  487O :  0.63  415O :  0.62  286O :  0.62  220O :  0.62  502O :  0.62  466O :  0.60  181O :  0.59  142O :  0.57  319O :  0.56   61O :  0.56   58O :  0.55  178O :  0.53
  124O :  0.53  334O :  0.51  457O :  0.51  421O :  0.51  355O :  0.50  172O :  0.50  451O :  0.50  473H :  0.48  448O :  0.47  197H :  0.47   73O :  0.46  243H :  0.44
  190O :  0.43    4O :  0.42  477H :  0.41  385O :  0.41  433O :  0.40  394O :  0.39  136O :  0.38  133O :  0.38  373O :  0.38  307O :  0.37  118O :  0.36  364O :  0.36
  358O :  0.36  301O :  0.36  289O :  0.35  205O :  0.35   94O :  0.33  529O :  0.33  456H :  0.33  382O :  0.33  218H :  0.33  499O :  0.32  277O :  0.32   22O :  0.31
  351H :  0.29  229O :  0.29   42H :  0.29  227H :  0.28  283O :  0.28  314H :  0.27   91O :  0.27    8H :  0.27  156H :  0.27  460O :  0.26   46O :  0.26  150H :  0.26
  403O :  0.25   27H :  0.24  265O :  0.24   80H :  0.24  343O :  0.24   67O :  0.24  259O :  0.24  407H :  0.23  200H :  0.21   43O :  0.21  328O :  0.21  337O :  0.21
    3H :  0.20  157O :  0.20  446H :  0.20  232O :  0.20  202O :  0.20  513H :  0.19  262O :  0.18  149H :  0.17  527H :  0.17  166O :  0.17  386H :  0.16   89H :  0.16
  100O :  0.16  447H :  0.15  318H :  0.15   35H :  0.15  363H :  0.15  399H :  0.15  335H :  0.15  496O :  0.15  171H :  0.15  145O :  0.15  438H :  0.14   50H :  0.14
  508O :  0.14  275H :  0.14  182H :  0.13  485H :  0.13  242H :  0.13  341H :  0.13  317H :  0.13  193O :  0.12   57H :  0.12  426H :  0.12   74H :  0.12   12H :  0.12
   29H :  0.12  177H :  0.12  504H :  0.11  106O :  0.11  216H :  0.11  432H :  0.11  347H :  0.11  425H :  0.11   39H :  0.11   38H :  0.11  120H :  0.10   56H :  0.10
  134H :  0.10   59H :  0.09  108H :  0.09  416H :  0.09  357H :  0.09  140H :  0.09  261H :  0.09  117H :  0.09  110H :  0.09  311H :  0.09  300H :  0.08  395H :  0.08
  312H :  0.08  295O :  0.08   98H :  0.08  239H :  0.08  348H :  0.08  252H :  0.08  521H :  0.08  519H :  0.08  417H :  0.08  267H :  0.08  231H :  0.07  237H :  0.07
  455H :  0.07  185H :  0.07  161H :  0.07
    5 LP   *******   0.00  -9.73320   8.63045   3.61064  472O :  5.75  148O :  4.08  121O :  3.92   37O :  3.92  211O :  3.81  268O :  3.47   16O :  3.36  241O :  2.73  175O :  2.61  475O :  2.46  454O :  2.34  412O :  2.30
  217O :  2.09   97O :  2.07   34O :  2.06  526O :  2.06  274O :  1.93  442O :  1.93  250O :  1.87  214O :  1.81    1O :  1.78   52O :  1.73  490O :  1.69  253O :  1.67
   88O :  1.66  340O :  1.61  349O :  1.56  406O :  1.55   64O :  1.55  271O :  1.53   19O :  1.50  346O :  1.48  367O :  1.45  511O :  1.43  424O :  1.43  115O :  1.42
  316O :  1.40  484O :  1.40  223O :  1.39  430O :  1.36   55O :  1.35  226O :  1.34  292O :  1.32  520O :  1.31  469O :  1.26  523O :  1.26   28O :  1.23  169O :  1.23
  517O :  1.22  109O :  1.20  298O :  1.20   10O :  1.19  445O :  1.19   25O :  1.16  130O :  1.13  154O :  1.12  313O :  1.11    7O :  1.09  361O :  1.07  103O :  1.06
  370O :  1.06  304O :  1.05  391O :  1.05  478O :  1.03  427O :  1.02  505O :  1.02  463O :  1.02  184O :  1.01  409O :  1.01   85O :  1.00  196O :  0.97  379O :  0.97
   40O :  0.97   31O :  0.96  418O :  0.89  160O :  0.83  514O :  0.83  163O :  0.82  208O :  0.80  397O :  0.79  439O :  0.79  199O :  0.79  481O :  0.78   49O :  0.78
  493O :  0.78  139O :  0.77  331O :  0.77  256O :  0.76  325O :  0.75  310O :  0.75  187O :  0.75  280O :  0.75  247O :  0.74   79O :  0.72   82O :  0.71  352O :  0.71
  244O :  0.70  235O :  0.68  436O :  0.68   76O :  0.65  388O :  0.65  151O :  0.64   13O :  0.64  238O :  0.63  400O :  0.61   70O :  0.61  322O :  0.59  127O :  0.59
  487O :  0.59  415O :  0.58  286O :  0.58  220O :  0.57  502O :  0.57  181O :  0.55  466O :  0.55  142O :  0.54  319O :  0.52   61O :  0.52   58O :  0.51  178O :  0.49
  124O :  0.49  334O :  0.47  457O :  0.47  421O :  0.47  355O :  0.47  172O :  0.46  451O :  0.46  448O :  0.45   73O :  0.43  473H :  0.42  243H :  0.41  190O :  0.40
    4O :  0.39  385O :  0.38  477H :  0.37  433O :  0.37  394O :  0.36  136O :  0.35  133O :  0.35  197H :  0.35  373O :  0.35  307O :  0.34  118O :  0.34  364O :  0.33
  358O :  0.33  301O :  0.33  289O :  0.32  205O :  0.32   94O :  0.31  529O :  0.31  456H :  0.31  218H :  0.30  382O :  0.30  499O :  0.30  277O :  0.30   22O :  0.29
   42H :  0.29  351H :  0.27  229O :  0.27  283O :  0.26  227H :  0.26  314H :  0.25   91O :  0.25    8H :  0.25  156H :  0.25  460O :  0.24   46O :  0.24  150H :  0.24
  403O :  0.24   27H :  0.22   67O :  0.22  265O :  0.22   80H :  0.22  343O :  0.22  259O :  0.22  407H :  0.21  200H :  0.20   43O :  0.20  328O :  0.19  337O :  0.19
    3H :  0.19  157O :  0.19  446H :  0.19  232O :  0.18  202O :  0.18  513H :  0.17  262O :  0.16  149H :  0.16  527H :  0.16  166O :  0.15  386H :  0.15   89H :  0.15
  100O :  0.15  318H :  0.14  447H :  0.14  363H :  0.14   35H :  0.14  399H :  0.14  335H :  0.13  496O :  0.13  171H :  0.13  145O :  0.13  438H :  0.13   50H :  0.13
  508O :  0.13  275H :  0.13  182H :  0.12  485H :  0.12   39H :  0.12   57H :  0.12  242H :  0.12  341H :  0.12  317H :  0.12  193O :  0.12   74H :  0.11  426H :  0.11
   12H :  0.11   29H :  0.11  177H :  0.11  504H :  0.11  106O :  0.11  216H :  0.10  432H :  0.10  425H :  0.10  347H :  0.10  120H :  0.10   56H :  0.10   38H :  0.09
  134H :  0.09   59H :  0.09  108H :  0.08  416H :  0.08  357H :  0.08  140H :  0.08  261H :  0.08  110H :  0.08  117H :  0.08  311H :  0.08  300H :  0.08  395H :  0.08
  295O :  0.08  312H :  0.08   98H :  0.08  239H :  0.08  348H :  0.07  252H :  0.07  519H :  0.07  417H :  0.07  521H :  0.07  267H :  0.07
    6 LP   *******   0.00  12.22386  -2.14903  -8.80023  211O :  6.21  148O :  3.86  121O :  3.71   37O :  3.71  268O :  3.29   16O :  3.18  472O :  2.80  241O :  2.58  175O :  2.47  475O :  2.33  454O :  2.22  412O :  2.17
  217O :  1.98   97O :  1.96   34O :  1.95  526O :  1.95  274O :  1.83  442O :  1.83  250O :  1.77  214O :  1.71    1O :  1.68   52O :  1.63  490O :  1.60  253O :  1.58
   88O :  1.57  340O :  1.52  349O :  1.48   64O :  1.47  406O :  1.46  271O :  1.44  346O :  1.42   19O :  1.42  367O :  1.36  511O :  1.35  424O :  1.35  316O :  1.35
  115O :  1.34  484O :  1.33  223O :  1.32  430O :  1.29   55O :  1.28  292O :  1.25  226O :  1.22  520O :  1.21  523O :  1.20  469O :  1.20  169O :  1.16   28O :  1.16
  517O :  1.15  298O :  1.14  109O :  1.14   10O :  1.13  445O :  1.12   25O :  1.09  130O :  1.07  154O :  1.06  313O :  1.05    7O :  1.03  361O :  1.01  103O :  1.00
  370O :  1.00  304O :  0.99  391O :  0.99  478O :  0.98  427O :  0.97  505O :  0.96  463O :  0.96  409O :  0.96  184O :  0.96   85O :  0.94  379O :  0.92  196O :  0.92
   31O :  0.91   40O :  0.90  418O :  0.84  160O :  0.79  514O :  0.79  163O :  0.78  208O :  0.76  199O :  0.75  397O :  0.75  439O :  0.75  481O :  0.74   49O :  0.74
  493O :  0.73  139O :  0.73  331O :  0.73  256O :  0.71  325O :  0.71  187O :  0.71  310O :  0.71  280O :  0.71  247O :  0.70   79O :  0.68   82O :  0.67  352O :  0.67
  244O :  0.64  235O :  0.64  436O :  0.64   76O :  0.61  388O :  0.61  151O :  0.61   13O :  0.61  238O :  0.60  400O :  0.58   70O :  0.58  322O :  0.56  127O :  0.56
  487O :  0.55  415O :  0.55  286O :  0.54  220O :  0.54  502O :  0.54  466O :  0.52  181O :  0.52  142O :  0.50  319O :  0.49   61O :  0.49   58O :  0.48  178O :  0.47
  124O :  0.46  334O :  0.45  457O :  0.45  421O :  0.45  355O :  0.44  172O :  0.44  451O :  0.43  473H :  0.42  448O :  0.42   73O :  0.41  243H :  0.39  190O :  0.38
    4O :  0.37  477H :  0.36  385O :  0.36  433O :  0.35  394O :  0.35  136O :  0.33  133O :  0.33  197H :  0.33  373O :  0.33  307O :  0.32  118O :  0.32  364O :  0.31
  358O :  0.31  301O :  0.31  289O :  0.31  205O :  0.31   94O :  0.29  529O :  0.29  218H :  0.29  456H :  0.29  382O :  0.29  499O :  0.28  277O :  0.28   22O :  0.27
  351H :  0.26  229O :  0.26   42H :  0.25  283O :  0.25  227H :  0.25   91O :  0.24  314H :  0.24    8H :  0.24  460O :  0.23  156H :  0.23   46O :  0.23  150H :  0.22
  403O :  0.22   27H :  0.21   67O :  0.21  265O :  0.21   80H :  0.21  343O :  0.21  259O :  0.21  407H :  0.20  200H :  0.19   43O :  0.19  328O :  0.18  337O :  0.18
    3H :  0.18  157O :  0.18  446H :  0.18  232O :  0.17  202O :  0.17  513H :  0.16  262O :  0.15  149H :  0.15  527H :  0.15  166O :  0.15  386H :  0.14   89H :  0.14
  100O :  0.14  318H :  0.13  447H :  0.13  363H :  0.13   35H :  0.13  399H :  0.13  335H :  0.13  145O :  0.13  496O :  0.13  171H :  0.13  438H :  0.13   50H :  0.13
  508O :  0.12  275H :  0.12  182H :  0.12  485H :  0.11   39H :  0.11  317H :  0.11   57H :  0.11  341H :  0.11  242H :  0.11  193O :  0.11  426H :  0.11   74H :  0.10
   12H :  0.10   29H :  0.10  177H :  0.10  504H :  0.10  106O :  0.10  216H :  0.10  432H :  0.10  425H :  0.10  347H :  0.10  120H :  0.09   56H :  0.09   38H :  0.09
  134H :  0.09   59H :  0.08  108H :  0.08  416H :  0.08  357H :  0.08  140H :  0.08  261H :  0.08  110H :  0.08  117H :  0.08  311H :  0.07  300H :  0.07  395H :  0.07
  312H :  0.07  295O :  0.07   98H :  0.07  348H :  0.07  252H :  0.07
    7 LP   *******   0.00  -4.28231  -8.08279   5.81384  175O :  4.95  148O :  3.73  121O :  3.58   37O :  3.58  211O :  3.48  268O :  3.17   16O :  3.07  472O :  2.71  241O :  2.49  475O :  2.25  454O :  2.14  412O :  2.10
  217O :  1.91   97O :  1.89   34O :  1.88  526O :  1.88  274O :  1.77  442O :  1.76  250O :  1.71  214O :  1.65    1O :  1.62   52O :  1.58  490O :  1.55  253O :  1.52
   88O :  1.51  340O :  1.47  349O :  1.43  406O :  1.42   64O :  1.42  271O :  1.39  346O :  1.37   19O :  1.37  367O :  1.31  511O :  1.31  424O :  1.30  115O :  1.29
  316O :  1.28  484O :  1.28  223O :  1.27  430O :  1.24   55O :  1.23  226O :  1.22  292O :  1.21  520O :  1.17  469O :  1.15  523O :  1.15  169O :  1.12   28O :  1.12
  517O :  1.11  109O :  1.10  298O :  1.10   10O :  1.09  445O :  1.08   25O :  1.06  130O :  1.04  154O :  1.02  313O :  1.01    7O :  0.99  361O :  0.98  103O :  0.97
  370O :  0.97  304O :  0.96  391O :  0.95  478O :  0.94  427O :  0.94  505O :  0.93  463O :  0.93  409O :  0.93  184O :  0.92   85O :  0.91  196O :  0.89  379O :  0.88
   31O :  0.88   40O :  0.87  418O :  0.81  160O :  0.76  514O :  0.76  163O :  0.75  208O :  0.73  397O :  0.73  439O :  0.72  199O :  0.72  481O :  0.72   49O :  0.71
  493O :  0.71  139O :  0.71  331O :  0.70  256O :  0.69  325O :  0.69  187O :  0.69  280O :  0.68  247O :  0.68  310O :  0.67   79O :  0.65   82O :  0.65  352O :  0.64
  244O :  0.64  235O :  0.62  436O :  0.62   76O :  0.59  388O :  0.59  151O :  0.59   13O :  0.59  238O :  0.58  400O :  0.56   70O :  0.56  322O :  0.54  127O :  0.54
  487O :  0.53  415O :  0.53  220O :  0.52  502O :  0.52  466O :  0.50  181O :  0.50  142O :  0.48  319O :  0.47   61O :  0.47   58O :  0.46  286O :  0.46  178O :  0.45
  124O :  0.45  334O :  0.43  457O :  0.43  421O :  0.43  355O :  0.42  172O :  0.42  451O :  0.42  473H :  0.41  448O :  0.41   73O :  0.39  243H :  0.38  190O :  0.36
    4O :  0.36  477H :  0.35  385O :  0.34  433O :  0.34  394O :  0.33  136O :  0.32  133O :  0.32  197H :  0.32  373O :  0.32  307O :  0.31  364O :  0.31  118O :  0.31
  358O :  0.30  301O :  0.30  289O :  0.30  205O :  0.29   94O :  0.28  529O :  0.28  456H :  0.28  218H :  0.28  382O :  0.28  499O :  0.27  277O :  0.27   22O :  0.26
  351H :  0.25  229O :  0.25   42H :  0.24  283O :  0.24  227H :  0.24   91O :  0.23  314H :  0.23    8H :  0.23  156H :  0.22  460O :  0.22   46O :  0.22  150H :  0.22
  403O :  0.22   27H :  0.20   67O :  0.20  265O :  0.20   80H :  0.20  343O :  0.20  259O :  0.20  407H :  0.19  200H :  0.18   43O :  0.18  328O :  0.18  337O :  0.18
    3H :  0.17  157O :  0.17  446H :  0.17  232O :  0.17  202O :  0.17  513H :  0.16  262O :  0.15  149H :  0.14  527H :  0.14  166O :  0.14  386H :  0.14   89H :  0.13
  100O :  0.13  318H :  0.13  447H :  0.13  363H :  0.13   35H :  0.13  399H :  0.12  335H :  0.12  496O :  0.12  171H :  0.12  145O :  0.12  438H :  0.12   50H :  0.12
  508O :  0.12  275H :  0.11  182H :  0.11  485H :  0.11   39H :  0.11   57H :  0.11  341H :  0.11  242H :  0.11  317H :  0.11  193O :  0.11  426H :  0.10   74H :  0.10
   12H :  0.10   29H :  0.10  504H :  0.10  106O :  0.10  432H :  0.09  347H :  0.09  425H :  0.09  216H :  0.09  120H :  0.09   56H :  0.09   38H :  0.09  134H :  0.08
   59H :  0.08  108H :  0.07  416H :  0.07  261H :  0.07  177H :  0.07  110H :  0.07  117H :  0.07  357H :  0.07  300H :  0.07  395H :  0.07
    8 LP   *******   0.01   8.87977  -9.11900  -7.14299   16O :  4.85  148O :  3.12   37O :  3.00  121O :  2.99  211O :  2.92  268O :  2.66  472O :  2.27  241O :  2.09  175O :  2.00  475O :  1.88  454O :  1.79  412O :  1.76
  217O :  1.60   97O :  1.59   34O :  1.58  526O :  1.58  274O :  1.48  442O :  1.48  250O :  1.44  214O :  1.39    1O :  1.36   52O :  1.32  490O :  1.30  253O :  1.28
   88O :  1.27  340O :  1.23  349O :  1.20  406O :  1.19   64O :  1.19  271O :  1.17  346O :  1.15   19O :  1.15  367O :  1.10  511O :  1.09  424O :  1.09  115O :  1.08
  316O :  1.07  484O :  1.07  223O :  1.07  430O :  1.04   55O :  1.03  226O :  1.02  292O :  1.01  520O :  0.98  523O :  0.97  469O :  0.97  169O :  0.94   28O :  0.94
  517O :  0.93  109O :  0.92  298O :  0.92  445O :  0.91   10O :  0.89   25O :  0.89  130O :  0.87  154O :  0.85  313O :  0.85    7O :  0.83  361O :  0.82  103O :  0.81
  370O :  0.81  304O :  0.80  391O :  0.80  478O :  0.79  427O :  0.78  505O :  0.78  463O :  0.78  409O :  0.78  184O :  0.77   85O :  0.76  196O :  0.74  379O :  0.74
   31O :  0.74   40O :  0.73  418O :  0.68  160O :  0.64  514O :  0.64  163O :  0.63  208O :  0.61  397O :  0.61  439O :  0.61  481O :  0.60   49O :  0.60  493O :  0.59
  139O :  0.59  199O :  0.59  331O :  0.59  256O :  0.58  325O :  0.58  187O :  0.57  310O :  0.57  280O :  0.57  247O :  0.57   79O :  0.55   82O :  0.54  352O :  0.54
  244O :  0.54  235O :  0.52  436O :  0.52   76O :  0.50  388O :  0.49  151O :  0.49   13O :  0.49  238O :  0.48  400O :  0.47   70O :  0.47  322O :  0.45  127O :  0.45
  487O :  0.45  415O :  0.44  286O :  0.44  220O :  0.44  502O :  0.44  466O :  0.42  181O :  0.42  142O :  0.40  319O :  0.40   61O :  0.40   58O :  0.39  178O :  0.38
  124O :  0.38  334O :  0.36  457O :  0.36  421O :  0.36  355O :  0.36  172O :  0.35  451O :  0.35  473H :  0.34  448O :  0.34   73O :  0.33  243H :  0.31  190O :  0.30
    4O :  0.30  477H :  0.29  385O :  0.29  433O :  0.28  394O :  0.28  136O :  0.27  133O :  0.27  197H :  0.27  373O :  0.27  307O :  0.26  118O :  0.26  364O :  0.25
  358O :  0.25  301O :  0.25  289O :  0.25  205O :  0.25   94O :  0.24  529O :  0.24  456H :  0.23  218H :  0.23  382O :  0.23  499O :  0.23  277O :  0.23   22O :  0.22
  229O :  0.21  351H :  0.21   42H :  0.20  283O :  0.20  227H :  0.20  314H :  0.19   91O :  0.19    8H :  0.19  156H :  0.19  460O :  0.19   46O :  0.18  150H :  0.18
  403O :  0.18   27H :  0.17   67O :  0.17  265O :  0.17   80H :  0.17  343O :  0.17  259O :  0.17  407H :  0.16  200H :  0.15   43O :  0.15  328O :  0.15    3H :  0.14
  157O :  0.14  446H :  0.14  232O :  0.14  202O :  0.14  337O :  0.13  513H :  0.13  262O :  0.13  149H :  0.12  527H :  0.12  166O :  0.12  386H :  0.12   89H :  0.11
  100O :  0.11  318H :  0.11  447H :  0.11  363H :  0.11   35H :  0.11  399H :  0.10  335H :  0.10  496O :  0.10  171H :  0.10  145O :  0.10  438H :  0.10   50H :  0.10
  508O :  0.10  275H :  0.10  182H :  0.09  485H :  0.09   39H :  0.09   57H :  0.09  341H :  0.09  242H :  0.09  317H :  0.09  193O :  0.09  426H :  0.08   74H :  0.08
   12H :  0.08   29H :  0.08  177H :  0.08  504H :  0.08  106O :  0.08  216H :  0.08  432H :  0.08  347H :  0.08  425H :  0.08  120H :  0.07   56H :  0.07   38H :  0.07
  134H :  0.07
    9 LP   *******   0.01   8.24768  -0.74224 -13.76445  217O :  3.55  148O :  2.63  121O :  2.53   37O :  2.53  211O :  2.49  268O :  2.24   16O :  2.17  472O :  1.91  241O :  1.76  175O :  1.69  475O :  1.59  454O :  1.51
  412O :  1.48   97O :  1.34   34O :  1.33  526O :  1.33  274O :  1.25  442O :  1.24  250O :  1.21  214O :  1.17    1O :  1.15   52O :  1.11  490O :  1.09  253O :  1.08
   88O :  1.07  340O :  1.04  349O :  1.01  406O :  1.00   64O :  1.00  271O :  0.98  346O :  0.97   19O :  0.97  367O :  0.93  511O :  0.92  424O :  0.92  115O :  0.91
  316O :  0.91  484O :  0.91  223O :  0.90  430O :  0.88   55O :  0.87  226O :  0.86  292O :  0.85  520O :  0.83  469O :  0.82  523O :  0.82  169O :  0.79   28O :  0.79
  517O :  0.78  109O :  0.78  298O :  0.78   10O :  0.77  445O :  0.77   25O :  0.75  130O :  0.73  154O :  0.72  313O :  0.72    7O :  0.70  361O :  0.69  103O :  0.68
  370O :  0.68  304O :  0.68  391O :  0.67  478O :  0.67  427O :  0.66  505O :  0.66  409O :  0.65  463O :  0.65  184O :  0.65   85O :  0.64  196O :  0.63  379O :  0.62
   31O :  0.62   40O :  0.61  418O :  0.57  160O :  0.54  514O :  0.54  163O :  0.53  208O :  0.52  397O :  0.51  439O :  0.51  199O :  0.51  481O :  0.51   49O :  0.50
  493O :  0.50  139O :  0.50  331O :  0.50  256O :  0.49  325O :  0.49  187O :  0.48  310O :  0.48  280O :  0.48  247O :  0.48   79O :  0.46   82O :  0.46  244O :  0.46
  352O :  0.46  235O :  0.44  436O :  0.44   76O :  0.42  388O :  0.42  151O :  0.41   13O :  0.41  238O :  0.40  400O :  0.40   70O :  0.39  322O :  0.38  127O :  0.38
  487O :  0.38  415O :  0.37  286O :  0.37  220O :  0.37  502O :  0.37  466O :  0.36  181O :  0.36  142O :  0.34  319O :  0.33   61O :  0.33   58O :  0.33  178O :  0.32
  124O :  0.32  334O :  0.31  457O :  0.30  421O :  0.30  355O :  0.30  172O :  0.30  451O :  0.30  473H :  0.29  448O :  0.29   73O :  0.28  243H :  0.27  190O :  0.26
    4O :  0.25  477H :  0.25  385O :  0.24  433O :  0.24  394O :  0.24  136O :  0.23  133O :  0.23  197H :  0.23  373O :  0.22  307O :  0.22  118O :  0.22  364O :  0.21
  358O :  0.21  301O :  0.21  289O :  0.21  205O :  0.21   94O :  0.20  529O :  0.20  456H :  0.20  382O :  0.20  499O :  0.19  277O :  0.19   22O :  0.19  351H :  0.18
  229O :  0.18  218H :  0.17   91O :  0.17   42H :  0.17  283O :  0.17  227H :  0.17  314H :  0.16    8H :  0.16  156H :  0.16  460O :  0.16   46O :  0.15  150H :  0.15
  403O :  0.15   27H :  0.14   67O :  0.14  265O :  0.14   80H :  0.14  343O :  0.14  259O :  0.14  407H :  0.14  200H :  0.13   43O :  0.13  328O :  0.13  337O :  0.12
    3H :  0.12  157O :  0.12  446H :  0.12  232O :  0.12  202O :  0.12  513H :  0.11  262O :  0.11  149H :  0.10  527H :  0.10  166O :  0.10  386H :  0.10   89H :  0.10
  100O :  0.09  318H :  0.09  447H :  0.09   35H :  0.09  363H :  0.09  399H :  0.09  335H :  0.09  496O :  0.09  171H :  0.09  145O :  0.09  438H :  0.09   50H :  0.09
  508O :  0.08  275H :  0.08  182H :  0.08  485H :  0.08   39H :  0.08   57H :  0.08  341H :  0.08  242H :  0.08  317H :  0.08  193O :  0.07  426H :  0.07   74H :  0.07
   12H :  0.07   29H :  0.07  177H :  0.07
   10 LP   *******   0.01  -4.91025  11.49773   0.20707  241O :  3.26  148O :  2.59  121O :  2.49   37O :  2.48  211O :  2.42  268O :  2.20   16O :  2.13  472O :  1.88  175O :  1.65  475O :  1.51  454O :  1.48  412O :  1.46
  217O :  1.32   97O :  1.31  526O :  1.30   34O :  1.30  274O :  1.22  442O :  1.22  250O :  1.19  214O :  1.15    1O :  1.13   52O :  1.09  490O :  1.07  253O :  1.06
   88O :  1.05  243H :  1.03  340O :  1.02  349O :  0.99  406O :  0.98   64O :  0.98  271O :  0.97   19O :  0.95  346O :  0.95  367O :  0.91  511O :  0.91  424O :  0.91
  115O :  0.90  316O :  0.89  484O :  0.89  223O :  0.88  430O :  0.86   55O :  0.85  226O :  0.85  292O :  0.84  520O :  0.81  469O :  0.80  523O :  0.80  169O :  0.78
   28O :  0.78  517O :  0.77  109O :  0.76  298O :  0.76   10O :  0.75  445O :  0.75   25O :  0.73  130O :  0.72  154O :  0.71  313O :  0.71    7O :  0.69  361O :  0.68
  103O :  0.67  370O :  0.67  304O :  0.66  391O :  0.66  478O :  0.65  409O :  0.65  427O :  0.65  505O :  0.65  463O :  0.64  184O :  0.64   85O :  0.63  196O :  0.62
  379O :  0.61   31O :  0.61   40O :  0.60  418O :  0.56  160O :  0.53  514O :  0.53  163O :  0.52  208O :  0.51  397O :  0.50  439O :  0.50  199O :  0.50  481O :  0.50
   49O :  0.49  493O :  0.49  139O :  0.49  331O :  0.49  256O :  0.48  187O :  0.48  325O :  0.48  310O :  0.48  280O :  0.47  247O :  0.47   79O :  0.45   82O :  0.45
  352O :  0.45  244O :  0.44  235O :  0.43  436O :  0.43   76O :  0.41  388O :  0.41  151O :  0.41   13O :  0.41  238O :  0.40  400O :  0.39   70O :  0.39  322O :  0.38
  127O :  0.37  487O :  0.37  415O :  0.37  286O :  0.36  220O :  0.36  502O :  0.36  466O :  0.35  181O :  0.35  142O :  0.33  319O :  0.33   61O :  0.33   58O :  0.32
  178O :  0.31  124O :  0.31  334O :  0.30  457O :  0.30  421O :  0.30  355O :  0.30  172O :  0.29  451O :  0.29  473H :  0.28  448O :  0.28   73O :  0.27  190O :  0.25
    4O :  0.25  385O :  0.24  433O :  0.24  477H :  0.23  394O :  0.23  133O :  0.22  136O :  0.22  197H :  0.22  373O :  0.22  307O :  0.22  118O :  0.21  364O :  0.21
  358O :  0.21  301O :  0.21  289O :  0.21  205O :  0.20   94O :  0.20  529O :  0.20  456H :  0.19  218H :  0.19  382O :  0.19  499O :  0.19  277O :  0.19   22O :  0.18
  351H :  0.17  229O :  0.17   42H :  0.17  283O :  0.17  227H :  0.17  314H :  0.16   91O :  0.16    8H :  0.16  156H :  0.16  460O :  0.16   46O :  0.15  150H :  0.15
  403O :  0.15   27H :  0.14  265O :  0.14   67O :  0.14   80H :  0.14  343O :  0.14  259O :  0.14  407H :  0.13  200H :  0.13   43O :  0.12  328O :  0.12  337O :  0.12
    3H :  0.12  157O :  0.12  446H :  0.12  232O :  0.12  202O :  0.12  513H :  0.11  262O :  0.10  149H :  0.10  527H :  0.10  166O :  0.10  386H :  0.10   89H :  0.09
  100O :  0.09  318H :  0.09  447H :  0.09   35H :  0.09  363H :  0.09  399H :  0.09  335H :  0.09  496O :  0.09  171H :  0.09  145O :  0.09  438H :  0.08   50H :  0.08
  508O :  0.08  275H :  0.08  182H :  0.08  485H :  0.08   39H :  0.08   57H :  0.08  341H :  0.07  317H :  0.07  193O :  0.07  426H :  0.07   74H :  0.07
   11 LP   *******   0.01  -1.44810   0.65682   4.86488  526O :  3.02  148O :  2.59  121O :  2.48   37O :  2.48  211O :  2.42  268O :  2.20   16O :  2.13  472O :  1.88  241O :  1.73  175O :  1.65  475O :  1.56  454O :  1.48
  412O :  1.45  217O :  1.32   97O :  1.32   34O :  1.30  274O :  1.22  442O :  1.22  250O :  1.19  214O :  1.15    1O :  1.14   52O :  1.09  490O :  1.07  253O :  1.06
   88O :  1.05  340O :  1.02  349O :  0.99  406O :  0.98   64O :  0.98  271O :  0.97  346O :  0.95   19O :  0.95  367O :  0.91  511O :  0.91  424O :  0.90  115O :  0.90
  316O :  0.89  484O :  0.89  223O :  0.88  430O :  0.86   55O :  0.85  226O :  0.85  292O :  0.84  520O :  0.81  523O :  0.80  469O :  0.80   28O :  0.78  169O :  0.78
  517O :  0.77  109O :  0.76  298O :  0.76   10O :  0.75  445O :  0.75   25O :  0.73  130O :  0.72  154O :  0.71  313O :  0.70    7O :  0.69  361O :  0.68  370O :  0.67
  103O :  0.67  304O :  0.66  391O :  0.66  478O :  0.65  427O :  0.65  505O :  0.65  409O :  0.64  463O :  0.64  184O :  0.64   85O :  0.63  196O :  0.62  379O :  0.61
   31O :  0.61   40O :  0.60  418O :  0.56  514O :  0.53  160O :  0.53  163O :  0.52  208O :  0.51  397O :  0.50  199O :  0.50  439O :  0.50  481O :  0.50   49O :  0.50
  493O :  0.49  139O :  0.49  331O :  0.49  256O :  0.48  325O :  0.48  187O :  0.48  280O :  0.47  247O :  0.47  310O :  0.47   79O :  0.45   82O :  0.45  352O :  0.45
  244O :  0.44  235O :  0.43  436O :  0.43   76O :  0.41  388O :  0.41  151O :  0.41   13O :  0.41  238O :  0.40  400O :  0.39   70O :  0.39  322O :  0.38  127O :  0.37
  487O :  0.37  415O :  0.37  286O :  0.36  220O :  0.36  502O :  0.36  466O :  0.35  181O :  0.35  142O :  0.33  319O :  0.33   61O :  0.33   58O :  0.32  178O :  0.31
  124O :  0.31  334O :  0.30  457O :  0.30  421O :  0.30  355O :  0.30  172O :  0.29  451O :  0.29  473H :  0.28  448O :  0.28   73O :  0.27  243H :  0.26  190O :  0.25
    4O :  0.25  477H :  0.24  385O :  0.24  433O :  0.24  394O :  0.23  136O :  0.22  133O :  0.22  197H :  0.22  373O :  0.22  307O :  0.22  118O :  0.21  364O :  0.21
  358O :  0.21  301O :  0.21  289O :  0.21  205O :  0.20   94O :  0.20  456H :  0.19  218H :  0.19  382O :  0.19  499O :  0.19  277O :  0.19  529O :  0.19   22O :  0.18
   42H :  0.17  351H :  0.17  229O :  0.17  283O :  0.17  227H :  0.17  314H :  0.16   91O :  0.16    8H :  0.16  156H :  0.16  460O :  0.16   46O :  0.15  150H :  0.15
  403O :  0.15   27H :  0.14   67O :  0.14  265O :  0.14   80H :  0.14  343O :  0.14  259O :  0.14  407H :  0.13  200H :  0.13   43O :  0.12  328O :  0.12  337O :  0.12
    3H :  0.12  157O :  0.12  446H :  0.12  232O :  0.12  202O :  0.12  513H :  0.11  262O :  0.10  149H :  0.10  166O :  0.10  386H :  0.10   89H :  0.09  100O :  0.09
  318H :  0.09  447H :  0.09  363H :  0.09   35H :  0.09  399H :  0.09  335H :  0.09  496O :  0.09  171H :  0.09  145O :  0.09  438H :  0.08   50H :  0.08  508O :  0.08
  275H :  0.08  182H :  0.08  485H :  0.08   39H :  0.08  527H :  0.08   57H :  0.08   29H :  0.08  341H :  0.07  242H :  0.07  317H :  0.07  193O :  0.07   74H :  0.07
  426H :  0.07
   12 LP   *******   0.01   4.32406  11.62065   5.01479   34O :  3.30  148O :  2.53   37O :  2.44  121O :  2.43  211O :  2.37  268O :  2.15   16O :  2.09  472O :  1.84  241O :  1.69  175O :  1.62  475O :  1.53  454O :  1.45
  412O :  1.43  217O :  1.29   97O :  1.29  526O :  1.28  274O :  1.20  442O :  1.20  250O :  1.16  214O :  1.12    1O :  1.11   52O :  1.07  490O :  1.05  253O :  1.03
   88O :  1.03  340O :  1.00  349O :  0.97  406O :  0.96   64O :  0.96  271O :  0.95  346O :  0.93   19O :  0.93  367O :  0.89  511O :  0.89  424O :  0.89  115O :  0.88
  316O :  0.87  484O :  0.87  223O :  0.86  430O :  0.85   55O :  0.84  226O :  0.83  292O :  0.82  520O :  0.80  523O :  0.78  169O :  0.76   28O :  0.76  469O :  0.76
  517O :  0.76  109O :  0.75  298O :  0.75   10O :  0.74  445O :  0.74   25O :  0.72  130O :  0.70  154O :  0.69  313O :  0.69    7O :  0.68  361O :  0.66  103O :  0.66
  370O :  0.66  304O :  0.65  391O :  0.65  478O :  0.64  427O :  0.64  505O :  0.63  463O :  0.63  409O :  0.63  184O :  0.63   85O :  0.62  196O :  0.60  379O :  0.60
   31O :  0.60   40O :  0.59  418O :  0.55  160O :  0.52  514O :  0.52  163O :  0.51  208O :  0.50  397O :  0.49  439O :  0.49  199O :  0.49  481O :  0.49   49O :  0.49
  493O :  0.48  139O :  0.48  331O :  0.48  256O :  0.47  325O :  0.47  187O :  0.47  310O :  0.47  280O :  0.46  247O :  0.46   79O :  0.44   82O :  0.44  352O :  0.44
  244O :  0.44  235O :  0.42  436O :  0.42   76O :  0.40  388O :  0.40  151O :  0.40   13O :  0.40  238O :  0.39  400O :  0.38   70O :  0.38  322O :  0.37  127O :  0.37
  487O :  0.36  415O :  0.36  286O :  0.36  220O :  0.35  502O :  0.35  466O :  0.34  181O :  0.34  142O :  0.33  319O :  0.32   61O :  0.32   58O :  0.31  178O :  0.30
  124O :  0.30  448O :  0.30  334O :  0.29  457O :  0.29  421O :  0.29  355O :  0.29  172O :  0.29  451O :  0.29  473H :  0.28   73O :  0.27  243H :  0.25  190O :  0.25
    4O :  0.24  477H :  0.24  385O :  0.23  433O :  0.23  394O :  0.23  133O :  0.22  136O :  0.22  197H :  0.22  373O :  0.22  307O :  0.21  118O :  0.21  364O :  0.21
  358O :  0.21  301O :  0.20  289O :  0.20  205O :  0.20  382O :  0.20   94O :  0.19  529O :  0.19  456H :  0.19  218H :  0.19  499O :  0.19  277O :  0.18   22O :  0.18
  351H :  0.17  229O :  0.17   42H :  0.17  283O :  0.16  227H :  0.16  314H :  0.16   91O :  0.16    8H :  0.15  156H :  0.15  460O :  0.15   46O :  0.15  150H :  0.15
  403O :  0.15   27H :  0.14   67O :  0.14  265O :  0.14   80H :  0.14  343O :  0.14  259O :  0.14  407H :  0.13  200H :  0.12   43O :  0.12  328O :  0.12  337O :  0.12
    3H :  0.12  157O :  0.12  446H :  0.11  232O :  0.11  202O :  0.11  513H :  0.11  262O :  0.10  149H :  0.10  527H :  0.10  166O :  0.10  386H :  0.09   89H :  0.09
  100O :  0.09  318H :  0.09  447H :  0.09  363H :  0.09  399H :  0.08  335H :  0.08  496O :  0.08  171H :  0.08  145O :  0.08  438H :  0.08   50H :  0.08  508O :  0.08
  275H :  0.08  182H :  0.08  485H :  0.08   39H :  0.07   57H :  0.07  341H :  0.07  242H :  0.07   35H :  0.07  317H :  0.07  193O :  0.07
   13 LP   *******   0.01   2.65225  -0.11037 -11.60261  442O :  3.17  148O :  2.53  121O :  2.43   37O :  2.43  211O :  2.36  268O :  2.15   16O :  2.08  472O :  1.83  241O :  1.69  175O :  1.62  475O :  1.52  454O :  1.45
  412O :  1.42  217O :  1.29   97O :  1.28   34O :  1.27  526O :  1.27  274O :  1.20  250O :  1.16  214O :  1.12    1O :  1.10   52O :  1.07  490O :  1.05  253O :  1.03
   88O :  1.03  340O :  1.00  349O :  0.97  406O :  0.96   64O :  0.95  271O :  0.94  346O :  0.93   19O :  0.93  367O :  0.89  511O :  0.88  424O :  0.88  115O :  0.88
  316O :  0.87  484O :  0.87  223O :  0.86  430O :  0.84   55O :  0.84  226O :  0.83  292O :  0.82  520O :  0.79  469O :  0.78  523O :  0.78  169O :  0.76   28O :  0.76
  517O :  0.76  109O :  0.75  298O :  0.75   10O :  0.74  445O :  0.73   25O :  0.72  130O :  0.70  154O :  0.69  313O :  0.69    7O :  0.67  361O :  0.66  103O :  0.65
  370O :  0.65  304O :  0.65  391O :  0.65  478O :  0.64  427O :  0.63  505O :  0.63  463O :  0.63  409O :  0.63  184O :  0.63   85O :  0.62  196O :  0.60  379O :  0.60
   31O :  0.60   40O :  0.59  418O :  0.55  160O :  0.52  514O :  0.52  163O :  0.51  208O :  0.50  397O :  0.49  199O :  0.49  439O :  0.49  481O :  0.49   49O :  0.48
  493O :  0.48  139O :  0.48  331O :  0.48  256O :  0.47  325O :  0.47  187O :  0.46  310O :  0.46  280O :  0.46  247O :  0.46   79O :  0.44   82O :  0.44  352O :  0.44
  244O :  0.43  235O :  0.42  436O :  0.42   76O :  0.40  388O :  0.40  151O :  0.40   13O :  0.40  238O :  0.39  400O :  0.38   70O :  0.38  322O :  0.37  127O :  0.36
  487O :  0.36  415O :  0.36  286O :  0.36  502O :  0.35  466O :  0.34  181O :  0.34  142O :  0.33  319O :  0.32  220O :  0.32   61O :  0.32   58O :  0.31  178O :  0.31
  124O :  0.30  334O :  0.29  457O :  0.29  172O :  0.29  421O :  0.29  355O :  0.29  451O :  0.28  473H :  0.28  448O :  0.28   73O :  0.27  243H :  0.25  190O :  0.25
    4O :  0.24  477H :  0.24  385O :  0.23  433O :  0.23  394O :  0.23  136O :  0.22  133O :  0.22  197H :  0.22  373O :  0.21  307O :  0.21  118O :  0.21  364O :  0.21
  358O :  0.20  301O :  0.20  289O :  0.20  205O :  0.20   94O :  0.19  529O :  0.19  456H :  0.19  218H :  0.19  382O :  0.19  499O :  0.19  277O :  0.18   22O :  0.18
  351H :  0.17  229O :  0.17   42H :  0.17  283O :  0.16  227H :  0.16  314H :  0.16   91O :  0.16    8H :  0.15  156H :  0.15  460O :  0.15   46O :  0.15  403O :  0.15
  150H :  0.14   27H :  0.14   67O :  0.14  265O :  0.14   80H :  0.14  343O :  0.14  259O :  0.14  407H :  0.13  200H :  0.12   43O :  0.12  328O :  0.12  337O :  0.12
    3H :  0.12  157O :  0.11  446H :  0.11  232O :  0.11  202O :  0.11  513H :  0.11  262O :  0.10  149H :  0.10  527H :  0.10  166O :  0.09  386H :  0.09   89H :  0.09
  100O :  0.09  318H :  0.09  447H :  0.09  363H :  0.09   35H :  0.09  399H :  0.08  335H :  0.08  496O :  0.08  171H :  0.08  145O :  0.08  438H :  0.08   50H :  0.08
  508O :  0.08  275H :  0.08  182H :  0.08  485H :  0.08   39H :  0.07   57H :  0.07  341H :  0.07  242H :  0.07  317H :  0.07  193O :  0.07
   14 LP   *******   0.01  -6.01878   8.61785  -1.10409  475O :  3.41  148O :  2.53  121O :  2.43   37O :  2.43  211O :  2.37  268O :  2.16   16O :  2.09  472O :  1.84  241O :  1.64  175O :  1.62  454O :  1.45  412O :  1.42
  217O :  1.29   97O :  1.29   34O :  1.28  526O :  1.28  274O :  1.20  442O :  1.20  250O :  1.16  214O :  1.12    1O :  1.11   52O :  1.07  490O :  1.05  253O :  1.03
   88O :  1.03  340O :  1.00  349O :  0.97  406O :  0.96   64O :  0.96  271O :  0.95   19O :  0.93  367O :  0.89  511O :  0.89  424O :  0.89  346O :  0.89  115O :  0.88
  316O :  0.87  484O :  0.87  223O :  0.87  430O :  0.85   55O :  0.84  226O :  0.83  292O :  0.82  520O :  0.80  523O :  0.78  469O :  0.78  169O :  0.76   28O :  0.76
  517O :  0.76  109O :  0.75  298O :  0.75   10O :  0.74  445O :  0.74   25O :  0.72  130O :  0.70  154O :  0.69  313O :  0.69    7O :  0.68  361O :  0.66  103O :  0.66
  370O :  0.66  304O :  0.65  391O :  0.65  478O :  0.64  427O :  0.64  409O :  0.63  505O :  0.63  463O :  0.63  184O :  0.63   85O :  0.62  196O :  0.60  379O :  0.60
   31O :  0.60   40O :  0.59  418O :  0.55  160O :  0.52  514O :  0.52  163O :  0.51  208O :  0.50  397O :  0.49  199O :  0.49  439O :  0.49  481O :  0.49  493O :  0.48
  139O :  0.48  331O :  0.48   49O :  0.47  256O :  0.47  325O :  0.47  310O :  0.47  280O :  0.46  247O :  0.46  187O :  0.46   79O :  0.44   82O :  0.44  352O :  0.44
  244O :  0.44  235O :  0.42  436O :  0.42   76O :  0.40  388O :  0.40  151O :  0.40   13O :  0.40  238O :  0.39  400O :  0.38   70O :  0.38  322O :  0.37  127O :  0.37
  487O :  0.36  415O :  0.36  286O :  0.36  220O :  0.35  502O :  0.35  466O :  0.34  181O :  0.34  142O :  0.33  319O :  0.32   61O :  0.32   58O :  0.31  178O :  0.31
  124O :  0.30  334O :  0.29  457O :  0.29  421O :  0.29  355O :  0.29  172O :  0.29  451O :  0.29  448O :  0.28  473H :  0.28   73O :  0.27  190O :  0.25    4O :  0.24
  385O :  0.23  433O :  0.23  243H :  0.23  394O :  0.23  136O :  0.22  133O :  0.22  197H :  0.22  373O :  0.22  307O :  0.21  118O :  0.21  477H :  0.21  364O :  0.21
  358O :  0.21  301O :  0.20  289O :  0.20  205O :  0.20   94O :  0.19  529O :  0.19  456H :  0.19  218H :  0.19  382O :  0.19  499O :  0.19  277O :  0.18   22O :  0.18
  351H :  0.17  229O :  0.17   42H :  0.16  283O :  0.16  227H :  0.16  314H :  0.16   91O :  0.16    8H :  0.15  156H :  0.15  460O :  0.15  150H :  0.15  403O :  0.15
   27H :  0.14   46O :  0.14   67O :  0.14  265O :  0.14   80H :  0.14  343O :  0.14  259O :  0.14  407H :  0.13  200H :  0.12   43O :  0.12  328O :  0.12  337O :  0.12
    3H :  0.12  157O :  0.12  446H :  0.11  232O :  0.11  202O :  0.11  513H :  0.11  262O :  0.10  149H :  0.10  527H :  0.10  166O :  0.10  386H :  0.09   89H :  0.09
  100O :  0.09  318H :  0.09  447H :  0.09   35H :  0.09  363H :  0.09  399H :  0.08  335H :  0.08  496O :  0.08  171H :  0.08  145O :  0.08  438H :  0.08   50H :  0.08
  508O :  0.08  275H :  0.08  182H :  0.08  485H :  0.08   39H :  0.07   57H :  0.07  341H :  0.07  317H :  0.07  242H :  0.07  193O :  0.07
   15 LP   *******   0.01  -5.28338  -4.03120  11.53252  214O :  3.18  148O :  2.51  121O :  2.42   37O :  2.42  211O :  2.35  268O :  2.14   16O :  2.07  472O :  1.82  241O :  1.68  175O :  1.61  475O :  1.51  454O :  1.44
  412O :  1.42  217O :  1.29   97O :  1.28   34O :  1.27  526O :  1.27  274O :  1.19  442O :  1.19  250O :  1.16    1O :  1.10   52O :  1.06  490O :  1.04  253O :  1.03
   88O :  1.02  340O :  0.99  349O :  0.96  406O :  0.96   64O :  0.96  271O :  0.94  346O :  0.93   19O :  0.92  367O :  0.88  511O :  0.88  424O :  0.88  115O :  0.87
  316O :  0.87  484O :  0.86  223O :  0.86  430O :  0.84   55O :  0.83  226O :  0.82  292O :  0.81  520O :  0.79  523O :  0.78  469O :  0.78  169O :  0.76   28O :  0.76
  517O :  0.75  109O :  0.74  298O :  0.74   10O :  0.73  445O :  0.73   25O :  0.71  130O :  0.70  154O :  0.69  313O :  0.69    7O :  0.67  361O :  0.66  103O :  0.65
  370O :  0.65  304O :  0.65  391O :  0.64  478O :  0.64  427O :  0.63  505O :  0.63  463O :  0.63  409O :  0.63  184O :  0.62   85O :  0.61  196O :  0.60  379O :  0.60
   31O :  0.59   40O :  0.59  418O :  0.55  160O :  0.52  514O :  0.51  163O :  0.50  208O :  0.49  397O :  0.49  199O :  0.49  439O :  0.49  481O :  0.48   49O :  0.48
  493O :  0.48  139O :  0.48  331O :  0.47  256O :  0.47  325O :  0.46  187O :  0.46  280O :  0.46  310O :  0.46  247O :  0.46   82O :  0.44  352O :  0.43  244O :  0.43
   79O :  0.43  235O :  0.42  436O :  0.42   76O :  0.40  388O :  0.40   13O :  0.40  151O :  0.40  238O :  0.39  400O :  0.38   70O :  0.37  322O :  0.36  127O :  0.36
  487O :  0.36  415O :  0.36  220O :  0.35  502O :  0.35  286O :  0.35  466O :  0.34  181O :  0.34  142O :  0.32  319O :  0.32   61O :  0.32   58O :  0.31  178O :  0.30
  124O :  0.30  334O :  0.29  457O :  0.29  421O :  0.29  451O :  0.29  355O :  0.29  172O :  0.28  473H :  0.28  448O :  0.28   73O :  0.26  243H :  0.25  190O :  0.24
    4O :  0.24  477H :  0.23  385O :  0.23  433O :  0.23  394O :  0.22  136O :  0.22  133O :  0.22  197H :  0.22  373O :  0.21  307O :  0.21  118O :  0.21  364O :  0.20
  358O :  0.20  301O :  0.20  289O :  0.20  205O :  0.20   94O :  0.19  529O :  0.19  456H :  0.19  218H :  0.19  382O :  0.19  499O :  0.18  277O :  0.18   22O :  0.18
  351H :  0.17  229O :  0.17   42H :  0.16  283O :  0.16  227H :  0.16  314H :  0.16   91O :  0.15    8H :  0.15  156H :  0.15  460O :  0.15   46O :  0.15  150H :  0.15
  403O :  0.15   80H :  0.14   27H :  0.14   67O :  0.14  265O :  0.14  343O :  0.13  259O :  0.13  407H :  0.13  200H :  0.12   43O :  0.12  328O :  0.12  337O :  0.12
    3H :  0.12  157O :  0.11  446H :  0.11  232O :  0.11  202O :  0.11  513H :  0.11  262O :  0.10  149H :  0.10  527H :  0.10  166O :  0.09  386H :  0.09   89H :  0.09
  100O :  0.09  318H :  0.09  447H :  0.09  363H :  0.09   35H :  0.09  399H :  0.08  335H :  0.08  496O :  0.08  171H :  0.08  145O :  0.08  438H :  0.08   50H :  0.08
  508O :  0.08  275H :  0.08  182H :  0.08  485H :  0.07   39H :  0.07   57H :  0.07  341H :  0.07  242H :  0.07  317H :  0.07  193O :  0.07
   16 LP   *******   0.01  -1.15887  12.36642   1.56532  241O :  3.45  148O :  2.49  121O :  2.39   37O :  2.39  211O :  2.32  268O :  2.12   16O :  2.05  472O :  1.81  175O :  1.59  475O :  1.48  454O :  1.43  412O :  1.40
  217O :  1.27   97O :  1.26   34O :  1.26  526O :  1.26  274O :  1.18  442O :  1.18  250O :  1.14  214O :  1.10    1O :  1.09   52O :  1.05  490O :  1.03  253O :  1.02
   88O :  1.01  340O :  0.98  349O :  0.95  406O :  0.95   64O :  0.95  271O :  0.93   19O :  0.91  346O :  0.91  367O :  0.88  511O :  0.87  424O :  0.87  115O :  0.86
  316O :  0.86  484O :  0.86  223O :  0.85  430O :  0.83   55O :  0.82  226O :  0.81  292O :  0.80  520O :  0.78  469O :  0.77  523O :  0.77  169O :  0.75   28O :  0.75
  517O :  0.74  109O :  0.73  298O :  0.73   10O :  0.73  445O :  0.72   25O :  0.71  130O :  0.69  154O :  0.68  313O :  0.68    7O :  0.66  361O :  0.65  103O :  0.64
  370O :  0.64  304O :  0.64  391O :  0.64  478O :  0.63  427O :  0.62  505O :  0.62  463O :  0.62  184O :  0.62   85O :  0.61  409O :  0.60  196O :  0.59  379O :  0.59
   31O :  0.59   40O :  0.58  418O :  0.54  160O :  0.51  514O :  0.51  163O :  0.50  208O :  0.49  397O :  0.48  439O :  0.48  199O :  0.48  481O :  0.48   49O :  0.48
  493O :  0.47  139O :  0.47  331O :  0.47  256O :  0.46  325O :  0.46  187O :  0.46  310O :  0.46  280O :  0.45  247O :  0.45   79O :  0.44   82O :  0.43  352O :  0.43
  244O :  0.43  235O :  0.41  436O :  0.41   76O :  0.40  388O :  0.39  151O :  0.39   13O :  0.39  238O :  0.38  400O :  0.37   70O :  0.37  322O :  0.36  127O :  0.36
  487O :  0.36  415O :  0.35  286O :  0.35  220O :  0.35  502O :  0.35  466O :  0.34  181O :  0.34  142O :  0.32  319O :  0.32   61O :  0.31   58O :  0.31  178O :  0.30
  124O :  0.30  334O :  0.29  457O :  0.29  421O :  0.29  355O :  0.28  172O :  0.28  451O :  0.28  448O :  0.27  473H :  0.27   73O :  0.26  190O :  0.24    4O :  0.24
  385O :  0.23  477H :  0.23  433O :  0.23  394O :  0.22  133O :  0.21  136O :  0.21  197H :  0.21  373O :  0.21  243H :  0.21  307O :  0.21  118O :  0.21  364O :  0.20
  358O :  0.20  301O :  0.20  289O :  0.20  205O :  0.20   94O :  0.19  529O :  0.19  456H :  0.19  218H :  0.18  382O :  0.18  499O :  0.18  277O :  0.18   22O :  0.18
  351H :  0.17  229O :  0.17   42H :  0.16  283O :  0.16  227H :  0.16  314H :  0.15   91O :  0.15    8H :  0.15  156H :  0.15  460O :  0.15   46O :  0.15  150H :  0.14
  403O :  0.14   27H :  0.14   67O :  0.13   80H :  0.13  343O :  0.13  259O :  0.13  265O :  0.13  407H :  0.13  267H :  0.12  200H :  0.12   43O :  0.12  328O :  0.12
  337O :  0.12    3H :  0.11  157O :  0.11  446H :  0.11  232O :  0.11  202O :  0.11  513H :  0.11  262O :  0.10  149H :  0.10  527H :  0.09  166O :  0.09  386H :  0.09
   89H :  0.09  100O :  0.09  318H :  0.09  447H :  0.09   35H :  0.08  363H :  0.08  399H :  0.08  335H :  0.08  496O :  0.08  171H :  0.08  145O :  0.08  438H :  0.08
   50H :  0.08  508O :  0.08  242H :  0.08  275H :  0.08  182H :  0.07  485H :  0.07   39H :  0.07   57H :  0.07  341H :  0.07  317H :  0.07  193O :  0.07
   17 LP   *******   0.01  11.83309  -1.89816  -5.78485  211O :  4.08  148O :  2.45  121O :  2.36   37O :  2.36  268O :  2.09   16O :  2.02  472O :  1.78  241O :  1.64  175O :  1.57  475O :  1.48  454O :  1.41  412O :  1.38
  217O :  1.27   97O :  1.25   34O :  1.24  526O :  1.24  274O :  1.16  442O :  1.16  250O :  1.13  214O :  1.09    1O :  1.07   52O :  1.04  490O :  1.02  253O :  1.00
   88O :  1.00  340O :  0.97  406O :  0.94  349O :  0.94   64O :  0.93  271O :  0.92  346O :  0.90   19O :  0.90  367O :  0.86  424O :  0.86  511O :  0.86  316O :  0.86
  115O :  0.85  484O :  0.84  223O :  0.84  430O :  0.82   55O :  0.81  292O :  0.79  520O :  0.77  226O :  0.77  469O :  0.76  523O :  0.76  169O :  0.74   28O :  0.74
  517O :  0.73  298O :  0.72  109O :  0.72   10O :  0.72  445O :  0.71   25O :  0.70  130O :  0.68  154O :  0.67  313O :  0.67    7O :  0.65  361O :  0.64  103O :  0.64
  370O :  0.64  304O :  0.63  391O :  0.63  478O :  0.62  427O :  0.62  505O :  0.61  463O :  0.61  409O :  0.61  184O :  0.61   85O :  0.60  379O :  0.58  196O :  0.58
   31O :  0.58   40O :  0.57  418O :  0.54  160O :  0.50  514O :  0.50  163O :  0.49  208O :  0.48  397O :  0.48  439O :  0.48  199O :  0.48  481O :  0.47   49O :  0.47
  493O :  0.47  139O :  0.47  331O :  0.46  256O :  0.45  325O :  0.45  187O :  0.45  310O :  0.45  280O :  0.45  247O :  0.45   79O :  0.43   82O :  0.43  352O :  0.42
  244O :  0.42  235O :  0.41  436O :  0.41   76O :  0.39  388O :  0.39  151O :  0.39   13O :  0.38  238O :  0.38  400O :  0.37   70O :  0.37  322O :  0.36  127O :  0.35
  487O :  0.35  415O :  0.35  286O :  0.35  220O :  0.34  502O :  0.34  466O :  0.33  181O :  0.33  142O :  0.32  319O :  0.31   61O :  0.31   58O :  0.31  178O :  0.30
  124O :  0.29  334O :  0.29  457O :  0.28  421O :  0.28  355O :  0.28  172O :  0.28  451O :  0.28  473H :  0.27  448O :  0.27   73O :  0.26  243H :  0.25  190O :  0.24
    4O :  0.23  477H :  0.23  385O :  0.23  433O :  0.22  394O :  0.22  136O :  0.21  133O :  0.21  197H :  0.21  373O :  0.21  307O :  0.21  118O :  0.20  364O :  0.20
  358O :  0.20  301O :  0.20  289O :  0.19  205O :  0.19   94O :  0.19  529O :  0.19  456H :  0.18  218H :  0.18  382O :  0.18  499O :  0.18  277O :  0.18   22O :  0.17
  351H :  0.16  229O :  0.16   42H :  0.16   91O :  0.16  283O :  0.16  227H :  0.16  314H :  0.15  460O :  0.15    8H :  0.15  156H :  0.15   46O :  0.14  150H :  0.14
  403O :  0.14   27H :  0.13   67O :  0.13  265O :  0.13   80H :  0.13  343O :  0.13  259O :  0.13  407H :  0.13  200H :  0.12   43O :  0.12  328O :  0.12  337O :  0.11
    3H :  0.11  157O :  0.11  446H :  0.11  232O :  0.11  202O :  0.11  513H :  0.10  262O :  0.10  149H :  0.10  527H :  0.09  166O :  0.09  386H :  0.09   89H :  0.09
  100O :  0.09  447H :  0.09  318H :  0.09  363H :  0.08   35H :  0.08  399H :  0.08  145O :  0.08  496O :  0.08  335H :  0.08  171H :  0.08  438H :  0.08   50H :  0.08
  461H :  0.08  317H :  0.08  508O :  0.08  275H :  0.08  182H :  0.07  485H :  0.07   39H :  0.07   57H :  0.07  341H :  0.07  242H :  0.07
   18 LP   *******   0.01 -13.67098   7.84316  -0.88945  412O :  3.18  148O :  2.38  121O :  2.29   37O :  2.29  211O :  2.22  268O :  2.03   16O :  1.96  472O :  1.73  241O :  1.59  175O :  1.52  475O :  1.43  454O :  1.37
  217O :  1.22   97O :  1.21   34O :  1.20  526O :  1.20  274O :  1.13  442O :  1.13  250O :  1.09  214O :  1.06    1O :  1.04   52O :  1.01  490O :  0.99  253O :  0.97
   88O :  0.97  340O :  0.94  349O :  0.91  406O :  0.91   64O :  0.90  271O :  0.89  346O :  0.88   19O :  0.87  367O :  0.84  511O :  0.83  424O :  0.83  115O :  0.83
  316O :  0.82  484O :  0.82  223O :  0.81  430O :  0.79   55O :  0.79  226O :  0.78  292O :  0.77  520O :  0.75  469O :  0.74  523O :  0.74  169O :  0.72   28O :  0.72
  517O :  0.71  109O :  0.70  298O :  0.70   10O :  0.69  445O :  0.69   25O :  0.67  130O :  0.66  154O :  0.65  313O :  0.65    7O :  0.64  361O :  0.62  103O :  0.62
  370O :  0.61  304O :  0.61  391O :  0.61  478O :  0.60  427O :  0.60  505O :  0.59  463O :  0.59  409O :  0.59  184O :  0.59   85O :  0.58  196O :  0.57  379O :  0.56
   31O :  0.56   40O :  0.55  418O :  0.52  160O :  0.49  514O :  0.49  163O :  0.48  208O :  0.47  397O :  0.46  199O :  0.46  439O :  0.46  481O :  0.46   49O :  0.46
  493O :  0.45  139O :  0.45  331O :  0.45  256O :  0.44  325O :  0.44  310O :  0.44  280O :  0.44  247O :  0.43  187O :  0.43   79O :  0.42   82O :  0.41  352O :  0.41
  244O :  0.41  235O :  0.40  436O :  0.40  151O :  0.39   76O :  0.38  388O :  0.38   13O :  0.37  238O :  0.37  400O :  0.36   70O :  0.35  322O :  0.35  127O :  0.34
  487O :  0.34  415O :  0.34  286O :  0.34  181O :  0.34  220O :  0.33  502O :  0.33  466O :  0.32  142O :  0.31  319O :  0.30   61O :  0.30   58O :  0.30  178O :  0.29
  124O :  0.29  334O :  0.28  457O :  0.28  421O :  0.27  355O :  0.27  172O :  0.27  451O :  0.27  473H :  0.26  448O :  0.26   73O :  0.25  243H :  0.24    4O :  0.23
  190O :  0.22  477H :  0.22  385O :  0.22  433O :  0.22  394O :  0.21  136O :  0.21  133O :  0.21  197H :  0.20  373O :  0.20  307O :  0.20  118O :  0.20  364O :  0.19
  358O :  0.19  301O :  0.19  289O :  0.19  205O :  0.19   94O :  0.18  529O :  0.18  456H :  0.18  218H :  0.18  382O :  0.18  499O :  0.18  277O :  0.17   22O :  0.17
  351H :  0.16  229O :  0.16   42H :  0.16  283O :  0.15  227H :  0.15  314H :  0.15   91O :  0.15    8H :  0.14  156H :  0.14  460O :  0.14   46O :  0.14  150H :  0.14
  403O :  0.14   27H :  0.13   67O :  0.13  265O :  0.13   80H :  0.13  343O :  0.13  259O :  0.13  407H :  0.12  200H :  0.12   43O :  0.11  328O :  0.11  337O :  0.11
    3H :  0.11  157O :  0.11  446H :  0.11  232O :  0.11  202O :  0.11  513H :  0.10  182H :  0.10  262O :  0.10  149H :  0.09  527H :  0.09  166O :  0.09  386H :  0.09
   89H :  0.09  100O :  0.09  318H :  0.08  447H :  0.08  363H :  0.08   35H :  0.08  399H :  0.08  496O :  0.08  171H :  0.08  145O :  0.08  335H :  0.08  438H :  0.08
   50H :  0.08  508O :  0.07  275H :  0.07  485H :  0.07   39H :  0.07
   19 LP   *******   0.01  -1.28827  -2.84098  -9.29749   52O :  2.62  148O :  2.35  121O :  2.26   37O :  2.26  211O :  2.20  268O :  2.00   16O :  1.94  472O :  1.71  241O :  1.57  175O :  1.50  475O :  1.42  454O :  1.35
  412O :  1.32  217O :  1.20   97O :  1.19  526O :  1.19   34O :  1.19  274O :  1.11  442O :  1.11  250O :  1.08  214O :  1.04    1O :  1.03  490O :  0.98  253O :  0.96
   88O :  0.95  340O :  0.93  349O :  0.90  406O :  0.90   64O :  0.89  271O :  0.87  346O :  0.86   19O :  0.86  367O :  0.83  511O :  0.82  424O :  0.82  115O :  0.82
  316O :  0.81  484O :  0.81  223O :  0.80  430O :  0.78   55O :  0.78  226O :  0.77  292O :  0.76  520O :  0.74  523O :  0.73  469O :  0.73  169O :  0.71   28O :  0.71
  517O :  0.70  298O :  0.69  109O :  0.69   10O :  0.69  445O :  0.68   25O :  0.67  130O :  0.65  154O :  0.64  313O :  0.64    7O :  0.63  361O :  0.61  103O :  0.61
  370O :  0.61  304O :  0.60  391O :  0.60  478O :  0.59  427O :  0.59  505O :  0.59  463O :  0.59  409O :  0.58  184O :  0.58   85O :  0.57   31O :  0.56  196O :  0.56
  379O :  0.56   40O :  0.55  418O :  0.51  160O :  0.48  514O :  0.48  163O :  0.47  208O :  0.46  199O :  0.46  397O :  0.46  439O :  0.46  481O :  0.45   49O :  0.45
  139O :  0.45  493O :  0.45  331O :  0.44  256O :  0.43  325O :  0.43  187O :  0.43  310O :  0.43  280O :  0.43  247O :  0.43  352O :  0.42   79O :  0.41   82O :  0.41
  244O :  0.40  235O :  0.39  436O :  0.39   76O :  0.37  388O :  0.37  151O :  0.37   13O :  0.37  238O :  0.36  400O :  0.35   70O :  0.35  322O :  0.34  127O :  0.34
  487O :  0.34  415O :  0.33  286O :  0.33  220O :  0.33  502O :  0.33  466O :  0.32  181O :  0.32  142O :  0.30  319O :  0.30   61O :  0.30   58O :  0.29  178O :  0.28
  124O :  0.28  334O :  0.27  457O :  0.27  421O :  0.27  355O :  0.27  451O :  0.26  172O :  0.26  473H :  0.26  448O :  0.26   73O :  0.25  243H :  0.24  190O :  0.23
    4O :  0.22  477H :  0.22  385O :  0.22  433O :  0.21  394O :  0.21  136O :  0.20  133O :  0.20  197H :  0.20  373O :  0.20  307O :  0.20  118O :  0.19  364O :  0.19
  358O :  0.19  301O :  0.19  205O :  0.19   94O :  0.18  529O :  0.18  456H :  0.18  218H :  0.17  382O :  0.17  499O :  0.17  277O :  0.17  289O :  0.17   22O :  0.17
  351H :  0.16  229O :  0.16   42H :  0.15  283O :  0.15  227H :  0.15  314H :  0.15   91O :  0.14    8H :  0.14  156H :  0.14  460O :  0.14   46O :  0.14  150H :  0.14
  403O :  0.14   27H :  0.13   67O :  0.13  343O :  0.13  265O :  0.13   80H :  0.13  259O :  0.13  407H :  0.12  200H :  0.11   43O :  0.11  328O :  0.11  337O :  0.11
    3H :  0.11  157O :  0.11  446H :  0.11  232O :  0.11  202O :  0.11  513H :  0.10  262O :  0.09  149H :  0.09  527H :  0.09  166O :  0.09  386H :  0.09   89H :  0.09
  100O :  0.08  447H :  0.08  318H :  0.08  363H :  0.08   35H :  0.08  399H :  0.08  354H :  0.08  335H :  0.08  496O :  0.08  171H :  0.08  145O :  0.08  438H :  0.08
   50H :  0.08  508O :  0.07  275H :  0.07  182H :  0.07
   20 LP   *******   0.01  11.25466  -0.92524  12.04615   88O :  3.02  148O :  2.31  121O :  2.22   37O :  2.22  211O :  2.16  268O :  1.96   16O :  1.90  472O :  1.68  241O :  1.55  175O :  1.48  475O :  1.39  454O :  1.33
  412O :  1.30  217O :  1.18   97O :  1.17   34O :  1.17  526O :  1.17  274O :  1.09  442O :  1.09  250O :  1.06  214O :  1.03    1O :  1.01   52O :  0.98  490O :  0.96
  253O :  0.94  340O :  0.91  349O :  0.89  406O :  0.88   64O :  0.88  271O :  0.86  346O :  0.85   19O :  0.85  367O :  0.81  511O :  0.81  424O :  0.81  115O :  0.80
  316O :  0.80  484O :  0.79  223O :  0.79  430O :  0.77   55O :  0.76  226O :  0.76  292O :  0.75  520O :  0.73  469O :  0.72  523O :  0.72  169O :  0.70   28O :  0.70
  517O :  0.69  298O :  0.68  109O :  0.68   10O :  0.67  445O :  0.67   25O :  0.66  130O :  0.64  154O :  0.63  313O :  0.63    7O :  0.62  361O :  0.60  103O :  0.60
  370O :  0.60  304O :  0.59  391O :  0.59  478O :  0.58  427O :  0.58  505O :  0.58  463O :  0.57  409O :  0.57  184O :  0.57   85O :  0.57  196O :  0.55  379O :  0.55
   31O :  0.55   40O :  0.54  418O :  0.50  160O :  0.47  514O :  0.47  163O :  0.46  208O :  0.45  397O :  0.45  439O :  0.45  199O :  0.45  481O :  0.44   49O :  0.44
  493O :  0.44  139O :  0.44  331O :  0.43  256O :  0.43  325O :  0.43  187O :  0.43  310O :  0.42  280O :  0.42  247O :  0.42   79O :  0.40   82O :  0.40  352O :  0.40
  244O :  0.40  235O :  0.38  436O :  0.38   76O :  0.37  388O :  0.36  151O :  0.36   13O :  0.36  238O :  0.36  400O :  0.35   70O :  0.34  322O :  0.34  487O :  0.33
  127O :  0.33  415O :  0.33  286O :  0.33  220O :  0.32  502O :  0.32  466O :  0.31  181O :  0.31  142O :  0.30  319O :  0.29   61O :  0.29   58O :  0.29  178O :  0.28
  124O :  0.28  334O :  0.27  421O :  0.27  355O :  0.26  172O :  0.26  457O :  0.26  451O :  0.26  473H :  0.25  448O :  0.25   73O :  0.24  243H :  0.23  190O :  0.22
    4O :  0.22  477H :  0.21  385O :  0.21  433O :  0.21  394O :  0.21  136O :  0.20  133O :  0.20  197H :  0.20  373O :  0.20  307O :  0.19  118O :  0.19  364O :  0.19
  358O :  0.19  301O :  0.19  289O :  0.18  205O :  0.18   94O :  0.18  529O :  0.17  456H :  0.17  218H :  0.17  382O :  0.17  499O :  0.17  277O :  0.17   22O :  0.16
  351H :  0.15  229O :  0.15   42H :  0.15  283O :  0.15  227H :  0.15  314H :  0.14   91O :  0.14    8H :  0.14  156H :  0.14  460O :  0.14   46O :  0.14  150H :  0.13
  403O :  0.13   27H :  0.13   67O :  0.12  265O :  0.12   80H :  0.12  259O :  0.12  343O :  0.12  407H :  0.12  200H :  0.11   43O :  0.11  328O :  0.11  337O :  0.11
    3H :  0.11  157O :  0.11  446H :  0.10  232O :  0.10  202O :  0.10  513H :  0.10  262O :  0.09  149H :  0.09  527H :  0.09  166O :  0.09  386H :  0.09  100O :  0.08
  318H :  0.08  447H :  0.08  363H :  0.08   35H :  0.08  399H :  0.08  335H :  0.08  496O :  0.08  171H :  0.08  145O :  0.08  438H :  0.08   50H :  0.08  508O :  0.07
  275H :  0.07
   21 LP   *******   0.01   7.61277 -10.89922  -5.00864   16O :  3.66  148O :  2.25  121O :  2.16   37O :  2.16  211O :  2.10  268O :  1.91  472O :  1.63  241O :  1.50  175O :  1.44  475O :  1.36  454O :  1.29  412O :  1.27
  217O :  1.15   97O :  1.14   34O :  1.14  526O :  1.13  274O :  1.06  442O :  1.06  250O :  1.03  214O :  1.00    1O :  0.98   52O :  0.95  490O :  0.93  253O :  0.92
   88O :  0.91  340O :  0.89  406O :  0.86  349O :  0.86   64O :  0.85  271O :  0.84  346O :  0.83   19O :  0.83  367O :  0.79  511O :  0.79  424O :  0.79  115O :  0.78
  316O :  0.77  484O :  0.77  223O :  0.77  430O :  0.75   55O :  0.74  226O :  0.74  292O :  0.73  520O :  0.71  523O :  0.70  469O :  0.70  169O :  0.68   28O :  0.68
   10O :  0.67  517O :  0.67  109O :  0.66  298O :  0.66  445O :  0.65   25O :  0.64  130O :  0.62  154O :  0.62  313O :  0.61    7O :  0.60  361O :  0.59  103O :  0.58
  370O :  0.58  304O :  0.58  391O :  0.58  478O :  0.57  427O :  0.56  505O :  0.56  463O :  0.56  409O :  0.56  184O :  0.56   85O :  0.55  196O :  0.54  379O :  0.53
   31O :  0.53   40O :  0.52  418O :  0.49  160O :  0.46  514O :  0.46  199O :  0.45  163O :  0.45  208O :  0.44  397O :  0.44  439O :  0.44  481O :  0.43   49O :  0.43
[...]
   146   1 h    0.911 --   145 o    0.885
   147   1 h    0.881 --   145 o    0.827
   148   8 o    1.860 --   149 h    0.874   150 h    0.833
   149   1 h    0.901 --   148 o    0.874
   150   1 h    0.889 --   148 o    0.833
   151   8 o    1.864 --   152 h    0.908   153 h    0.805
   152   1 h    0.916 --   151 o    0.908
   153   1 h    0.875 --   151 o    0.805
   154   8 o    1.833 --   156 h    0.871   155 h    0.807
   155   1 h    0.880 --   154 o    0.807
   156   1 h    0.901 --   154 o    0.871
   157   8 o    1.869 --   159 h    0.872   158 h    0.847
   158   1 h    0.889 --   157 o    0.847
   159   1 h    0.898 --   157 o    0.872
   160   8 o    1.900 --   161 h    0.830   162 h    0.814
   161   1 h    0.885 --   160 o    0.830
   162   1 h    0.866 --   160 o    0.814
   163   8 o    1.860 --   165 h    0.873   164 h    0.839
   164   1 h    0.890 --   163 o    0.839
   165   1 h    0.898 --   163 o    0.873
   166   8 o    1.854 --   168 h    0.880   167 h    0.832
   167   1 h    0.888 --   166 o    0.832
   168   1 h    0.904 --   166 o    0.880
   169   8 o    1.843 --   170 h    0.839   171 h    0.836
   170   1 h    0.890 --   169 o    0.839
   171   1 h    0.891 --   169 o    0.836
   172   8 o    1.868 --   174 h    0.849   173 h    0.793
   173   1 h    0.876 --   172 o    0.793
   174   1 h    0.892 --   172 o    0.849
   175   8 o    1.899 --   177 h    0.807   176 h    0.799   287 h    0.126
   176   1 h    0.872 --   175 o    0.799
   177   1 h    0.875 --   175 o    0.807
   178   8 o    1.824 --   179 h    0.875   180 h    0.868
   179   1 h    0.897 --   178 o    0.875
   180   1 h    0.897 --   178 o    0.868
   181   8 o    1.875 --   182 h    0.821   183 h    0.819
   182   1 h    0.885 --   181 o    0.821
   183   1 h    0.873 --   181 o    0.819
   184   8 o    1.863 --   186 h    0.845   185 h    0.763
   185   1 h    0.873 --   184 o    0.763   112 o    0.107
   186   1 h    0.892 --   184 o    0.845
   187   8 o    1.840 --   188 h    0.841   189 h    0.815
   188   1 h    0.891 --   187 o    0.841
   189   1 h    0.882 --   187 o    0.815
   190   8 o    1.868 --   191 h    0.820   192 h    0.816
   191   1 h    0.888 --   190 o    0.820
   192   1 h    0.878 --   190 o    0.816
   193   8 o    1.852 --   194 h    0.825   195 h    0.791
   194   1 h    0.879 --   193 o    0.825
   195   1 h    0.876 --   193 o    0.791
   196   8 o    1.841 --   197 h    0.824   198 h    0.818
   197   1 h    0.880 --   196 o    0.824
   198   1 h    0.885 --   196 o    0.818
   199   8 o    1.848 --   201 h    0.786   200 h    0.773
   200   1 h    0.869 --   199 o    0.773
   201   1 h    0.879 --   199 o    0.786
   202   8 o    1.835 --   204 h    0.903   203 h    0.812
   203   1 h    0.888 --   202 o    0.812
   204   1 h    0.915 --   202 o    0.903
   205   8 o    1.847 --   206 h    0.914   207 h    0.796
   206   1 h    0.921 --   205 o    0.914
   207   1 h    0.882 --   205 o    0.796
   208   8 o    1.899 --   209 h    0.834   210 h    0.805
   209   1 h    0.876 --   208 o    0.834
   210   1 h    0.873 --   208 o    0.805
   211   8 o    1.858 --   212 h    0.858   213 h    0.809
   212   1 h    0.882 --   211 o    0.858
   213   1 h    0.885 --   211 o    0.809
   214   8 o    1.866 --   216 h    0.841   215 h    0.825
   215   1 h    0.881 --   214 o    0.825
   216   1 h    0.895 --   214 o    0.841
   217   8 o    1.849 --   218 h    0.889   219 h    0.828
   218   1 h    0.905 --   217 o    0.889
   219   1 h    0.885 --   217 o    0.828
   220   8 o    1.863 --   221 h    0.870   222 h    0.807
   221   1 h    0.898 --   220 o    0.870
   222   1 h    0.881 --   220 o    0.807
   223   8 o    1.875 --   224 h    0.840   225 h    0.823
   224   1 h    0.890 --   223 o    0.840
   225   1 h    0.885 --   223 o    0.823
   226   8 o    1.882 --   228 h    0.823   227 h    0.822
   227   1 h    0.872 --   226 o    0.822
   228   1 h    0.881 --   226 o    0.823
   229   8 o    1.831 --   231 h    0.859   230 h    0.834
   230   1 h    0.887 --   229 o    0.834
   231   1 h    0.899 --   229 o    0.859
   232   8 o    1.847 --   234 h    0.914   233 h    0.815
   233   1 h    0.879 --   232 o    0.815
   234   1 h    0.919 --   232 o    0.914
   235   8 o    1.848 --   236 h    0.844   237 h    0.795
   236   1 h    0.892 --   235 o    0.844
   237   1 h    0.872 --   235 o    0.795
   238   8 o    1.841 --   239 h    0.840   240 h    0.810
   239   1 h    0.896 --   238 o    0.840
   240   1 h    0.875 --   238 o    0.810
   241   8 o    1.825 --   242 h    0.850   243 h    0.827
   242   1 h    0.897 --   241 o    0.850
   243   1 h    0.893 --   241 o    0.827
   244   8 o    1.840 --   246 h    0.882   245 h    0.813
   245   1 h    0.879 --   244 o    0.813
   246   1 h    0.910 --   244 o    0.882
   247   8 o    1.879 --   248 h    0.836   249 h    0.825
   248   1 h    0.891 --   247 o    0.836
   249   1 h    0.883 --   247 o    0.825
   250   8 o    1.850 --   251 h    0.828   252 h    0.822
   251   1 h    0.877 --   250 o    0.828
   252   1 h    0.890 --   250 o    0.822
   253   8 o    1.847 --   254 h    0.909   255 h    0.799
   254   1 h    0.918 --   253 o    0.909
   255   1 h    0.878 --   253 o    0.799
   256   8 o    1.890 --   258 h    0.835   257 h    0.803
   257   1 h    0.885 --   256 o    0.803
   258   1 h    0.889 --   256 o    0.835
   259   8 o    1.845 --   261 h    0.834   260 h    0.829
   260   1 h    0.896 --   259 o    0.829
   261   1 h    0.888 --   259 o    0.834
   262   8 o    1.863 --   264 h    0.912   263 h    0.801
   263   1 h    0.877 --   262 o    0.801
   264   1 h    0.916 --   262 o    0.912
   265   8 o    1.821 --   266 h    0.828   267 h    0.813
   266   1 h    0.893 --   265 o    0.828
   267   1 h    0.886 --   265 o    0.813
   268   8 o    1.823 --   269 h    0.844   270 h    0.821
   269   1 h    0.893 --   268 o    0.844
   270   1 h    0.884 --   268 o    0.821
   271   8 o    1.858 --   272 h    0.863   273 h    0.819
   272   1 h    0.902 --   271 o    0.863
   273   1 h    0.883 --   271 o    0.819
   274   8 o    1.814 --   276 h    0.803   275 h    0.800
   275   1 h    0.884 --   274 o    0.800
   276   1 h    0.886 --   274 o    0.803
   277   8 o    1.853 --   278 h    0.860   279 h    0.830
   278   1 h    0.895 --   277 o    0.860
   279   1 h    0.887 --   277 o    0.830
   280   8 o    1.859 --   281 h    0.881   282 h    0.825
   281   1 h    0.902 --   280 o    0.881
   282   1 h    0.888 --   280 o    0.825
   283   8 o    1.860 --   285 h    0.872   284 h    0.816
   284   1 h    0.886 --   283 o    0.816
   285   1 h    0.904 --   283 o    0.872
   286   8 o    1.842 --   288 h    0.911   287 h    0.736
   287   1 h    0.868 --   286 o    0.736   175 o    0.126
   288   1 h    0.918 --   286 o    0.911
   289   8 o    1.844 --   291 h    0.818   290 h    0.816
   290   1 h    0.894 --   289 o    0.816
   291   1 h    0.881 --   289 o    0.818
   292   8 o    1.845 --   294 h    0.913   293 h    0.840
   293   1 h    0.881 --   292 o    0.840
   294   1 h    0.917 --   292 o    0.913
   295   8 o    1.838 --   297 h    0.861   296 h    0.815
   296   1 h    0.885 --   295 o    0.815
   297   1 h    0.898 --   295 o    0.861
   298   8 o    1.839 --   299 h    0.877   300 h    0.834
   299   1 h    0.904 --   298 o    0.877
   300   1 h    0.890 --   298 o    0.834
   301   8 o    1.856 --   302 h    0.860   303 h    0.797
   302   1 h    0.901 --   301 o    0.860
   303   1 h    0.880 --   301 o    0.797
   304   8 o    1.884 --   305 h    0.872   306 h    0.781
   305   1 h    0.894 --   304 o    0.872
   306   1 h    0.871 --   304 o    0.781
   307   8 o    1.845 --   308 h    0.873   309 h    0.855
   308   1 h    0.904 --   307 o    0.873
   309   1 h    0.893 --   307 o    0.855
   310   8 o    1.839 --   312 h    0.853   311 h    0.807
   311   1 h    0.881 --   310 o    0.807
   312   1 h    0.891 --   310 o    0.853
   313   8 o    1.860 --   314 h    0.869   315 h    0.782
   314   1 h    0.901 --   313 o    0.869
   315   1 h    0.877 --   313 o    0.782
   316   8 o    1.874 --   317 h    0.834   318 h    0.808
   317   1 h    0.889 --   316 o    0.834
   318   1 h    0.882 --   316 o    0.808
   319   8 o    1.843 --   320 h    0.850   321 h    0.842
   320   1 h    0.896 --   319 o    0.850
   321   1 h    0.889 --   319 o    0.842
   322   8 o    1.838 --   323 h    0.913   324 h    0.785
   323   1 h    0.920 --   322 o    0.913
   324   1 h    0.878 --   322 o    0.785
   325   8 o    1.863 --   327 h    0.841   326 h    0.829
   326   1 h    0.892 --   325 o    0.829
   327   1 h    0.889 --   325 o    0.841
   328   8 o    1.852 --   330 h    0.869   329 h    0.821
   329   1 h    0.890 --   328 o    0.821
   330   1 h    0.902 --   328 o    0.869
   331   8 o    1.851 --   332 h    0.870   333 h    0.827
   332   1 h    0.900 --   331 o    0.870
   333   1 h    0.879 --   331 o    0.827
   334   8 o    1.856 --   335 h    0.863   336 h    0.806
   335   1 h    0.899 --   334 o    0.863
   336   1 h    0.877 --   334 o    0.806
   337   8 o    1.840 --   338 h    0.839   339 h    0.835
   338   1 h    0.888 --   337 o    0.839
   339   1 h    0.888 --   337 o    0.835
   340   8 o    1.856 --   341 h    0.853   342 h    0.826
   341   1 h    0.893 --   340 o    0.853
   342   1 h    0.889 --   340 o    0.826
   343   8 o    1.848 --   344 h    0.865   345 h    0.833
   344   1 h    0.896 --   343 o    0.865
   345   1 h    0.883 --   343 o    0.833
   346   8 o    1.852 --   347 h    0.838   348 h    0.826
   347   1 h    0.889 --   346 o    0.838
   348   1 h    0.882 --   346 o    0.826
   349   8 o    1.842 --   350 h    0.826   351 h    0.814
   350   1 h    0.880 --   349 o    0.826
   351   1 h    0.888 --   349 o    0.814
   352   8 o    1.863 --   353 h    0.865   354 h    0.827
   353   1 h    0.896 --   352 o    0.865
   354   1 h    0.874 --   352 o    0.827
   355   8 o    1.865 --   356 h    0.828   357 h    0.822
   356   1 h    0.890 --   355 o    0.828
   357   1 h    0.889 --   355 o    0.822
   358   8 o    1.843 --   359 h    0.908   360 h    0.749
   359   1 h    0.916 --   358 o    0.908
   360   1 h    0.864 --   358 o    0.749   460 o    0.109
   361   8 o    1.867 --   363 h    0.831   362 h    0.800
   362   1 h    0.881 --   361 o    0.800
   363   1 h    0.891 --   361 o    0.831
   364   8 o    1.830 --   365 h    0.843   366 h    0.842
   365   1 h    0.882 --   364 o    0.843
   366   1 h    0.888 --   364 o    0.842
   367   8 o    1.883 --   368 h    0.885   369 h    0.849
   368   1 h    0.898 --   367 o    0.885
   369   1 h    0.889 --   367 o    0.849
   370   8 o    1.862 --   371 h    0.836   372 h    0.829
   371   1 h    0.892 --   370 o    0.836
   372   1 h    0.890 --   370 o    0.829
   373   8 o    1.840 --   374 h    0.841   375 h    0.832
   374   1 h    0.892 --   373 o    0.841
   375   1 h    0.889 --   373 o    0.832
   376   8 o    1.844 --   378 h    0.910   377 h    0.811
   377   1 h    0.883 --   376 o    0.811
   378   1 h    0.917 --   376 o    0.910
   379   8 o    1.797 --   380 h    0.849   381 h    0.842
   380   1 h    0.898 --   379 o    0.849
   381   1 h    0.892 --   379 o    0.842
   382   8 o    1.810 --   384 h    0.860   383 h    0.849
   383   1 h    0.895 --   382 o    0.849
   384   1 h    0.894 --   382 o    0.860
   385   8 o    1.850 --   387 h    0.851   386 h    0.803
   386   1 h    0.871 --   385 o    0.803
   387   1 h    0.891 --   385 o    0.851
   388   8 o    1.857 --   390 h    0.863   389 h    0.828
   389   1 h    0.884 --   388 o    0.828
   390   1 h    0.900 --   388 o    0.863
   391   8 o    1.854 --   393 h    0.918   392 h    0.841
   392   1 h    0.889 --   391 o    0.841
   393   1 h    0.921 --   391 o    0.918
   394   8 o    1.876 --   396 h    0.827   395 h    0.824
   395   1 h    0.876 --   394 o    0.824
   396   1 h    0.889 --   394 o    0.827
   397   8 o    1.840 --   399 h    0.853   398 h    0.852
   398   1 h    0.889 --   397 o    0.852
   399   1 h    0.894 --   397 o    0.853
   400   8 o    1.880 --   402 h    0.814   401 h    0.801
   401   1 h    0.874 --   400 o    0.801
   402   1 h    0.874 --   400 o    0.814
   403   8 o    1.872 --   405 h    0.869   404 h    0.862
   404   1 h    0.890 --   403 o    0.862
   405   1 h    0.895 --   403 o    0.869
   406   8 o    1.846 --   407 h    0.869   408 h    0.811
   407   1 h    0.898 --   406 o    0.869
   408   1 h    0.888 --   406 o    0.811
   409   8 o    1.850 --   411 h    0.911   410 h    0.842
   410   1 h    0.884 --   409 o    0.842
   411   1 h    0.918 --   409 o    0.911
   412   8 o    1.826 --   413 h    0.868   414 h    0.837
   413   1 h    0.906 --   412 o    0.868
   414   1 h    0.893 --   412 o    0.837
   415   8 o    1.851 --   417 h    0.845   416 h    0.811
   416   1 h    0.879 --   415 o    0.811
   417   1 h    0.896 --   415 o    0.845
   418   8 o    1.811 --   420 h    0.872   419 h    0.846
   419   1 h    0.892 --   418 o    0.846
   420   1 h    0.896 --   418 o    0.872
   421   8 o    1.862 --   423 h    0.867   422 h    0.842
   422   1 h    0.885 --   421 o    0.842
   423   1 h    0.900 --   421 o    0.867
   424   8 o    1.863 --   425 h    0.827   426 h    0.825
   425   1 h    0.894 --   424 o    0.827
   426   1 h    0.889 --   424 o    0.825
   427   8 o    1.821 --   428 h    0.851   429 h    0.823
   428   1 h    0.897 --   427 o    0.851
   429   1 h    0.894 --   427 o    0.823
   430   8 o    1.848 --   431 h    0.875   432 h    0.799
   431   1 h    0.900 --   430 o    0.875
   432   1 h    0.876 --   430 o    0.799
   433   8 o    1.865 --   434 h    0.868   435 h    0.804
   434   1 h    0.896 --   433 o    0.868
   435   1 h    0.883 --   433 o    0.804
   436   8 o    1.867 --   437 h    0.869   438 h    0.866
   437   1 h    0.892 --   436 o    0.869
   438   1 h    0.892 --   436 o    0.866
   439   8 o    1.870 --   440 h    0.887   441 h    0.867
   440   1 h    0.899 --   439 o    0.887
   441   1 h    0.893 --   439 o    0.867
   442   8 o    1.862 --   443 h    0.887   444 h    0.772
   443   1 h    0.904 --   442 o    0.887
   444   1 h    0.866 --   442 o    0.772
   445   8 o    1.880 --   447 h    0.835   446 h    0.817
   446   1 h    0.890 --   445 o    0.817
   447   1 h    0.890 --   445 o    0.835
   448   8 o    1.882 --   450 h    0.825   449 h    0.805
   449   1 h    0.878 --   448 o    0.805
   450   1 h    0.877 --   448 o    0.825
   451   8 o    1.862 --   452 h    0.833   453 h    0.806
   452   1 h    0.895 --   451 o    0.833
   453   1 h    0.879 --   451 o    0.806
   454   8 o    1.865 --   456 h    0.887   455 h    0.797
   455   1 h    0.879 --   454 o    0.797
   456   1 h    0.904 --   454 o    0.887
   457   8 o    1.888 --   458 h    0.866   459 h    0.824
   458   1 h    0.894 --   457 o    0.866
   459   1 h    0.871 --   457 o    0.824
   460   8 o    1.876 --   462 h    0.846   461 h    0.821   360 h    0.109
   461   1 h    0.875 --   460 o    0.821
   462   1 h    0.881 --   460 o    0.846
   463   8 o    1.848 --   465 h    0.848   464 h    0.827
   464   1 h    0.881 --   463 o    0.827
   465   1 h    0.893 --   463 o    0.848
   466   8 o    1.859 --   467 h    0.881   468 h    0.793
   467   1 h    0.907 --   466 o    0.881
   468   1 h    0.879 --   466 o    0.793
   469   8 o    1.853 --   470 h    0.843   471 h    0.821
   470   1 h    0.894 --   469 o    0.843
   471   1 h    0.881 --   469 o    0.821
   472   8 o    1.863 --   473 h    0.831   474 h    0.804
   473   1 h    0.893 --   472 o    0.831
   474   1 h    0.877 --   472 o    0.804
   475   8 o    1.867 --   477 h    0.844   476 h    0.807
   476   1 h    0.887 --   475 o    0.807
   477   1 h    0.897 --   475 o    0.844
   478   8 o    1.836 --   479 h    0.908   480 h    0.800
   479   1 h    0.916 --   478 o    0.908
   480   1 h    0.874 --   478 o    0.800
   481   8 o    1.879 --   483 h    0.802   482 h    0.789
   482   1 h    0.883 --   481 o    0.789
   483   1 h    0.869 --   481 o    0.802
   484   8 o    1.834 --   486 h    0.831   485 h    0.828
   485   1 h    0.881 --   484 o    0.828
   486   1 h    0.881 --   484 o    0.831
   487   8 o    1.859 --   488 h    0.883   489 h    0.817
   488   1 h    0.906 --   487 o    0.883
   489   1 h    0.888 --   487 o    0.817
   490   8 o    1.852 --   492 h    0.843   491 h    0.818
   491   1 h    0.877 --   490 o    0.818
   492   1 h    0.897 --   490 o    0.843
   493   8 o    1.864 --   494 h    0.847   495 h    0.797
   494   1 h    0.898 --   493 o    0.847
   495   1 h    0.874 --   493 o    0.797
   496   8 o    1.845 --   497 h    0.878   498 h    0.846
   497   1 h    0.898 --   496 o    0.878
   498   1 h    0.888 --   496 o    0.846
   499   8 o    1.853 --   500 h    0.890   501 h    0.856
   500   1 h    0.903 --   499 o    0.890
   501   1 h    0.894 --   499 o    0.856
   502   8 o    1.843 --   504 h    0.887   503 h    0.862
   503   1 h    0.891 --   502 o    0.862
   504   1 h    0.904 --   502 o    0.887
   505   8 o    1.850 --   506 h    0.849   507 h    0.782
   506   1 h    0.886 --   505 o    0.849
   507   1 h    0.883 --   505 o    0.782
   508   8 o    1.869 --   509 h    0.826   510 h    0.795
   509   1 h    0.887 --   508 o    0.826
   510   1 h    0.882 --   508 o    0.795
   511   8 o    1.868 --   512 h    0.862   513 h    0.842
   512   1 h    0.895 --   511 o    0.862
   513   1 h    0.890 --   511 o    0.842
   514   8 o    1.883 --   516 h    0.913   515 h    0.801
   515   1 h    0.866 --   514 o    0.801
   516   1 h    0.916 --   514 o    0.913
   517   8 o    1.816 --   518 h    0.879   519 h    0.803
   518   1 h    0.904 --   517 o    0.879
   519   1 h    0.879 --   517 o    0.803
   520   8 o    1.838 --   522 h    0.860   521 h    0.848
   521   1 h    0.891 --   520 o    0.848
   522   1 h    0.897 --   520 o    0.860
   523   8 o    1.871 --   525 h    0.839   524 h    0.809
   524   1 h    0.889 --   523 o    0.809
   525   1 h    0.888 --   523 o    0.839
   526   8 o    1.867 --   528 h    0.880   527 h    0.819
   527   1 h    0.875 --   526 o    0.819
   528   1 h    0.892 --   526 o    0.880
   529   8 o    1.847 --   530 h    0.880   531 h    0.872
   530   1 h    0.892 --   529 o    0.880
   531   1 h    0.892 --   529 o    0.872
 ---------------------------------------------------------------------------

Topologies differ in total number of bonds
Writing topology from bond orders to xtbtopo.mol

molecular dipole:
                 x           y           z       tot (Debye)
 q only:       -0.207       0.376      -0.253
   full:       -0.131       1.109       0.183       2.876
molecular quadrupole (traceless):
                xx          xy          yy          xz          yz          zz
 q only:      166.882     -10.823    -109.278       6.440      49.789     -57.605
  q+dip:      226.454     -12.421    -137.502      -6.516      67.545     -88.952
   full:      228.564     -11.928    -139.086      -7.429      68.389     -89.478


           -------------------------------------------------
          | TOTAL ENERGY             -901.188225177145 Eh   |
          | GRADIENT NORM               0.095384907976 Eh/α |
          | HOMO-LUMO GAP               6.864828072775 eV   |
           -------------------------------------------------

------------------------------------------------------------------------
 * finished run on 2022/11/17 at 06:55:19.874     
------------------------------------------------------------------------
 total:
 * wall-time:     0 d,  0 h,  0 min, 20.136 sec
 *  cpu-time:     0 d,  0 h,  0 min, 26.101 sec
 * ratio c/w:     1.296 speedup
 SCF:
 * wall-time:     0 d,  0 h,  0 min, 19.550 sec
 *  cpu-time:     0 d,  0 h,  0 min, 25.086 sec
 * ratio c/w:     1.283 speedup

