      -----------------------------------------------------------      
     |                   =====================                   |     
     |                           x T B                           |     
     |                   =====================                   |     
     |                         S. Grimme                         |     
     |          Mulliken Center for Theoretical Chemistry        |     
     |                    University of Bonn                     |     
      -----------------------------------------------------------      

   * xtb version 6.5.1 (579679a) compiled by 'ehlert@majestix' on 2022-07-11

   xtb is free software: you can redistribute it and/or modify it under
   the terms of the GNU Lesser General Public License as published by
   the Free Software Foundation, either version 3 of the License, or
   (at your option) any later version.
   
   xtb is distributed in the hope that it will be useful,
   but WITHOUT ANY WARRANTY; without even the implied warranty of
   MERCHANTABILITY or FITNESS FOR A PARTICULAR PURPOSE.  See the
   GNU Lesser General Public License for more details.
   
   Cite this work as:
   * C. Bannwarth, E. Caldeweyher, S. Ehlert, A. Hansen, P. Pracht,
     J. Seibert, S. Spicher, S. Grimme, WIREs Comput. Mol. Sci., 2020, 11,
     e01493. DOI: 10.1002/wcms.1493
   
   for GFN2-xTB:
   * C. Bannwarth, S. Ehlert and S. Grimme., J. Chem. Theory Comput., 2019,
     15, 1652-1671. DOI: 10.1021/acs.jctc.8b01176
   for GFN1-xTB:
   * S. Grimme, C. Bannwarth, P. Shushkov, J. Chem. Theory Comput., 2017,
     13, 1989-2009. DOI: 10.1021/acs.jctc.7b00118
   for GFN0-xTB:
   * P. Pracht, E. Caldeweyher, S. Ehlert, S. Grimme, ChemRxiv, 2019, preprint.
     DOI: 10.26434/chemrxiv.8326202.v1
   for GFN-FF:
   * S. Spicher and S. Grimme, Angew. Chem. Int. Ed., 2020, 59, 15665-15673.
     DOI: 10.1002/anie.202004239
   
   for ALPB and GBSA implicit solvation:
   * S. Ehlert, M. Stahn, S. Spicher, S. Grimme, J. Chem. Theory Comput.,
     2021, 17, 4250-4261. DOI: 10.1021/acs.jctc.1c00471
   
   for DFT-D4:
   * E. Caldeweyher, C. Bannwarth and S. Grimme, J. Chem. Phys., 2017,
     147, 034112. DOI: 10.1063/1.4993215
   * E. Caldeweyher, S. Ehlert, A. Hansen, H. Neugebauer, S. Spicher,
     C. Bannwarth and S. Grimme, J. Chem. Phys., 2019, 150, 154122.
     DOI: 10.1063/1.5090222
   * E. Caldeweyher, J.-M. Mewes, S. Ehlert and S. Grimme, Phys. Chem. Chem. Phys.
     2020, 22, 8499-8512. DOI: 10.1039/D0CP00502A
   
   for sTDA-xTB:
   * S. Grimme and C. Bannwarth, J. Chem. Phys., 2016, 145, 054103.
     DOI: 10.1063/1.4959605
   
   in the mass-spec context:
   * V. Asgeirsson, C. Bauer and S. Grimme, Chem. Sci., 2017, 8, 4879.
     DOI: 10.1039/c7sc00601b
   * J. Koopman and S. Grimme, ACS Omega 2019, 4, 12, 15120-15133.
     DOI: 10.1021/acsomega.9b02011
   
   for metadynamics refer to:
   * S. Grimme, J. Chem. Theory Comput., 2019, 155, 2847-2862
     DOI: 10.1021/acs.jctc.9b00143
   
   for SPH calculations refer to:
   * S. Spicher and S. Grimme, J. Chem. Theory Comput., 2021, 17, 1701-1714
     DOI: 10.1021/acs.jctc.0c01306
   
   with help from (in alphabetical order)
   P. Atkinson, C. Bannwarth, F. Bohle, G. Brandenburg, E. Caldeweyher
   M. Checinski, S. Dohm, S. Ehlert, S. Ehrlich, I. Gerasimov, C. Hölzer
   A. Katbashev, J. Koopman, C. Lavigne, S. Lehtola, F. März, M. Müller,
   F. Musil, H. Neugebauer, J. Pisarek, C. Plett, P. Pracht, F. Pultar,
   J. Seibert, P. Shushkov, S. Spicher, M. Stahn, M. Steiner, T. Strunk,
   J. Stückrath, T. Rose, and J. Unsleber
   
 * started run on 2022/11/17 at 06:54:49.176     

           -------------------------------------------------
          |                Calculation Setup                |
           -------------------------------------------------

          program call               : xtb xtbopt.coord --gfn2 --sp --gbsa water
          hostname                   : cn0363
          coordinate file            : xtbopt.coord
          omp threads                :                     2

   ID    Z sym.   atoms
    1    8 o      1, 4, 7, 10, 13, 16, 19, 22, 25, 28, 31, 34, 37, 40, 43,
                  46, 49, 52, 55, 58, 61, 64, 67, 70, 73, 76, 79, 82, 85, 88,
                  91, 94, 97, 100, 103, 106, 109, 112, 115, 118, 121, 124,
                  127, 130, 133, 136, 139, 142, 145, 148, 151, 154, 157, 160,
                  163, 166, 169, 172, 175, 178, 181, 184, 187, 190, 193, 196,
                  199, 202, 205, 208, 211, 214, 217, 220, 223, 226, 229, 232,
                  235, 238, 241, 244, 247, 250, 253, 256, 259, 262, 265, 268,
                  271, 274, 277, 280, 283, 286, 289, 292, 295, 298, 301, 304,
                  307, 310, 313, 316, 319, 322, 325, 328, 331, 334, 337, 340,
                  343, 346, 349, 352, 355, 358, 361, 364, 367, 370, 373, 376,
                  379, 382, 385, 388, 391, 394, 397, 400, 403, 406, 409, 412,
                  415, 418, 421, 424, 427, 430, 433, 436, 439, 442, 445, 448,
                  451, 454, 457, 460, 463, 466, 469, 472, 475, 478, 481, 484,
                  487, 490, 493, 496, 499, 502, 505, 508, 511, 514, 517, 520,
                  523, 526, 529
    2    1 h      2, 3, 5, 6, 8, 9, 11, 12, 14, 15, 17, 18, 20, 21, 23, 24,
                  26, 27, 29, 30, 32, 33, 35, 36, 38, 39, 41, 42, 44, 45, 47,
                  48, 50, 51, 53, 54, 56, 57, 59, 60, 62, 63, 65, 66, 68, 69,
                  71, 72, 74, 75, 77, 78, 80, 81, 83, 84, 86, 87, 89, 90, 92,
                  93, 95, 96, 98, 99, 101, 102, 104, 105, 107, 108, 110, 111,
                  113, 114, 116, 117, 119, 120, 122, 123, 125, 126, 128, 129,
                  131, 132, 134, 135, 137, 138, 140, 141, 143, 144, 146, 147,
                  149, 150, 152, 153, 155, 156, 158, 159, 161, 162, 164, 165,
                  167, 168, 170, 171, 173, 174, 176, 177, 179, 180, 182, 183,
                  185, 186, 188, 189, 191, 192, 194, 195, 197, 198, 200, 201,
                  203, 204, 206, 207, 209, 210, 212, 213, 215, 216, 218, 219,
                  221, 222, 224, 225, 227, 228, 230, 231, 233, 234, 236, 237,
                  239, 240, 242, 243, 245, 246, 248, 249, 251, 252, 254, 255,
                  257, 258, 260, 261, 263, 264, 266, 267, 269, 270, 272, 273,
                  275, 276, 278, 279, 281, 282, 284, 285, 287, 288, 290, 291,
                  293, 294, 296, 297, 299, 300, 302, 303, 305, 306, 308, 309,
                  311, 312, 314, 315, 317, 318, 320, 321, 323, 324, 326, 327,
                  329, 330, 332, 333, 335, 336, 338, 339, 341, 342, 344, 345,
                  347, 348, 350, 351, 353, 354, 356, 357, 359, 360, 362, 363,
                  365, 366, 368, 369, 371, 372, 374, 375, 377, 378, 380, 381,
                  383, 384, 386, 387, 389, 390, 392, 393, 395, 396, 398, 399,
                  401, 402, 404, 405, 407, 408, 410, 411, 413, 414, 416, 417,
                  419, 420, 422, 423, 425, 426, 428, 429, 431, 432, 434, 435,
                  437, 438, 440, 441, 443, 444, 446, 447, 449, 450, 452, 453,
                  455, 456, 458, 459, 461, 462, 464, 465, 467, 468, 470, 471,
                  473, 474, 476, 477, 479, 480, 482, 483, 485, 486, 488, 489,
                  491, 492, 494, 495, 497, 498, 500, 501, 503, 504, 506, 507,
                  509, 510, 512, 513, 515, 516, 518, 519, 521, 522, 524, 525,
                  527, 528, 530, 531

molecular fragmentation (1/2 indicates fragments):
111222222222222222222222222222222222222222222222222222222222222222222222
222222222222222222222222222222222222222222222222222222222222222222222222
222222222222222222222222222222222222222222222222222222222222222222222222
222222222222222222222222222222222222222222222222222222222222222222222222
222222222222222222222222222222222222222222222222222222222222222222222222
222222222222222222222222222222222222222222222222222222222222222222222222
222222222222222222222222222222222222222222222222222222222222222222222222
222222222222222222222222222
# atoms in fragment 1/2:     3   528
 fragment masses (1/2) :       18.02     3170.69
CMA distance (Bohr)    :   5.023
constraining FC (au)   :  0.0500

           -------------------------------------------------
          |                 G F N 2 - x T B                 |
           -------------------------------------------------

        Reference                      10.1021/acs.jctc.8b01176
      * Hamiltonian:
        H0-scaling (s, p, d)           1.850000    2.230000    2.230000
        zeta-weighting                 0.500000
      * Dispersion:
        s8                             2.700000
        a1                             0.520000
        a2                             5.000000
        s9                             5.000000
      * Repulsion:
        kExp                           1.500000    1.000000
        rExp                           1.000000
      * Coulomb:
        alpha                          2.000000
        third order                    shell-resolved
        anisotropic                    true
        a3                             3.000000
        a5                             4.000000
        cn-shift                       1.200000
        cn-exp                         4.000000
        max-rad                        5.000000

      * Solvation model:               GBSA
        Solvent                        water
        Parameter file                 internal GFN2-xTB/GBSA
        Dielectric constant                8.0200E+01
        Reference state                gsolv [1 M gas/solution]
        Free energy shift                  1.8574E-03 Eh       1.1656E+00 kcal/mol
        Temperature                        2.9815E+02 K
        Density                            1.0000E+00 kg/L
        Solvent mass                       1.8000E+01 g/mol
        Interaction kernel             Still
        Born radius scaling (c1)           1.5524E+00
        Born radii integrator          GBOBC
        Born offset                        2.4628E-02 a0       4.6540E-02 AA
        H-bond correction              true
        Ion screening                  false
        Surface tension                    1.0000E-05 Eh       1.5569E+01 dyn/cm
        Grid points                               230 per atom

          ...................................................
          :                      SETUP                      :
          :.................................................:
          :  # basis functions                1062          :
          :  # atomic orbitals                1062          :
          :  # shells                          708          :
          :  # electrons                      1416          :
          :  max. iterations                   250          :
          :  Hamiltonian                  GFN2-xTB          :
          :  restarted?                      false          :
          :  GBSA solvation                   true          :
          :  PC potential                    false          :
          :  electronic temp.          300.0000000     K    :
          :  accuracy                    1.0000000          :
          :  -> integral cutoff          0.2500000E+02      :
          :  -> integral neglect         0.1000000E-07      :
          :  -> SCF convergence          0.1000000E-05 Eh   :
          :  -> wf. convergence          0.1000000E-03 e    :
          :  Broyden damping             0.4000000          :
          ...................................................

 iter      E             dE          RMSdq      gap      omega  full diag
   1   -906.7697883 -0.906770E+03  0.408E+00    8.65       0.0  T
   2   -906.8325929 -0.628047E-01  0.242E+00    8.22       1.0  T
   3   -906.8583200 -0.257270E-01  0.230E-01    7.36       1.0  T
   4   -906.8623338 -0.401384E-02  0.502E-02    7.61       1.0  T
   5   -906.8624759 -0.142088E-03  0.315E-02    7.56       1.0  T
   6   -906.8625095 -0.336350E-04  0.351E-03    7.57       1.2  T
   7   -906.8625105 -0.100069E-05  0.858E-04    7.57       5.1  T
   8   -906.8625106 -0.375014E-07  0.466E-04    7.57       9.3  T
   9   -906.8625106 -0.197749E-07  0.110E-04    7.57      39.4  T

   *** convergence criteria satisfied after 9 iterations ***

         #    Occupation            Energy/Eh            Energy/eV
      -------------------------------------------------------------
         1        2.0000           -0.6642420             -18.0749
       ...           ...                  ...                  ...
       702        2.0000           -0.3462096              -9.4208
       703        2.0000           -0.3451425              -9.3918
       704        2.0000           -0.3429964              -9.3334
       705        2.0000           -0.3395243              -9.2389
       706        2.0000           -0.3306245              -8.9968
       707        2.0000           -0.3293656              -8.9625
       708        2.0000           -0.3288900              -8.9496 (HOMO)
       709                         -0.0508783              -1.3845 (LUMO)
       710                         -0.0434974              -1.1836
       711                         -0.0295613              -0.8044
       712                         -0.0252204              -0.6863
       713                         -0.0199330              -0.5424
       ...                                ...                  ...
      1062                          0.4972239              13.5302
      -------------------------------------------------------------
                  HL-Gap            0.2780117 Eh            7.5651 eV
             Fermi-level           -0.1898841 Eh           -5.1670 eV

 SCC (total)                   0 d,  0 h,  0 min,  8.678 sec
 SCC setup                      ...        0 min,  0.109 sec (  1.259%)
 Dispersion                     ...        0 min,  0.072 sec (  0.824%)
 classical contributions        ...        0 min,  0.016 sec (  0.180%)
 integral evaluation            ...        0 min,  0.604 sec (  6.958%)
 iterations                     ...        0 min,  3.087 sec ( 35.568%)
 molecular gradient             ...        0 min,  4.764 sec ( 54.898%)
 printout                       ...        0 min,  0.027 sec (  0.312%)

         :::::::::::::::::::::::::::::::::::::::::::::::::::::
         ::                     SUMMARY                     ::
         :::::::::::::::::::::::::::::::::::::::::::::::::::::
         :: total energy            -901.394328429186 Eh    ::
         :: total w/o Gsasa/hb      -901.204756262366 Eh    ::
         :: gradient norm              0.104827736473 Eh/a0 ::
         :: HOMO-LUMO gap              7.565083368039 eV    ::
         ::.................................................::
         :: SCC energy              -906.862510589489 Eh    ::
         :: -> isotropic ES            5.257661400371 Eh    ::
         :: -> anisotropic ES         -1.121686560998 Eh    ::
         :: -> anisotropic XC         -0.086692648756 Eh    ::
         :: -> dispersion             -0.532714034678 Eh    ::
         :: -> Gsolv                  -0.218467142568 Eh    ::
         ::    -> Gelec               -0.028894975749 Eh    ::
         ::    -> Gsasa                0.003715646094 Eh    ::
         ::    -> Ghb                 -0.195145256040 Eh    ::
         ::    -> Gshift               0.001857443127 Eh    ::
         :: repulsion energy           5.373181305836 Eh    ::
         :: add. restraining           0.000000000000 Eh    ::
         :: total charge               0.000000000000 e     ::
         :::::::::::::::::::::::::::::::::::::::::::::::::::::

           -------------------------------------------------
          |                Property Printout                |
           -------------------------------------------------

    * Orbital Energies and Occupations

         #    Occupation            Energy/Eh            Energy/eV
      -------------------------------------------------------------
         1        2.0000           -0.6642420             -18.0749
       ...           ...                  ...                  ...
       696        2.0000           -0.3578225              -9.7368
       697        2.0000           -0.3567055              -9.7064
       698        2.0000           -0.3556377              -9.6774
       699        2.0000           -0.3535650              -9.6210
       700        2.0000           -0.3528816              -9.6024
       701        2.0000           -0.3508294              -9.5466
       702        2.0000           -0.3462096              -9.4208
       703        2.0000           -0.3451425              -9.3918
       704        2.0000           -0.3429964              -9.3334
       705        2.0000           -0.3395243              -9.2389
       706        2.0000           -0.3306245              -8.9968
       707        2.0000           -0.3293656              -8.9625
       708        2.0000           -0.3288900              -8.9496 (HOMO)
       709                         -0.0508783              -1.3845 (LUMO)
       710                         -0.0434974              -1.1836
       711                         -0.0295613              -0.8044
       712                         -0.0252204              -0.6863
       713                         -0.0199330              -0.5424
       714                         -0.0151706              -0.4128
       715                         -0.0067351              -0.1833
       716                         -0.0019897              -0.0541
       717                          0.0012755               0.0347
       718                          0.0093973               0.2557
       719                          0.0113847               0.3098
       ...                                ...                  ...
      1062                          0.4972239              13.5302
      -------------------------------------------------------------
                  HL-Gap            0.2780117 Eh            7.5651 eV
             Fermi-level           -0.1898841 Eh           -5.1670 eV

     #   Z          covCN         q      C6AA      α(0)
     1   8 o        1.609    -0.684    27.290     7.051
     2   1 h        0.805     0.321     0.661     1.277
     3   1 h        0.804     0.322     0.657     1.274
     4   8 o        1.608    -0.661    26.703     6.974
     5   1 h        0.803     0.336     0.622     1.239
     6   1 h        0.805     0.341     0.608     1.225
     7   8 o        1.609    -0.670    26.927     7.003
     8   1 h        0.804     0.339     0.615     1.232
     9   1 h        0.805     0.346     0.598     1.215
    10   8 o        1.606    -0.677    27.110     7.027
    11   1 h        0.804     0.326     0.649     1.265
    12   1 h        0.802     0.339     0.615     1.232
    13   8 o        1.608    -0.652    26.460     6.942
    14   1 h        0.804     0.324     0.654     1.270
    15   1 h        0.804     0.342     0.606     1.223
    16   8 o        1.608    -0.678    27.134     7.030
    17   1 h        0.805     0.320     0.664     1.280
    18   1 h        0.803     0.362     0.561     1.176
    19   8 o        1.607    -0.688    27.401     7.065
    20   1 h        0.802     0.353     0.580     1.197
    21   1 h        0.803     0.342     0.607     1.224
    22   8 o        1.609    -0.673    26.998     7.013
    23   1 h        0.805     0.327     0.645     1.261
    24   1 h        0.804     0.338     0.617     1.234
    25   8 o        1.609    -0.677    27.109     7.027
    26   1 h        0.805     0.334     0.626     1.243
    27   1 h        0.804     0.354     0.580     1.196
    28   8 o        1.609    -0.667    26.858     6.995
    29   1 h        0.804     0.347     0.596     1.213
    30   1 h        0.805     0.320     0.664     1.280
    31   8 o        1.607    -0.695    27.572     7.087
    32   1 h        0.804     0.329     0.639     1.256
    33   1 h        0.803     0.343     0.606     1.222
    34   8 o        1.606    -0.674    27.037     7.018
    35   1 h        0.802     0.365     0.555     1.170
    36   1 h        0.806     0.309     0.694     1.308
    37   8 o        1.606    -0.681    27.202     7.039
    38   1 h        0.804     0.347     0.595     1.211
    39   1 h        0.803     0.348     0.594     1.210
    40   8 o        1.608    -0.680    27.179     7.036
    41   1 h        0.802     0.354     0.578     1.194
    42   1 h        0.805     0.346     0.597     1.214
    43   8 o        1.609    -0.653    26.499     6.948
    44   1 h        0.804     0.338     0.617     1.233
    45   1 h        0.805     0.324     0.653     1.270
    46   8 o        1.608    -0.674    27.018     7.015
    47   1 h        0.805     0.326     0.649     1.265
    48   1 h        0.803     0.341     0.609     1.226
    49   8 o        1.607    -0.678    27.140     7.031
    50   1 h        0.803     0.352     0.583     1.200
    51   1 h        0.804     0.330     0.637     1.254
    52   8 o        1.608    -0.683    27.261     7.047
    53   1 h        0.803     0.345     0.599     1.216
    54   1 h        0.804     0.350     0.587     1.204
    55   8 o        1.606    -0.689    27.426     7.068
    56   1 h        0.804     0.320     0.665     1.281
    57   1 h        0.803     0.351     0.587     1.203
    58   8 o        1.607    -0.696    27.616     7.092
    59   1 h        0.804     0.344     0.603     1.220
    60   1 h        0.803     0.351     0.585     1.202
    61   8 o        1.608    -0.665    26.809     6.988
    62   1 h        0.806     0.299     0.724     1.337
    63   1 h        0.803     0.354     0.580     1.196
    64   8 o        1.607    -0.681    27.224     7.042
    65   1 h        0.803     0.334     0.627     1.244
    66   1 h        0.804     0.359     0.567     1.183
    67   8 o        1.608    -0.682    27.240     7.044
    68   1 h        0.804     0.338     0.618     1.235
    69   1 h        0.803     0.343     0.605     1.222
    70   8 o        1.607    -0.672    26.977     7.010
    71   1 h        0.803     0.334     0.626     1.243
    72   1 h        0.804     0.331     0.636     1.253
    73   8 o        1.607    -0.678    27.127     7.029
    74   1 h        0.803     0.351     0.586     1.202
    75   1 h        0.805     0.341     0.609     1.226
    76   8 o        1.610    -0.680    27.172     7.035
    77   1 h        0.805     0.337     0.619     1.236
    78   1 h        0.804     0.345     0.601     1.218
    79   8 o        1.607    -0.684    27.299     7.052
    80   1 h        0.804     0.326     0.648     1.264
    81   1 h        0.803     0.350     0.588     1.204
    82   8 o        1.607    -0.681    27.224     7.042
    83   1 h        0.803     0.357     0.572     1.188
    84   1 h        0.803     0.324     0.652     1.269
    85   8 o        1.607    -0.700    27.701     7.103
    86   1 h        0.803     0.349     0.592     1.208
    87   1 h        0.804     0.326     0.649     1.266
    88   8 o        1.608    -0.649    26.397     6.934
    89   1 h        0.806     0.309     0.695     1.309
    90   1 h        0.803     0.350     0.587     1.204
    91   8 o        1.609    -0.689    27.407     7.066
    92   1 h        0.805     0.322     0.657     1.273
    93   1 h        0.803     0.348     0.594     1.210
    94   8 o        1.606    -0.664    26.775     6.984
    95   1 h        0.801     0.343     0.606     1.223
    96   1 h        0.805     0.319     0.667     1.282
    97   8 o        1.608    -0.690    27.439     7.070
    98   1 h        0.804     0.322     0.659     1.275
    99   1 h        0.804     0.323     0.657     1.273
   100   8 o        1.608    -0.666    26.824     6.990
   101   1 h        0.804     0.352     0.583     1.199
   102   1 h        0.804     0.336     0.622     1.239
   103   8 o        1.608    -0.679    27.154     7.033
   104   1 h        0.803     0.350     0.588     1.205
   105   1 h        0.805     0.315     0.678     1.294
   106   8 o        1.608    -0.666    26.828     6.991
   107   1 h        0.806     0.317     0.671     1.287
   108   1 h        0.802     0.353     0.581     1.197
   109   8 o        1.607    -0.685    27.322     7.055
   110   1 h        0.804     0.341     0.609     1.226
   111   1 h        0.803     0.341     0.611     1.228
   112   8 o        1.608    -0.691    27.482     7.075
   113   1 h        0.803     0.365     0.554     1.169
   114   1 h        0.803     0.350     0.589     1.206
   115   8 o        1.608    -0.672    26.988     7.011
   116   1 h        0.804     0.321     0.661     1.277
   117   1 h        0.804     0.341     0.609     1.226
   118   8 o        1.607    -0.686    27.334     7.056
   119   1 h        0.804     0.330     0.638     1.255
   120   1 h        0.803     0.348     0.593     1.210
   121   8 o        1.609    -0.663    26.738     6.979
   122   1 h        0.805     0.337     0.618     1.235
   123   1 h        0.804     0.319     0.667     1.283
   124   8 o        1.606    -0.655    26.547     6.954
   125   1 h        0.802     0.345     0.600     1.217
   126   1 h        0.806     0.312     0.685     1.300
   127   8 o        1.609    -0.677    27.117     7.028
   128   1 h        0.804     0.333     0.629     1.246
   129   1 h        0.805     0.329     0.639     1.256
   130   8 o        1.606    -0.692    27.489     7.076
   131   1 h        0.802     0.360     0.565     1.181
   132   1 h        0.803     0.317     0.672     1.288
   133   8 o        1.607    -0.680    27.174     7.036
   134   1 h        0.804     0.326     0.648     1.264
   135   1 h        0.803     0.355     0.577     1.193
   136   8 o        1.607    -0.658    26.620     6.963
   137   1 h        0.802     0.348     0.593     1.210
   138   1 h        0.805     0.321     0.660     1.277
   139   8 o        1.605    -0.687    27.366     7.060
   140   1 h        0.803     0.341     0.610     1.227
   141   1 h        0.803     0.344     0.604     1.221
   142   8 o        1.610    -0.695    27.586     7.089
   143   1 h        0.803     0.349     0.591     1.208
   144   1 h        0.804     0.334     0.626     1.243
   145   8 o        1.609    -0.672    26.980     7.010
   146   1 h        0.805     0.309     0.695     1.310
   147   1 h        0.804     0.350     0.589     1.206
   148   8 o        1.609    -0.674    27.025     7.016
   149   1 h        0.805     0.329     0.640     1.256
   150   1 h        0.804     0.344     0.602     1.219
   151   8 o        1.608    -0.662    26.718     6.976
   152   1 h        0.806     0.312     0.687     1.302
   153   1 h        0.802     0.356     0.574     1.190
   154   8 o        1.607    -0.679    27.162     7.034
   155   1 h        0.802     0.348     0.593     1.209
   156   1 h        0.805     0.324     0.653     1.269
   157   8 o        1.609    -0.661    26.688     6.972
   158   1 h        0.804     0.340     0.613     1.230
   159   1 h        0.805     0.335     0.625     1.242
   160   8 o        1.608    -0.666    26.824     6.990
   161   1 h        0.803     0.343     0.605     1.222
   162   1 h        0.804     0.361     0.563     1.178
   163   8 o        1.609    -0.667    26.849     6.993
   164   1 h        0.804     0.340     0.612     1.229
   165   1 h        0.805     0.330     0.637     1.254
   166   8 o        1.609    -0.673    27.006     7.014
   167   1 h        0.803     0.341     0.609     1.226
   168   1 h        0.805     0.328     0.642     1.259
   169   8 o        1.607    -0.686    27.334     7.056
   170   1 h        0.804     0.346     0.597     1.214
   171   1 h        0.803     0.331     0.634     1.251
   172   8 o        1.606    -0.686    27.353     7.059
   173   1 h        0.802     0.357     0.573     1.189
   174   1 h        0.804     0.330     0.637     1.253
   175   8 o        1.612    -0.680    27.185     7.037
   176   1 h        0.802     0.358     0.571     1.187
   177   1 h        0.803     0.348     0.594     1.211
   178   8 o        1.610    -0.662    26.720     6.977
   179   1 h        0.805     0.328     0.644     1.260
   180   1 h        0.805     0.333     0.630     1.246
   181   8 o        1.607    -0.669    26.894     6.999
   182   1 h        0.803     0.342     0.607     1.224
   183   1 h        0.804     0.346     0.598     1.214
   184   8 o        1.604    -0.699    27.676     7.100
   185   1 h        0.803     0.360     0.565     1.181
   186   1 h        0.805     0.334     0.627     1.244
   187   8 o        1.607    -0.708    27.929     7.133
   188   1 h        0.804     0.337     0.619     1.236
   189   1 h        0.803     0.355     0.577     1.194
   190   8 o        1.607    -0.682    27.233     7.043
   191   1 h        0.804     0.344     0.603     1.220
   192   1 h        0.804     0.345     0.600     1.217
   193   8 o        1.605    -0.693    27.519     7.080
   194   1 h        0.804     0.345     0.601     1.218
   195   1 h        0.802     0.354     0.580     1.196
   196   8 o        1.608    -0.689    27.417     7.067
   197   1 h        0.805     0.342     0.607     1.224
   198   1 h        0.803     0.347     0.595     1.211
   199   8 o        1.603    -0.720    28.240     7.172
   200   1 h        0.804     0.357     0.573     1.189
   201   1 h        0.803     0.349     0.592     1.208
   202   8 o        1.608    -0.671    26.946     7.006
   203   1 h        0.802     0.341     0.610     1.227
   204   1 h        0.806     0.313     0.684     1.299
   205   8 o        1.606    -0.665    26.790     6.986
   206   1 h        0.806     0.310     0.692     1.307
   207   1 h        0.801     0.343     0.605     1.222
   208   8 o        1.608    -0.664    26.762     6.982
   209   1 h        0.804     0.343     0.605     1.222
   210   1 h        0.803     0.352     0.584     1.200
   211   8 o        1.608    -0.662    26.722     6.977
   212   1 h        0.805     0.338     0.617     1.234
   213   1 h        0.803     0.342     0.608     1.225
   214   8 o        1.608    -0.666    26.817     6.989
   215   1 h        0.804     0.346     0.597     1.214
   216   1 h        0.804     0.327     0.645     1.261
   217   8 o        1.608    -0.656    26.571     6.957
   218   1 h        0.805     0.319     0.666     1.281
   219   1 h        0.803     0.342     0.608     1.225
   220   8 o        1.608    -0.675    27.062     7.021
   221   1 h        0.805     0.329     0.641     1.257
   222   1 h        0.803     0.349     0.591     1.207
   223   8 o        1.608    -0.662    26.722     6.977
   224   1 h        0.804     0.338     0.618     1.235
   225   1 h        0.804     0.338     0.617     1.234
   226   8 o        1.609    -0.677    27.111     7.027
   227   1 h        0.804     0.352     0.584     1.200
   228   1 h        0.803     0.353     0.583     1.199
   229   8 o        1.608    -0.694    27.550     7.084
   230   1 h        0.804     0.345     0.599     1.216
   231   1 h        0.804     0.332     0.632     1.249
   232   8 o        1.608    -0.664    26.781     6.985
   233   1 h        0.803     0.352     0.584     1.201
   234   1 h        0.806     0.316     0.674     1.289
   235   8 o        1.606    -0.701    27.741     7.109
   236   1 h        0.804     0.332     0.632     1.249
   237   1 h        0.802     0.363     0.558     1.174
   238   8 o        1.607    -0.679    27.156     7.033
   239   1 h        0.804     0.323     0.655     1.272
   240   1 h        0.803     0.352     0.585     1.201
   241   8 o        1.608    -0.702    27.756     7.110
   242   1 h        0.804     0.335     0.625     1.242
   243   1 h        0.803     0.334     0.628     1.245
   244   8 o        1.608    -0.687    27.377     7.062
   245   1 h        0.803     0.356     0.575     1.191
   246   1 h        0.805     0.318     0.670     1.286
   247   8 o        1.607    -0.666    26.832     6.991
   248   1 h        0.804     0.330     0.637     1.254
   249   1 h        0.803     0.346     0.599     1.215
   250   8 o        1.608    -0.677    27.109     7.027
   251   1 h        0.804     0.353     0.582     1.199
   252   1 h        0.803     0.330     0.638     1.255
   253   8 o        1.607    -0.679    27.154     7.033
   254   1 h        0.806     0.315     0.678     1.293
   255   1 h        0.802     0.356     0.574     1.190
   256   8 o        1.606    -0.671    26.965     7.008
   257   1 h        0.802     0.342     0.608     1.225
   258   1 h        0.804     0.337     0.620     1.237
   259   8 o        1.608    -0.673    27.004     7.014
   260   1 h        0.804     0.320     0.663     1.279
   261   1 h        0.804     0.340     0.613     1.230
   262   8 o        1.608    -0.664    26.759     6.982
   263   1 h        0.803     0.353     0.583     1.199
   264   1 h        0.806     0.322     0.657     1.274
   265   8 o        1.606    -0.697    27.622     7.093
   266   1 h        0.804     0.334     0.628     1.245
   267   1 h        0.803     0.336     0.623     1.240
   268   8 o        1.608    -0.679    27.147     7.032
   269   1 h        0.804     0.324     0.654     1.270
   270   1 h        0.804     0.341     0.610     1.227
   271   8 o        1.607    -0.671    26.958     7.007
   272   1 h        0.805     0.323     0.655     1.271
   273   1 h        0.802     0.341     0.609     1.226
   274   8 o        1.605    -0.728    28.476     7.202
   275   1 h        0.803     0.347     0.596     1.213
   276   1 h        0.803     0.341     0.611     1.228
   277   8 o        1.608    -0.662    26.725     6.977
   278   1 h        0.804     0.332     0.633     1.250
   279   1 h        0.803     0.336     0.623     1.240
   280   8 o        1.609    -0.670    26.937     7.005
   281   1 h        0.805     0.332     0.632     1.249
   282   1 h        0.803     0.338     0.617     1.234
   283   8 o        1.608    -0.685    27.315     7.054
   284   1 h        0.803     0.348     0.593     1.209
   285   1 h        0.805     0.325     0.651     1.268
   286   8 o        1.602    -0.694    27.567     7.086
   287   1 h        0.803     0.366     0.552     1.167
   288   1 h        0.806     0.308     0.698     1.312
   289   8 o        1.607    -0.685    27.318     7.054
   290   1 h        0.803     0.324     0.654     1.271
   291   1 h        0.804     0.344     0.602     1.218
   292   8 o        1.610    -0.647    26.328     6.925
   293   1 h        0.804     0.347     0.595     1.211
   294   1 h        0.806     0.312     0.685     1.300
   295   8 o        1.608    -0.679    27.166     7.034
   296   1 h        0.803     0.342     0.606     1.223
   297   1 h        0.805     0.324     0.654     1.270
   298   8 o        1.609    -0.676    27.092     7.025
   299   1 h        0.805     0.322     0.658     1.274
   300   1 h        0.804     0.343     0.606     1.223
   301   8 o        1.606    -0.673    26.995     7.012
   302   1 h        0.804     0.325     0.650     1.266
   303   1 h        0.802     0.342     0.608     1.225
   304   8 o        1.606    -0.676    27.072     7.022
   305   1 h        0.805     0.332     0.633     1.250
   306   1 h        0.802     0.362     0.562     1.177
   307   8 o        1.609    -0.671    26.939     7.005
   308   1 h        0.805     0.327     0.644     1.261
   309   1 h        0.804     0.337     0.619     1.236
   310   8 o        1.608    -0.682    27.240     7.044
   311   1 h        0.804     0.345     0.601     1.218
   312   1 h        0.805     0.333     0.630     1.247
   313   8 o        1.606    -0.693    27.519     7.080
   314   1 h        0.805     0.323     0.655     1.271
   315   1 h        0.802     0.359     0.567     1.183
   316   8 o        1.607    -0.671    26.964     7.008
   317   1 h        0.804     0.335     0.624     1.241
   318   1 h        0.803     0.344     0.602     1.219
   319   8 o        1.608    -0.669    26.903     7.000
   320   1 h        0.804     0.331     0.634     1.251
   321   1 h        0.804     0.332     0.631     1.248
   322   8 o        1.606    -0.679    27.158     7.033
   323   1 h        0.806     0.311     0.687     1.302
   324   1 h        0.801     0.354     0.580     1.196
   325   8 o        1.607    -0.670    26.914     7.002
   326   1 h        0.803     0.331     0.634     1.251
   327   1 h        0.804     0.330     0.637     1.253
   328   8 o        1.608    -0.670    26.922     7.003
   329   1 h        0.803     0.336     0.622     1.239
   330   1 h        0.805     0.325     0.650     1.266
   331   8 o        1.608    -0.677    27.095     7.025
   332   1 h        0.805     0.326     0.648     1.264
   333   1 h        0.803     0.356     0.575     1.191
   334   8 o        1.607    -0.683    27.262     7.047
   335   1 h        0.805     0.324     0.654     1.270
   336   1 h        0.802     0.359     0.569     1.185
   337   8 o        1.607    -0.680    27.176     7.036
   338   1 h        0.804     0.336     0.623     1.240
   339   1 h        0.804     0.339     0.616     1.233
   340   8 o        1.608    -0.674    27.038     7.018
   341   1 h        0.804     0.333     0.629     1.246
   342   1 h        0.803     0.340     0.612     1.229
   343   8 o        1.608    -0.664    26.774     6.984
   344   1 h        0.805     0.328     0.644     1.260
   345   1 h        0.804     0.347     0.596     1.213
   346   8 o        1.608    -0.664    26.781     6.985
   347   1 h        0.804     0.331     0.636     1.253
   348   1 h        0.804     0.336     0.621     1.238
   349   8 o        1.607    -0.683    27.256     7.046
   350   1 h        0.804     0.348     0.594     1.210
   351   1 h        0.803     0.330     0.637     1.254
   352   8 o        1.609    -0.673    26.993     7.012
   353   1 h        0.805     0.331     0.635     1.251
   354   1 h        0.804     0.359     0.568     1.183
   355   8 o        1.607    -0.672    26.978     7.010
   356   1 h        0.804     0.335     0.625     1.242
   357   1 h        0.803     0.332     0.631     1.248
   358   8 o        1.604    -0.691    27.483     7.075
   359   1 h        0.806     0.308     0.696     1.311
   360   1 h        0.804     0.371     0.542     1.157
   361   8 o        1.606    -0.685    27.322     7.055
   362   1 h        0.802     0.348     0.594     1.211
   363   1 h        0.804     0.337     0.619     1.236
   364   8 o        1.608    -0.685    27.307     7.053
   365   1 h        0.804     0.352     0.584     1.201
   366   1 h        0.804     0.333     0.629     1.246
   367   8 o        1.609    -0.655    26.529     6.952
   368   1 h        0.805     0.334     0.626     1.243
   369   1 h        0.804     0.344     0.602     1.219
   370   8 o        1.608    -0.662    26.725     6.977
   371   1 h        0.804     0.329     0.639     1.256
   372   1 h        0.804     0.334     0.626     1.243
   373   8 o        1.607    -0.702    27.775     7.113
   374   1 h        0.804     0.340     0.613     1.230
   375   1 h        0.804     0.344     0.603     1.220
   376   8 o        1.608    -0.671    26.941     7.005
   377   1 h        0.803     0.349     0.591     1.207
   378   1 h        0.806     0.314     0.680     1.295
   379   8 o        1.608    -0.691    27.468     7.074
   380   1 h        0.804     0.328     0.642     1.258
   381   1 h        0.804     0.333     0.629     1.245
   382   8 o        1.609    -0.683    27.260     7.047
   383   1 h        0.804     0.326     0.648     1.264
   384   1 h        0.805     0.338     0.617     1.234
   385   8 o        1.608    -0.674    27.018     7.015
   386   1 h        0.803     0.355     0.578     1.194
   387   1 h        0.805     0.334     0.628     1.245
   388   8 o        1.608    -0.664    26.763     6.982
   389   1 h        0.803     0.345     0.601     1.218
   390   1 h        0.805     0.322     0.657     1.273
   391   8 o        1.609    -0.653    26.497     6.947
   392   1 h        0.804     0.340     0.613     1.230
   393   1 h        0.806     0.317     0.672     1.288
   394   8 o        1.608    -0.667    26.852     6.994
   395   1 h        0.804     0.351     0.585     1.201
   396   1 h        0.803     0.337     0.621     1.238
   397   8 o        1.608    -0.671    26.944     7.006
   398   1 h        0.804     0.337     0.619     1.236
   399   1 h        0.804     0.337     0.620     1.237
   400   8 o        1.608    -0.684    27.298     7.052
   401   1 h        0.803     0.354     0.579     1.195
   402   1 h        0.804     0.349     0.591     1.207
   403   8 o        1.610    -0.643    26.236     6.913
   404   1 h        0.805     0.336     0.623     1.240
   405   1 h        0.805     0.336     0.622     1.238
   406   8 o        1.608    -0.663    26.736     6.979
   407   1 h        0.805     0.322     0.659     1.275
   408   1 h        0.803     0.333     0.630     1.247
   409   8 o        1.610    -0.635    26.035     6.887
   410   1 h        0.804     0.339     0.614     1.231
   411   1 h        0.806     0.305     0.707     1.320
   412   8 o        1.609    -0.666    26.810     6.988
   413   1 h        0.805     0.316     0.675     1.290
   414   1 h        0.804     0.328     0.641     1.258
   415   8 o        1.607    -0.698    27.659     7.098
   416   1 h        0.803     0.356     0.575     1.191
   417   1 h        0.804     0.329     0.639     1.256
   418   8 o        1.609    -0.664    26.775     6.984
   419   1 h        0.804     0.333     0.629     1.246
   420   1 h        0.805     0.327     0.646     1.263
   421   8 o        1.609    -0.668    26.866     6.996
   422   1 h        0.804     0.347     0.596     1.213
   423   1 h        0.805     0.332     0.633     1.250
   424   8 o        1.606    -0.680    27.192     7.038
   425   1 h        0.804     0.330     0.637     1.253
   426   1 h        0.803     0.337     0.619     1.236
   427   8 o        1.607    -0.688    27.382     7.062
   428   1 h        0.804     0.324     0.654     1.270
   429   1 h        0.803     0.325     0.651     1.267
   430   8 o        1.607    -0.680    27.184     7.037
   431   1 h        0.805     0.321     0.661     1.277
   432   1 h        0.802     0.356     0.574     1.190
   433   8 o        1.607    -0.667    26.859     6.995
   434   1 h        0.805     0.329     0.640     1.257
   435   1 h        0.802     0.345     0.599     1.216
   436   8 o        1.610    -0.659    26.636     6.966
   437   1 h        0.805     0.340     0.612     1.229
   438   1 h        0.805     0.341     0.609     1.226
   439   8 o        1.610    -0.631    25.929     6.873
   440   1 h        0.805     0.326     0.649     1.265
   441   1 h        0.805     0.335     0.624     1.240
   442   8 o        1.607    -0.673    27.013     7.015
   443   1 h        0.805     0.318     0.670     1.286
   444   1 h        0.802     0.366     0.553     1.168
   445   8 o        1.607    -0.681    27.204     7.039
   446   1 h        0.802     0.339     0.615     1.232
   447   1 h        0.803     0.337     0.619     1.236
   448   8 o        1.609    -0.679    27.159     7.034
   449   1 h        0.804     0.349     0.591     1.207
   450   1 h        0.804     0.348     0.592     1.209
   451   8 o        1.606    -0.686    27.337     7.056
   452   1 h        0.803     0.325     0.651     1.267
   453   1 h        0.803     0.355     0.577     1.194
   454   8 o        1.607    -0.660    26.673     6.970
   455   1 h        0.802     0.348     0.594     1.211
   456   1 h        0.805     0.321     0.661     1.277
   457   8 o        1.608    -0.656    26.565     6.956
   458   1 h        0.805     0.330     0.636     1.253
   459   1 h        0.803     0.363     0.558     1.173
   460   8 o        1.615    -0.663    26.734     6.979
   461   1 h        0.804     0.354     0.578     1.195
   462   1 h        0.805     0.347     0.596     1.213
   463   8 o        1.608    -0.663    26.753     6.981
   464   1 h        0.804     0.340     0.612     1.229
   465   1 h        0.804     0.328     0.643     1.259
   466   8 o        1.606    -0.661    26.694     6.973
   467   1 h        0.805     0.317     0.672     1.288
   468   1 h        0.801     0.345     0.600     1.217
   469   8 o        1.607    -0.678    27.139     7.031
   470   1 h        0.804     0.328     0.644     1.260
   471   1 h        0.803     0.349     0.591     1.208
   472   8 o        1.607    -0.676    27.091     7.025
   473   1 h        0.804     0.328     0.643     1.259
   474   1 h        0.803     0.345     0.600     1.217
   475   8 o        1.606    -0.665    26.801     6.987
   476   1 h        0.803     0.331     0.635     1.252
   477   1 h        0.804     0.324     0.652     1.268
   478   8 o        1.608    -0.674    27.017     7.015
   479   1 h        0.806     0.306     0.702     1.316
   480   1 h        0.802     0.360     0.566     1.182
   481   8 o        1.604    -0.691    27.485     7.076
   482   1 h        0.802     0.338     0.617     1.234
   483   1 h        0.803     0.364     0.558     1.173
   484   8 o        1.608    -0.684    27.297     7.052
   485   1 h        0.804     0.345     0.600     1.217
   486   1 h        0.804     0.346     0.598     1.215
   487   8 o        1.607    -0.669    26.900     7.000
   488   1 h        0.805     0.320     0.663     1.279
   489   1 h        0.802     0.341     0.610     1.227
   490   8 o        1.608    -0.675    27.048     7.019
   491   1 h        0.804     0.351     0.586     1.202
   492   1 h        0.804     0.324     0.654     1.270
   493   8 o        1.607    -0.669    26.908     7.001
   494   1 h        0.804     0.324     0.654     1.270
   495   1 h        0.803     0.350     0.588     1.205
   496   8 o        1.609    -0.671    26.957     7.007
   497   1 h        0.805     0.327     0.646     1.263
   498   1 h        0.804     0.347     0.595     1.211
   499   8 o        1.610    -0.651    26.442     6.940
   500   1 h        0.805     0.325     0.651     1.267
   501   1 h        0.804     0.334     0.628     1.245
   502   8 o        1.610    -0.661    26.697     6.974
   503   1 h        0.805     0.341     0.611     1.227
   504   1 h        0.805     0.326     0.647     1.263
   505   8 o        1.606    -0.675    27.060     7.021
   506   1 h        0.805     0.335     0.623     1.240
   507   1 h        0.802     0.341     0.611     1.228
   508   8 o        1.607    -0.692    27.503     7.078
   509   1 h        0.804     0.336     0.623     1.240
   510   1 h        0.803     0.352     0.583     1.199
   511   8 o        1.610    -0.671    26.953     7.007
   512   1 h        0.805     0.336     0.623     1.240
   513   1 h        0.804     0.343     0.605     1.221
   514   8 o        1.608    -0.652    26.473     6.944
   515   1 h        0.802     0.366     0.553     1.168
   516   1 h        0.806     0.314     0.681     1.297
   517   8 o        1.607    -0.680    27.180     7.036
   518   1 h        0.805     0.317     0.673     1.288
   519   1 h        0.802     0.349     0.591     1.207
   520   8 o        1.608    -0.679    27.165     7.034
   521   1 h        0.804     0.343     0.605     1.222
   522   1 h        0.805     0.329     0.641     1.258
   523   8 o        1.607    -0.669    26.898     7.000
   524   1 h        0.803     0.334     0.628     1.244
   525   1 h        0.804     0.336     0.623     1.240
   526   8 o        1.608    -0.644    26.267     6.917
   527   1 h        0.803     0.341     0.609     1.226
   528   1 h        0.805     0.327     0.644     1.261
   529   8 o        1.610    -0.633    25.991     6.881
   530   1 h        0.805     0.323     0.656     1.273
   531   1 h        0.805     0.327     0.646     1.262

 Mol. C6AA /au·bohr⁶  :    1428481.457652
 Mol. C8AA /au·bohr⁸  :   25903193.703628
 Mol. α(0) /au        :       1680.089169


Wiberg/Mayer (AO) data.
largest (>0.10) Wiberg bond orders for each atom

 ---------------------------------------------------------------------------
     #   Z sym  total        # sym  WBO       # sym  WBO       # sym  WBO
 ---------------------------------------------------------------------------
     1   8 o    1.776 --     2 h    0.857     3 h    0.852
     2   1 h    0.897 --     1 o    0.857
     3   1 h    0.896 --     1 o    0.852
     4   8 o    1.868 --     6 h    0.857     5 h    0.820
     5   1 h    0.887 --     4 o    0.820
     6   1 h    0.883 --     4 o    0.857
     7   8 o    1.853 --     9 h    0.834     8 h    0.831
     8   1 h    0.885 --     7 o    0.831
     9   1 h    0.880 --     7 o    0.834
    10   8 o    1.843 --    11 h    0.848    12 h    0.809
    11   1 h    0.894 --    10 o    0.848
    12   1 h    0.885 --    10 o    0.809
    13   8 o    1.874 --    14 h    0.852    15 h    0.831
    14   1 h    0.895 --    13 o    0.852
    15   1 h    0.883 --    13 o    0.831
    16   8 o    1.835 --    17 h    0.865    18 h    0.810
    17   1 h    0.898 --    16 o    0.865
    18   1 h    0.869 --    16 o    0.810
    19   8 o    1.885 --    21 h    0.817    20 h    0.792
    20   1 h    0.875 --    19 o    0.792
    21   1 h    0.883 --    19 o    0.817
    22   8 o    1.812 --    23 h    0.865    24 h    0.846
    23   1 h    0.893 --    22 o    0.865
    24   1 h    0.886 --    22 o    0.846
    25   8 o    1.860 --    26 h    0.842    27 h    0.811
    26   1 h    0.888 --    25 o    0.842
    27   1 h    0.875 --    25 o    0.811
    28   8 o    1.849 --    30 h    0.856    29 h    0.813
    29   1 h    0.880 --    28 o    0.813
    30   1 h    0.898 --    28 o    0.856
    31   8 o    1.831 --    32 h    0.835    33 h    0.803
    32   1 h    0.892 --    31 o    0.835
    33   1 h    0.882 --    31 o    0.803
    34   8 o    1.850 --    36 h    0.891    35 h    0.767
    35   1 h    0.867 --    34 o    0.767
    36   1 h    0.904 --    34 o    0.891
    37   8 o    1.874 --    38 h    0.825    39 h    0.804
    38   1 h    0.879 --    37 o    0.825
    39   1 h    0.879 --    37 o    0.804
    40   8 o    1.867 --    42 h    0.842    41 h    0.791
    41   1 h    0.874 --    40 o    0.791
    42   1 h    0.880 --    40 o    0.842
    43   8 o    1.858 --    45 h    0.864    44 h    0.821
    44   1 h    0.885 --    43 o    0.821
    45   1 h    0.895 --    43 o    0.864
    46   8 o    1.837 --    47 h    0.865    48 h    0.825
    47   1 h    0.894 --    46 o    0.865
    48   1 h    0.883 --    46 o    0.825
    49   8 o    1.854 --    51 h    0.843    50 h    0.808
    50   1 h    0.876 --    49 o    0.808
    51   1 h    0.891 --    49 o    0.843
    52   8 o    1.849 --    54 h    0.831    53 h    0.810
    53   1 h    0.881 --    52 o    0.810
    54   1 h    0.877 --    52 o    0.831
    55   8 o    1.844 --    56 h    0.840    57 h    0.790
    56   1 h    0.898 --    55 o    0.840
    57   1 h    0.877 --    55 o    0.790
    58   8 o    1.855 --    59 h    0.819    60 h    0.792
    59   1 h    0.882 --    58 o    0.819
    60   1 h    0.876 --    58 o    0.792
    61   8 o    1.817 --    62 h    0.904    63 h    0.809
    62   1 h    0.911 --    61 o    0.904
    63   1 h    0.875 --    61 o    0.809
    64   8 o    1.877 --    65 h    0.822    66 h    0.801
    65   1 h    0.888 --    64 o    0.822
    66   1 h    0.871 --    64 o    0.801
    67   8 o    1.833 --    68 h    0.847    69 h    0.827
    68   1 h    0.886 --    67 o    0.847
    69   1 h    0.882 --    67 o    0.827
    70   8 o    1.869 --    72 h    0.826    71 h    0.819
    71   1 h    0.888 --    70 o    0.819
    72   1 h    0.891 --    70 o    0.826
    73   8 o    1.874 --    75 h    0.836    74 h    0.801
    74   1 h    0.877 --    73 o    0.801
    75   1 h    0.883 --    73 o    0.836
    76   8 o    1.845 --    77 h    0.836    78 h    0.815
    77   1 h    0.886 --    76 o    0.836
    78   1 h    0.881 --    76 o    0.815
    79   8 o    1.830 --    80 h    0.850    81 h    0.816
    80   1 h    0.894 --    79 o    0.850
    81   1 h    0.877 --    79 o    0.816
    82   8 o    1.867 --    84 h    0.831    83 h    0.801
    83   1 h    0.872 --    82 o    0.801
    84   1 h    0.895 --    82 o    0.831
    85   8 o    1.802 --    87 h    0.851    86 h    0.812
    86   1 h    0.878 --    85 o    0.812
    87   1 h    0.894 --    85 o    0.851
    88   8 o    1.856 --    89 h    0.902    90 h    0.805
    89   1 h    0.905 --    88 o    0.902
    90   1 h    0.877 --    88 o    0.805
    91   8 o    1.802 --    92 h    0.877    93 h    0.813
    92   1 h    0.896 --    91 o    0.877
    93   1 h    0.879 --    91 o    0.813
    94   8 o    1.851 --    96 h    0.871    95 h    0.805
    95   1 h    0.882 --    94 o    0.805
    96   1 h    0.898 --    94 o    0.871
    97   8 o    1.793 --    99 h    0.839    98 h    0.838
    98   1 h    0.896 --    97 o    0.838
    99   1 h    0.896 --    97 o    0.839
   100   8 o    1.883 --   101 h    0.828   102 h    0.822
   101   1 h    0.876 --   100 o    0.828
   102   1 h    0.887 --   100 o    0.822
   103   8 o    1.844 --   105 h    0.856   104 h    0.796
   104   1 h    0.877 --   103 o    0.796
   105   1 h    0.901 --   103 o    0.856
   106   8 o    1.838 --   107 h    0.894   108 h    0.806
   107   1 h    0.899 --   106 o    0.894
   108   1 h    0.875 --   106 o    0.806
   109   8 o    1.852 --   110 h    0.827   111 h    0.809
   110   1 h    0.883 --   109 o    0.827
   111   1 h    0.884 --   109 o    0.809
   112   8 o    1.908 --   114 h    0.817   113 h    0.772   185 h    0.106
   113   1 h    0.866 --   112 o    0.772
   114   1 h    0.878 --   112 o    0.817
   115   8 o    1.845 --   116 h    0.850   117 h    0.824
   116   1 h    0.897 --   115 o    0.850
   117   1 h    0.883 --   115 o    0.824
   118   8 o    1.829 --   119 h    0.860   120 h    0.800
   119   1 h    0.891 --   118 o    0.860
   120   1 h    0.879 --   118 o    0.800
   121   8 o    1.827 --   122 h    0.856   123 h    0.847
   122   1 h    0.886 --   121 o    0.856
   123   1 h    0.898 --   121 o    0.847
   124   8 o    1.861 --   126 h    0.889   125 h    0.794
   125   1 h    0.881 --   124 o    0.794
   126   1 h    0.902 --   124 o    0.889
   127   8 o    1.814 --   129 h    0.852   128 h    0.850
   128   1 h    0.889 --   127 o    0.850
   129   1 h    0.892 --   127 o    0.852
   130   8 o    1.845 --   132 h    0.841   131 h    0.795
   131   1 h    0.870 --   130 o    0.795
   132   1 h    0.899 --   130 o    0.841
   133   8 o    1.867 --   134 h    0.829   135 h    0.807
   134   1 h    0.894 --   133 o    0.829
   135   1 h    0.874 --   133 o    0.807
   136   8 o    1.859 --   138 h    0.881   137 h    0.805
   137   1 h    0.879 --   136 o    0.805
   138   1 h    0.897 --   136 o    0.881
   139   8 o    1.867 --   140 h    0.819   141 h    0.792
   140   1 h    0.884 --   139 o    0.819
   141   1 h    0.882 --   139 o    0.792
   142   8 o    1.839 --   144 h    0.824   143 h    0.799
   143   1 h    0.878 --   142 o    0.799
   144   1 h    0.888 --   142 o    0.824
   145   8 o    1.810 --   146 h    0.878   147 h    0.823
   146   1 h    0.905 --   145 o    0.878
   147   1 h    0.878 --   145 o    0.823
   148   8 o    1.836 --   149 h    0.864   150 h    0.824
   149   1 h    0.892 --   148 o    0.864
   150   1 h    0.882 --   148 o    0.824
   151   8 o    1.846 --   152 h    0.895   153 h    0.802
   152   1 h    0.903 --   151 o    0.895
   153   1 h    0.873 --   151 o    0.802
   154   8 o    1.826 --   156 h    0.865   155 h    0.806
   155   1 h    0.879 --   154 o    0.806
   156   1 h    0.895 --   154 o    0.865
   157   8 o    1.847 --   159 h    0.862   158 h    0.844
   158   1 h    0.885 --   157 o    0.844
   159   1 h    0.888 --   157 o    0.862
   160   8 o    1.903 --   161 h    0.827   162 h    0.819
   161   1 h    0.882 --   160 o    0.827
   162   1 h    0.870 --   160 o    0.819
   163   8 o    1.840 --   165 h    0.865   164 h    0.832
   164   1 h    0.884 --   163 o    0.832
   165   1 h    0.891 --   163 o    0.865
   166   8 o    1.834 --   168 h    0.866   167 h    0.827
   167   1 h    0.883 --   166 o    0.827
   168   1 h    0.892 --   166 o    0.866
   169   8 o    1.827 --   171 h    0.837   170 h    0.828
   170   1 h    0.880 --   169 o    0.828
   171   1 h    0.890 --   169 o    0.837
   172   8 o    1.864 --   174 h    0.848   173 h    0.790
   173   1 h    0.873 --   172 o    0.790
   174   1 h    0.891 --   172 o    0.848
   175   8 o    1.902 --   177 h    0.812   176 h    0.798   287 h    0.125
   176   1 h    0.872 --   175 o    0.798
   177   1 h    0.879 --   175 o    0.812
   178   8 o    1.809 --   179 h    0.871   180 h    0.860
   179   1 h    0.893 --   178 o    0.871
   180   1 h    0.889 --   178 o    0.860
   181   8 o    1.879 --   183 h    0.828   182 h    0.819
   182   1 h    0.883 --   181 o    0.819
   183   1 h    0.880 --   181 o    0.828
   184   8 o    1.860 --   186 h    0.843   185 h    0.761
   185   1 h    0.870 --   184 o    0.761   112 o    0.106
   186   1 h    0.889 --   184 o    0.843
   187   8 o    1.823 --   188 h    0.835   189 h    0.806
   188   1 h    0.886 --   187 o    0.835
   189   1 h    0.874 --   187 o    0.806
   190   8 o    1.870 --   192 h    0.821   191 h    0.814
   191   1 h    0.882 --   190 o    0.814
   192   1 h    0.881 --   190 o    0.821
   193   8 o    1.858 --   194 h    0.829   195 h    0.791
   194   1 h    0.881 --   193 o    0.829
   195   1 h    0.875 --   193 o    0.791
   196   8 o    1.838 --   197 h    0.828   198 h    0.810
   197   1 h    0.883 --   196 o    0.828
   198   1 h    0.879 --   196 o    0.810
   199   8 o    1.853 --   201 h    0.784   200 h    0.779
   200   1 h    0.873 --   199 o    0.779
   201   1 h    0.878 --   199 o    0.784
   202   8 o    1.817 --   204 h    0.890   203 h    0.808
   203   1 h    0.884 --   202 o    0.808
   204   1 h    0.902 --   202 o    0.890
   205   8 o    1.830 --   206 h    0.896   207 h    0.799
   206   1 h    0.904 --   205 o    0.896
   207   1 h    0.882 --   205 o    0.799
   208   8 o    1.905 --   209 h    0.841   210 h    0.809
   209   1 h    0.882 --   208 o    0.841
   210   1 h    0.876 --   208 o    0.809
   211   8 o    1.863 --   212 h    0.863   213 h    0.809
   212   1 h    0.886 --   211 o    0.863
   213   1 h    0.883 --   211 o    0.809
   214   8 o    1.865 --   216 h    0.840   215 h    0.824
   215   1 h    0.880 --   214 o    0.824
   216   1 h    0.893 --   214 o    0.840
   217   8 o    1.837 --   218 h    0.881   219 h    0.827
   218   1 h    0.898 --   217 o    0.881
   219   1 h    0.883 --   217 o    0.827
   220   8 o    1.849 --   221 h    0.863   222 h    0.803
   221   1 h    0.892 --   220 o    0.863
   222   1 h    0.878 --   220 o    0.803
   223   8 o    1.877 --   224 h    0.836   225 h    0.826
   224   1 h    0.886 --   223 o    0.836
   225   1 h    0.886 --   223 o    0.826
   226   8 o    1.883 --   227 h    0.826   228 h    0.817
   227   1 h    0.876 --   226 o    0.826
   228   1 h    0.876 --   226 o    0.817
   229   8 o    1.812 --   231 h    0.849   230 h    0.826
   230   1 h    0.881 --   229 o    0.826
   231   1 h    0.890 --   229 o    0.849
   232   8 o    1.828 --   234 h    0.895   233 h    0.814
   233   1 h    0.876 --   232 o    0.814
   234   1 h    0.900 --   232 o    0.895
   235   8 o    1.839 --   236 h    0.842   237 h    0.790
   236   1 h    0.890 --   235 o    0.842
   237   1 h    0.868 --   235 o    0.790
   238   8 o    1.844 --   239 h    0.840   240 h    0.813
   239   1 h    0.895 --   238 o    0.840
   240   1 h    0.876 --   238 o    0.813
   241   8 o    1.805 --   242 h    0.837   243 h    0.820
   242   1 h    0.888 --   241 o    0.837
   243   1 h    0.889 --   241 o    0.820
   244   8 o    1.821 --   246 h    0.870   245 h    0.805
   245   1 h    0.873 --   244 o    0.805
   246   1 h    0.899 --   244 o    0.870
   247   8 o    1.878 --   248 h    0.837   249 h    0.823
   248   1 h    0.891 --   247 o    0.837
   249   1 h    0.880 --   247 o    0.823
   250   8 o    1.852 --   251 h    0.826   252 h    0.825
   251   1 h    0.876 --   250 o    0.826
   252   1 h    0.891 --   250 o    0.825
   253   8 o    1.823 --   254 h    0.893   255 h    0.792
   254   1 h    0.901 --   253 o    0.893
   255   1 h    0.873 --   253 o    0.792
   256   8 o    1.887 --   258 h    0.833   257 h    0.802
   257   1 h    0.883 --   256 o    0.802
   258   1 h    0.886 --   256 o    0.833
   259   8 o    1.846 --   260 h    0.833   261 h    0.830
   260   1 h    0.897 --   259 o    0.833
   261   1 h    0.885 --   259 o    0.830
   262   8 o    1.846 --   264 h    0.892   263 h    0.801
   263   1 h    0.876 --   262 o    0.801
   264   1 h    0.896 --   262 o    0.892
   265   8 o    1.812 --   266 h    0.822   267 h    0.816
   266   1 h    0.889 --   265 o    0.822
   267   1 h    0.887 --   265 o    0.816
   268   8 o    1.826 --   269 h    0.848   270 h    0.821
   269   1 h    0.895 --   268 o    0.848
   270   1 h    0.884 --   268 o    0.821
   271   8 o    1.846 --   272 h    0.854   273 h    0.821
   272   1 h    0.895 --   271 o    0.854
   273   1 h    0.883 --   271 o    0.821
   274   8 o    1.807 --   276 h    0.800   275 h    0.795
   275   1 h    0.880 --   274 o    0.795
   276   1 h    0.884 --   274 o    0.800
   277   8 o    1.847 --   278 h    0.855   279 h    0.831
   278   1 h    0.890 --   277 o    0.855
   279   1 h    0.887 --   277 o    0.831
   280   8 o    1.836 --   281 h    0.868   282 h    0.825
   281   1 h    0.890 --   280 o    0.868
   282   1 h    0.886 --   280 o    0.825
   283   8 o    1.836 --   285 h    0.861   284 h    0.807
   284   1 h    0.879 --   283 o    0.807
   285   1 h    0.895 --   283 o    0.861
   286   8 o    1.830 --   288 h    0.898   287 h    0.735
   287   1 h    0.866 --   286 o    0.735   175 o    0.125
   288   1 h    0.905 --   286 o    0.898
   289   8 o    1.845 --   290 h    0.819   291 h    0.817
   290   1 h    0.895 --   289 o    0.819
   291   1 h    0.881 --   289 o    0.817
   292   8 o    1.829 --   294 h    0.899   293 h    0.839
   293   1 h    0.879 --   292 o    0.839
   294   1 h    0.902 --   292 o    0.899
   295   8 o    1.835 --   297 h    0.858   296 h    0.810
   296   1 h    0.883 --   295 o    0.810
   297   1 h    0.895 --   295 o    0.858
   298   8 o    1.818 --   299 h    0.869   300 h    0.825
   299   1 h    0.896 --   298 o    0.869
   300   1 h    0.883 --   298 o    0.825
   301   8 o    1.849 --   302 h    0.852   303 h    0.804
   302   1 h    0.894 --   301 o    0.852
   303   1 h    0.883 --   301 o    0.804
   304   8 o    1.877 --   305 h    0.867   306 h    0.779
   305   1 h    0.890 --   304 o    0.867
   306   1 h    0.869 --   304 o    0.779
   307   8 o    1.823 --   308 h    0.860   309 h    0.848
   308   1 h    0.893 --   307 o    0.860
   309   1 h    0.886 --   307 o    0.848
   310   8 o    1.838 --   312 h    0.851   311 h    0.805
   311   1 h    0.881 --   310 o    0.805
   312   1 h    0.889 --   310 o    0.851
   313   8 o    1.848 --   314 h    0.863   315 h    0.774
   314   1 h    0.895 --   313 o    0.863
   315   1 h    0.871 --   313 o    0.774
   316   8 o    1.877 --   317 h    0.833   318 h    0.807
   317   1 h    0.888 --   316 o    0.833
   318   1 h    0.882 --   316 o    0.807
   319   8 o    1.834 --   321 h    0.844   320 h    0.843
   320   1 h    0.890 --   319 o    0.843
   321   1 h    0.889 --   319 o    0.844
   322   8 o    1.819 --   323 h    0.896   324 h    0.781
   323   1 h    0.903 --   322 o    0.896
   324   1 h    0.875 --   322 o    0.781
   325   8 o    1.861 --   327 h    0.843   326 h    0.825
   326   1 h    0.890 --   325 o    0.825
   327   1 h    0.891 --   325 o    0.843
   328   8 o    1.840 --   330 h    0.860   329 h    0.820
   329   1 h    0.887 --   328 o    0.820
   330   1 h    0.894 --   328 o    0.860
   331   8 o    1.834 --   332 h    0.864   333 h    0.819
   332   1 h    0.894 --   331 o    0.864
   333   1 h    0.873 --   331 o    0.819
   334   8 o    1.841 --   335 h    0.859   336 h    0.799
   335   1 h    0.895 --   334 o    0.859
   336   1 h    0.871 --   334 o    0.799
   337   8 o    1.834 --   338 h    0.838   339 h    0.832
   338   1 h    0.887 --   337 o    0.838
   339   1 h    0.885 --   337 o    0.832
   340   8 o    1.843 --   341 h    0.850   342 h    0.821
   341   1 h    0.889 --   340 o    0.850
   342   1 h    0.884 --   340 o    0.821
   343   8 o    1.838 --   344 h    0.862   345 h    0.830
   344   1 h    0.893 --   343 o    0.862
   345   1 h    0.880 --   343 o    0.830
   346   8 o    1.856 --   347 h    0.841   348 h    0.831
   347   1 h    0.891 --   346 o    0.841
   348   1 h    0.887 --   346 o    0.831
   349   8 o    1.846 --   350 h    0.825   351 h    0.819
   350   1 h    0.879 --   349 o    0.825
   351   1 h    0.891 --   349 o    0.819
   352   8 o    1.851 --   353 h    0.859   354 h    0.825
   353   1 h    0.890 --   352 o    0.859
   354   1 h    0.871 --   352 o    0.825
   355   8 o    1.862 --   356 h    0.824   357 h    0.824
   356   1 h    0.888 --   355 o    0.824
   357   1 h    0.889 --   355 o    0.824
   358   8 o    1.830 --   359 h    0.897   360 h    0.749
   359   1 h    0.905 --   358 o    0.897
   360   1 h    0.863 --   358 o    0.749   460 o    0.108
   361   8 o    1.858 --   363 h    0.827   362 h    0.801
   362   1 h    0.879 --   361 o    0.801
   363   1 h    0.886 --   361 o    0.827
   364   8 o    1.826 --   366 h    0.843   365 h    0.836
   365   1 h    0.876 --   364 o    0.836
   366   1 h    0.889 --   364 o    0.843
   367   8 o    1.859 --   368 h    0.875   369 h    0.843
   368   1 h    0.888 --   367 o    0.875
   369   1 h    0.882 --   367 o    0.843
   370   8 o    1.864 --   371 h    0.838   372 h    0.828
   371   1 h    0.891 --   370 o    0.838
   372   1 h    0.888 --   370 o    0.828
   373   8 o    1.819 --   374 h    0.831   375 h    0.822
   374   1 h    0.885 --   373 o    0.831
   375   1 h    0.882 --   373 o    0.822
   376   8 o    1.822 --   378 h    0.894   377 h    0.805
   377   1 h    0.878 --   376 o    0.805
   378   1 h    0.901 --   376 o    0.894
   379   8 o    1.784 --   380 h    0.842   381 h    0.838
   380   1 h    0.892 --   379 o    0.842
   381   1 h    0.889 --   379 o    0.838
   382   8 o    1.798 --   384 h    0.850   383 h    0.849
   383   1 h    0.894 --   382 o    0.849
   384   1 h    0.886 --   382 o    0.850
   385   8 o    1.850 --   387 h    0.849   386 h    0.804
   386   1 h    0.874 --   385 o    0.804
   387   1 h    0.889 --   385 o    0.849
   388   8 o    1.852 --   390 h    0.859   389 h    0.825
   389   1 h    0.881 --   388 o    0.825
   390   1 h    0.896 --   388 o    0.859
   391   8 o    1.830 --   393 h    0.896   392 h    0.836
   392   1 h    0.885 --   391 o    0.836
   393   1 h    0.900 --   391 o    0.896
   394   8 o    1.881 --   396 h    0.827   395 h    0.826
   395   1 h    0.876 --   394 o    0.826
   396   1 h    0.887 --   394 o    0.827
   397   8 o    1.827 --   398 h    0.850   399 h    0.846
   398   1 h    0.886 --   397 o    0.850
   399   1 h    0.886 --   397 o    0.846
   400   8 o    1.885 --   402 h    0.819   401 h    0.802
   401   1 h    0.875 --   400 o    0.802
   402   1 h    0.878 --   400 o    0.819
   403   8 o    1.862 --   405 h    0.861   404 h    0.860
   404   1 h    0.887 --   403 o    0.860
   405   1 h    0.887 --   403 o    0.861
   406   8 o    1.849 --   407 h    0.867   408 h    0.814
   407   1 h    0.896 --   406 o    0.867
   408   1 h    0.889 --   406 o    0.814
   409   8 o    1.843 --   411 h    0.900   410 h    0.844
   410   1 h    0.885 --   409 o    0.844
   411   1 h    0.907 --   409 o    0.900
   412   8 o    1.818 --   413 h    0.861   414 h    0.837
   413   1 h    0.900 --   412 o    0.861
   414   1 h    0.892 --   412 o    0.837
   415   8 o    1.837 --   417 h    0.839   416 h    0.803
   416   1 h    0.873 --   415 o    0.803
   417   1 h    0.892 --   415 o    0.839
   418   8 o    1.805 --   420 h    0.869   419 h    0.843
   419   1 h    0.889 --   418 o    0.843
   420   1 h    0.893 --   418 o    0.869
   421   8 o    1.845 --   423 h    0.857   422 h    0.835
   422   1 h    0.880 --   421 o    0.835
   423   1 h    0.890 --   421 o    0.857
   424   8 o    1.852 --   426 h    0.823   425 h    0.822
   425   1 h    0.891 --   424 o    0.822
   426   1 h    0.886 --   424 o    0.823
   427   8 o    1.815 --   428 h    0.846   429 h    0.822
   428   1 h    0.895 --   427 o    0.846
   429   1 h    0.894 --   427 o    0.822
   430   8 o    1.838 --   431 h    0.872   432 h    0.795
   431   1 h    0.897 --   430 o    0.872
   432   1 h    0.873 --   430 o    0.795
   433   8 o    1.855 --   434 h    0.865   435 h    0.804
   434   1 h    0.892 --   433 o    0.865
   435   1 h    0.881 --   433 o    0.804
   436   8 o    1.844 --   437 h    0.861   438 h    0.857
   437   1 h    0.884 --   436 o    0.861
   438   1 h    0.883 --   436 o    0.857
   439   8 o    1.860 --   440 h    0.882   441 h    0.862
   440   1 h    0.894 --   439 o    0.882
   441   1 h    0.887 --   439 o    0.862
   442   8 o    1.858 --   443 h    0.882   444 h    0.773
   443   1 h    0.899 --   442 o    0.882
   444   1 h    0.866 --   442 o    0.773
   445   8 o    1.863 --   447 h    0.832   446 h    0.811
   446   1 h    0.885 --   445 o    0.811
   447   1 h    0.886 --   445 o    0.832
   448   8 o    1.886 --   450 h    0.827   449 h    0.806
   449   1 h    0.878 --   448 o    0.806
   450   1 h    0.879 --   448 o    0.827
   451   8 o    1.858 --   452 h    0.834   453 h    0.800
   452   1 h    0.894 --   451 o    0.834
   453   1 h    0.874 --   451 o    0.800
   454   8 o    1.857 --   456 h    0.881   455 h    0.798
   455   1 h    0.879 --   454 o    0.798
   456   1 h    0.897 --   454 o    0.881
   457   8 o    1.882 --   458 h    0.863   459 h    0.821
   458   1 h    0.891 --   457 o    0.863
   459   1 h    0.868 --   457 o    0.821
   460   8 o    1.874 --   462 h    0.845   461 h    0.822   360 h    0.108
   461   1 h    0.874 --   460 o    0.822
   462   1 h    0.880 --   460 o    0.845
   463   8 o    1.853 --   465 h    0.848   464 h    0.832
   464   1 h    0.884 --   463 o    0.832
   465   1 h    0.892 --   463 o    0.848
   466   8 o    1.856 --   467 h    0.874   468 h    0.800
   467   1 h    0.899 --   466 o    0.874
   468   1 h    0.881 --   466 o    0.800
   469   8 o    1.848 --   470 h    0.842   471 h    0.818
   470   1 h    0.893 --   469 o    0.842
   471   1 h    0.878 --   469 o    0.818
   472   8 o    1.869 --   473 h    0.832   474 h    0.810
   473   1 h    0.892 --   472 o    0.832
   474   1 h    0.881 --   472 o    0.810
   475   8 o    1.869 --   477 h    0.841   476 h    0.812
   476   1 h    0.890 --   475 o    0.812
   477   1 h    0.895 --   475 o    0.841
   478   8 o    1.822 --   479 h    0.898   480 h    0.795
   479   1 h    0.906 --   478 o    0.898
   480   1 h    0.871 --   478 o    0.795
   481   8 o    1.884 --   483 h    0.801   482 h    0.798
   482   1 h    0.885 --   481 o    0.798
   483   1 h    0.868 --   481 o    0.801
   484   8 o    1.835 --   486 h    0.831   485 h    0.828
   485   1 h    0.881 --   484 o    0.828
   486   1 h    0.880 --   484 o    0.831
   487   8 o    1.841 --   488 h    0.874   489 h    0.813
   488   1 h    0.897 --   487 o    0.874
   489   1 h    0.884 --   487 o    0.813
   490   8 o    1.853 --   492 h    0.842   491 h    0.817
   491   1 h    0.877 --   490 o    0.817
   492   1 h    0.895 --   490 o    0.842
   493   8 o    1.866 --   494 h    0.845   495 h    0.803
   494   1 h    0.895 --   493 o    0.845
   495   1 h    0.877 --   493 o    0.803
   496   8 o    1.827 --   497 h    0.873   498 h    0.835
   497   1 h    0.893 --   496 o    0.873
   498   1 h    0.879 --   496 o    0.835
   499   8 o    1.836 --   500 h    0.881   501 h    0.851
   500   1 h    0.894 --   499 o    0.881
   501   1 h    0.889 --   499 o    0.851
   502   8 o    1.821 --   504 h    0.875   503 h    0.855
   503   1 h    0.884 --   502 o    0.855
   504   1 h    0.894 --   502 o    0.875
   505   8 o    1.857 --   506 h    0.851   507 h    0.788
   506   1 h    0.887 --   505 o    0.851
   507   1 h    0.884 --   505 o    0.788
   508   8 o    1.864 --   509 h    0.827   510 h    0.786
   509   1 h    0.887 --   508 o    0.827
   510   1 h    0.876 --   508 o    0.786
   511   8 o    1.844 --   512 h    0.854   513 h    0.832
   512   1 h    0.887 --   511 o    0.854
   513   1 h    0.882 --   511 o    0.832
   514   8 o    1.870 --   516 h    0.899   515 h    0.801
   515   1 h    0.866 --   514 o    0.801
   516   1 h    0.902 --   514 o    0.899
   517   8 o    1.808 --   518 h    0.874   519 h    0.803
   518   1 h    0.900 --   517 o    0.874
   519   1 h    0.878 --   517 o    0.803
   520   8 o    1.822 --   522 h    0.855   521 h    0.838
   521   1 h    0.882 --   520 o    0.838
   522   1 h    0.892 --   520 o    0.855
   523   8 o    1.872 --   525 h    0.838   524 h    0.810
   524   1 h    0.888 --   523 o    0.810
   525   1 h    0.887 --   523 o    0.838
   526   8 o    1.872 --   528 h    0.880   527 h    0.828
   527   1 h    0.883 --   526 o    0.828
   528   1 h    0.893 --   526 o    0.880
   529   8 o    1.849 --   530 h    0.883   531 h    0.873
   530   1 h    0.896 --   529 o    0.883
   531   1 h    0.893 --   529 o    0.873
 ---------------------------------------------------------------------------

Topologies differ in total number of bonds
Writing topology from bond orders to xtbtopo.mol

molecular dipole:
                 x           y           z       tot (Debye)
 q only:       -0.295       0.391      -0.229
   full:       -0.193       1.118       0.188       2.922
molecular quadrupole (traceless):
                xx          xy          yy          xz          yz          zz
 q only:      195.569      -9.610    -124.489       0.689      57.255     -71.080
  q+dip:      246.094     -11.470    -148.146      -9.852      72.753     -97.948
   full:      248.186     -10.987    -149.759     -10.779      73.596     -98.427


           -------------------------------------------------
          | TOTAL ENERGY             -901.394328429186 Eh   |
          | GRADIENT NORM               0.104827736473 Eh/α |
          | HOMO-LUMO GAP               7.565083368039 eV   |
           -------------------------------------------------

------------------------------------------------------------------------
 * finished run on 2022/11/17 at 06:54:58.449     
------------------------------------------------------------------------
 total:
 * wall-time:     0 d,  0 h,  0 min,  9.273 sec
 *  cpu-time:     0 d,  0 h,  0 min, 13.725 sec
 * ratio c/w:     1.480 speedup
 SCF:
 * wall-time:     0 d,  0 h,  0 min,  8.686 sec
 *  cpu-time:     0 d,  0 h,  0 min, 12.675 sec
 * ratio c/w:     1.459 speedup

