531
 energy: -901.171797878947 gnorm: 0.029498994529 xtb: 6.5.1 (579679a)
o           -0.89533746583296       -2.39790442632958       -0.33758639657963
h           -1.76491883635619       -2.78224349307179       -0.49554415272482
h           -0.26352562105105       -2.95792998187169       -0.81332610504218
o            3.14209578998576       -4.01519035858225        2.50842240547587
h            2.80470306298779       -4.56836632696019        3.24494676574345
h            3.25281035221368       -3.13674541668179        2.88153510085950
o            3.17593863474553       -0.73444453336050        2.23872073339819
h            3.28431589019102       -1.09836093739716        3.13298629673078
h            2.91725371914582        0.18848693611279        2.37115261811126
o            1.35003128574804       -4.70707208089194       -4.38112839493178
h            0.88849271096849       -5.55666681986898       -4.28129489709415
h            0.88300313587777       -4.21887159138540       -5.09741646857677
o           -4.06783057529883        0.23148052882418        4.50456796817938
h           -3.99395539205235        0.20762530083708        5.47021699168935
h           -4.88979808403875        0.72077218562906        4.32114059869714
o            3.91406505636451       -5.03244322890446       -3.25524447818784
h            3.14778413445799       -5.19052962473814       -3.81639740692559
h            3.69491335759696       -4.23464223322218       -2.73270194586807
o            0.65318197179971       -2.46910935582328        3.76704030180501
h            0.09601195659209       -1.67163168841066        3.91594153099055
h            1.55786117196602       -2.23335014919619        4.04799010623958
o            4.01320805206641       -7.12445934471333        1.43730665465110
h            4.29023691566438       -7.29489805170093        0.52913267680884
h            4.66036016922552       -6.49078223230450        1.78568085912966
o           -4.42304243744305       -1.99189342629797        0.36057288604710
h           -3.90855095807628       -2.47115625753332       -0.30398826979670
h           -4.83779908336306       -1.21470173890359       -0.05230104004772
o            0.14211072111518        2.38352384606351        4.04353810185260
h           -0.79399581993521        2.21227732345167        3.83471159312649
h            0.15744067289315        3.02546536040631        4.76442481437059
o           -2.42231286036510       -0.65361850145935       -2.16731394842288
h           -3.18139348843977       -1.09450580025475       -2.58564045361198
h           -2.74616837001835       -0.21762700510933       -1.35213917785267
o            2.65929453197847        6.31511869700164        1.77780627176056
h            3.07119773726349        5.47985746419468        1.43324380062799
h            3.36346510154779        6.96431807117096        1.79173401746831
o            2.45656912348683        2.04656585882560        2.27612794852742
h            1.52407589630083        2.30132720638949        2.16298791552452
h            2.68554391104337        2.40798235849439        3.16169854156673
o           -2.46591386201953        2.10491391951251        3.55813670948669
h           -3.05297270865416        1.34606962301583        3.77818695417096
h           -2.63614881672580        2.34900325156620        2.64221997836267
o           -1.93204529195061        3.92434806021032       -3.19476285749905
h           -1.93149914260095        3.91701079339142       -4.17038953518352
h           -1.35747052815775        4.64807253286569       -2.91919130446588
o           -2.74176562622727        6.75400829248288       -2.78426569978377
h           -1.78171191109784        6.69244067759511       -2.83029852121310
h           -3.10999417916362        6.30564493968054       -3.57156065084120
o           -4.36915680594264        3.29711454290364       -1.98283598543816
h           -4.51315965958242        2.41036776697305       -2.37406604204093
h           -3.53551138698574        3.62522124566277       -2.35106352137528
o           -0.62503030311138       -1.65427558992121       -3.98758177904405
h           -1.01654723438765       -2.53308398348806       -3.79681162044321
h           -1.18663160260770       -1.05693613474078       -3.47010305685387
o            4.30842720037662        0.74852791745371        4.54144402435816
h            4.45706437328675        1.07166005437468        5.44869575608587
h            3.33830383788184        0.60726287045986        4.47094978309833
o            5.48625713180123       -3.97971350657362       -0.56847214725878
h            4.64232298469866       -3.61911207212932       -0.89080529415347
h            6.14283157678607       -3.26292590807542       -0.70491575499998
o           -5.89242386891832        5.38697066211257       -2.83363574480378
h           -5.92520733347641        6.00844748795414       -2.10620302989272
h           -5.41380170832314        4.60012545821370       -2.49726392081120
o            0.25134015858166        1.66102625639494       -3.65422318067175
h            0.32039812487464        2.59909134296405       -3.92978012660675
h            0.99758052944717        1.51961631051472       -3.04428350986019
o            5.19282470222503        4.07415654021155        5.31250985712092
h            5.34287515220384        4.64867412300946        4.54467832005814
h            5.89347594352061        3.39820804912448        5.24259919410696
o            8.70776736201872       -0.74939966927294        0.54024273487781
h            8.99876181832146       -1.35380892819739        1.25578649929161
h            9.45780256083288       -0.66137546213954       -0.07497175134437
o           -5.84499784611832        0.12915729701732       -0.44197382119473
h           -5.89090471965928        1.04416911202480       -0.09210478045487
h           -6.74491189592677       -0.19778917524944       -0.58399525931868
o            2.02092718770455       -2.37582975987738        0.36231290818585
h            2.43013586473933       -1.92494657740927        1.11226092780782
h            1.38002801956490       -3.01447300492614        0.72613380683119
o           -2.15974457222512       -1.16480283443301        7.46879513276711
h           -2.98017568960801       -0.70313081296576        7.69617594547155
h           -2.38705379383641       -1.66116791308186        6.65597761727792
o           -4.31196432494875        2.76090926935083       -4.91990049794617
h           -3.60543678339816        2.19955777063137       -4.54371839514713
h           -4.54690578615133        2.33779987420576       -5.76795493626585
o           -4.02212992633874        5.44858666659597       -4.81982826883044
h           -4.06736552774165        4.47328116718230       -4.87688851193665
h           -4.81519330376070        5.66990077536345       -4.30487147440688
o            6.83159949988414       -0.12751932516909        6.24371222982688
h            7.19705785967832        0.10837300124542        7.09615746343953
h            6.79647071134325        0.70186682128311        5.71904971890343
o            5.42419012245957       -3.16586432038062       -6.20199073539772
h            6.09547456517996       -3.61988435705780       -5.68649532152357
h            4.63593675519124       -3.12772766031859       -5.62487879064009
o           -8.43352289986255       -3.10788415635976       -3.10281211112997
h           -8.41216701134399       -3.91061733968424       -2.52043632996112
h           -9.31579580220806       -2.74015857787596       -2.99337279048368
o           -1.26418159141279        2.22193153535587       -1.30797302935019
h           -0.50319065111564        2.78001252937866       -1.07305684404468
h           -1.64793422790961        2.65800144739856       -2.08655376481551
o            0.73372147702752       -3.93677874705746       -1.86231518471962
h            1.53594416619974       -4.12306265247455       -1.34321680258023
h            0.95110079205948       -4.09452691362200       -2.79987528003600
o            1.69456552068316        0.29163489214274        4.43194094721752
h            1.09164722832011        1.05277103202698        4.29655532587813
h            1.60327145915313        0.01692226503003        5.35464599941190
o            0.08884600685706       -7.05528117983176       -3.64164965963850
h            0.35152463118666       -7.96239608077239       -3.79386155061649
h            0.10286605165658       -6.91496895664955       -2.66608082614878
o            6.00736584225407       -1.19707676283851        3.60376195095352
h            5.34900530483499       -0.63489952369579        4.04777559845947
h            6.75048550560956       -0.58941734991557        3.40098365486685
o           -6.42223265106398       -0.72652869009458        2.37495688815830
h           -5.75305360664876       -0.03104866281921        2.15481661148220
h           -6.51466320908894       -1.33117813489733        1.61218333462629
o            5.45619582779010       -1.39815188618334        0.99383493029511
h            5.88163704131911       -1.57237019682035        1.84799223134856
h            4.56163302178532       -1.12245458226178        1.26173945263942
o            2.57272504360996        5.69853481850653       -3.82824130092716
h            3.33133002372893        5.52285411060571       -4.40376594693133
h            1.84662129387607        5.14266582977835       -4.18436025308758
o            2.57677329573461       -5.12442839257039       -0.21874779240512
h            2.75860460626487       -4.76773836306340        0.65976336758927
h            3.33531846695878       -5.67546714404669       -0.46635624773299
o            2.22697202198825       -0.70120942534366        6.91211060651477
h            1.54795096818569       -1.36056791367025        7.21767900736491
h            2.19949141873764        0.02820085788342        7.53323670648852
o            4.81234364482503       -1.81615495580257        7.23845975153697
h            5.46684495670239       -1.22845858272731        6.83177517936789
h            3.97571147694538       -1.33152782946491        7.26224199963074
o           -0.86015321219760        0.96870489362615        6.47097631994166
h           -0.86075186564175        0.56219422744150        5.57513070995571
h           -1.24167721040068        0.26479954723254        7.02946185392717
o            3.67488706485488        4.24026226250083       -1.83074121564937
h            3.20152266737233        4.66385253350149       -2.56660681097753
h            4.07187890912315        3.40658431364704       -2.15090396574551
o            0.00481220845366        5.93954928104590       -2.40265418378864
h            0.20235352242633        6.37266033636319       -1.53721880688159
h            0.66451815364791        6.26485484246501       -3.01992378682029
o           -3.02411304903182       -3.92015469199958       -0.98838111210065
h           -2.74470410815418       -4.68044820446164       -0.43657440879572
h           -3.79744178448470       -4.23659539804110       -1.51089501422354
o           -4.71536537672239        1.17943150647593        2.01828681234910
h           -4.16493963968924        0.99808722200040        1.23127510636566
h           -4.84297969228276        2.14089590547392        2.05683808277281
o            8.74040700089094        2.30223254300558       -0.45350397012537
h            9.52349894973788        1.82398695487597       -0.17288139816060
h            7.97032150313697        1.82015608683129       -0.10696752167598
o           -2.39478540671864        2.16791826446695       -7.51259561500346
h           -3.35040488975919        2.11220000573612       -7.63498491924851
h           -2.13443207857390        1.27677899544444       -7.21566602485150
o           -8.57954746571462        4.60040334088789       -3.31325847600566
h           -8.43044020504868        5.47091631162454       -3.68215051278110
h           -7.78384574193757        4.07289286692901       -3.55085954576183
o            1.49720496119366        2.22456919211103        6.84574961067142
h            0.68933095574611        1.67485905501132        6.73595175425841
h            1.14594561528272        3.11876625944977        6.94280649946680
o          -10.32198673045641        2.42766934636809       -3.52688964378564
h           -9.73482196343184        3.20040082447595       -3.58200477367194
h          -10.71514550078046        2.48655727070440       -2.64564184454516
o           -1.05533368588930       -0.50789900897876        4.26320333617240
h           -1.77837683860723       -1.11449257080045        4.51400746460355
h           -1.30099425889760       -0.12817519270823        3.40481025501160
o            8.54383116332844       -1.99709374491556        5.09078090049226
h            7.95181699475377       -1.30783769506251        5.44030699136412
h            8.01920172560178       -2.80803933727847        5.08430910199265
o           10.21133880432214        3.13774067088952        2.34297423142589
h            9.38264591560551        3.55605071447998        2.04192134455676
h           10.51991748219279        2.58984133232216        1.61437996442249
o          -10.45673453165493       -1.29816706535966        2.04604517627368
h           -9.83717045823600       -0.55100958397881        2.12275334015701
h          -10.19474191466158       -1.88177964201413        2.78438488267279
o           -1.78036223122319       -0.23617162218871       -6.31979180206853
h           -2.09209371830168        0.19579648023457       -5.49004074765003
h           -0.82585511707971       -0.06733472675283       -6.34375002164551
o           -2.25976688814561       -3.81051061037182        2.11962336564751
h           -2.41333878379758       -2.84770352109826        2.24966414758270
h           -1.35893201872245       -3.90613341150036        1.74949602548678
o            3.31657043329855        7.16756646661405       -1.43899209339458
h            2.46744326087810        7.31215911999915       -1.00550419011202
h            3.11503153269649        6.78404747529590       -2.30100135751966
o           -5.98632908090593        2.75445370894974        0.09365016341167
h           -6.76618516855302        2.84440831660441       -0.49153505729703
h           -5.24168281569189        3.08603737798637       -0.43718871033914
o           -8.61353989526093        0.62802383763381        2.48417926112489
h           -7.78283022193179        0.08098709518647        2.38411655720848
h           -8.33747115837411        1.54439051391597        2.34461205947392
o           -5.68327389532234        5.74801990211556        0.74844761576129
h           -6.43335137973278        5.43074483945143        0.21338223070287
h           -5.34803402322487        4.96942079145156        1.23762907647623
o           -7.93665135996066        2.14638973786410       -1.59148878164610
h           -7.99109129530984        1.18157100027734       -1.46469913750964
h           -7.53896404335707        2.30414292922820       -2.46813374061376
o            6.45707121773206        0.97301452572675        0.34356808982487
h            6.35560378094595        1.43212696933138        1.19798067685480
h            6.26029893938793        0.02941606347066        0.55257517783363
o            3.81616088054795        1.19705407774069        0.06101241003966
h            3.44995418492321        1.42684028502203        0.92414310996085
h            4.77801491970988        1.36527759533366        0.11855420300071
o            3.34982828901276       -2.78269992902924       -1.81907291173182
h            2.83607175457738       -2.67356460545455       -0.98107429247896
h            3.91974624483735       -1.98145028686688       -1.88355724194897
o           -0.00882896818096        4.36152037945099        6.09185079921580
h           -0.95378690321065        4.09066960967990        6.14031594281929
h            0.04096718139913        5.25416826853376        5.75042465789249
o           -4.46154946357077        0.29097916060373        7.23910765817701
h           -4.82998069278863        1.01936236192634        7.73683772029907
h           -5.21433613472913       -0.31975217913409        7.02519056492352
o           -3.01682199260809        0.68226582100142        0.04494025903042
h           -2.73154420657532        1.56416211098140       -0.24569681390485
h           -2.34348492727828        0.41887507573775        0.70098149346486
o            6.01261715246708       -1.48127604057135       -3.85120804149636
h            5.05831236870471       -1.42682421822346       -3.96598808424704
h            6.20857828638609       -2.43448247433581       -3.73160141269273
o           -2.83861795074110       -2.35773588025614        5.14664092290964
h           -3.75187565681194       -2.26773731870577        4.81504280067441
h           -2.59637778021589       -3.28840618361147        5.01564475846347
o            4.91691906312258       -0.50762517420384       -6.54732307715865
h            5.73305447550397       -0.01117928416280       -6.64829025839097
h            5.18943864533899       -1.44739317851489       -6.50363175111235
o            2.27717282703033       -1.32615782136279       -6.83067542656989
h            3.11617583719057       -0.98120940816618       -7.15956911015636
h            1.74009707555875       -0.55045303083055       -6.56002427668026
o           -6.80385340775848       -0.45337981523650       -4.35180506115232
h           -7.70434693711358       -0.38713783938238       -3.99524340693307
h           -6.70696062214766       -1.36121379851044       -4.69271962902305
o            4.77912449700666       -0.61824892034059       -1.65660224330538
h            4.36246272216341       -0.22532345169516       -0.87578393194750
h            5.58786085987456       -1.07631945254211       -1.35414269906650
o            4.83168357343047       -6.50509797537623       -1.16555845906316
h            5.32490491097122       -5.69757457099587       -0.92816815068707
h            4.51796226003693       -6.32663565443344       -2.06439148747206
o          -11.01571213789465       -1.92288272820055       -2.32094976116919
h          -11.14448900904728       -1.19942936242058       -1.66976247278413
h          -11.86106723796496       -2.35936581560490       -2.42508129670825
o           -2.39259613142202        3.19526983385214        5.95585053243342
h           -2.02077960731797        2.39952664057907        6.38025167185890
h           -2.43640377675774        2.93298846978593        5.00733802053384
o            3.52555078620991        0.59715819799743       -4.45095135285406
h            4.05448618193651        0.16759523865111       -5.14789115549373
h            2.89739687278797       -0.06233142751713       -4.09978250703398
o           -1.53648563064936        6.62859360281847        1.20664320975136
h           -1.65528389352784        6.06709580411279        1.98736697021814
h           -2.18146563480991        6.29930407096899        0.54880682388317
o            7.52204828262670        0.02359576991081       -5.50025768440211
h            6.97330291553745       -0.56839175836643       -4.94317271598721
h            8.39726756782614        0.03807719016715       -5.09777930664313
o            0.35868913782210       -4.08747365857602        1.63342107165607
h            0.76548884207999       -4.95819923249298        1.79402968445543
h            0.50504801374310       -3.55160685219243        2.43605216309037
o           -7.12168030187131       -2.56050327074399        0.53890744690189
h           -6.65869383852614       -2.47406689306317       -0.30745548477544
h           -8.06829353564734       -2.66712827195175        0.32141335218033
o           -7.62284824697458        1.28947702396633       -6.18494967847870
h           -8.56425436323353        1.14525672734651       -6.27767494317556
h           -7.27257431467185        0.56953432156005       -5.60725747107523
o            0.74905544990458        4.01739502417782       -4.74647780593581
h            1.43902103419203        3.56218689091101       -5.28715515187302
h           -0.03058895316199        4.17113059901481       -5.30886640455904
o            7.81257265057249        0.54898377736688        2.76667598231575
h            8.57678378327145        0.73540496917146        3.34208496013120
h            8.15068245050360        0.22725594141599        1.91852197560543
o           11.38455648787420        1.25515858994986        0.47576630405984
h           11.25181541168974        0.51736732200036       -0.16321210235740
h           12.16357686149881        1.73077585132392        0.18563215997739
o            0.76031955305988        6.91798471696992       -0.07853445011393
h            1.41325507338235        6.67109314317548        0.60247462190410
h           -0.09708713909263        6.93665254123789        0.40340156917348
o            5.40953566061920        2.18119927293480        2.51428549153191
h            5.30122212886808        3.13631500872192        2.64623319889034
h            4.94243665555502        1.71230079513767        3.22957967276915
o           -2.59353686337929       -6.32044722310752       -4.01040836052589
h           -1.70760184427367       -6.71025673394230       -4.00899126975749
h           -3.04602354049910       -6.68570928321935       -3.21600588282848
o            5.58701333175335       -4.82851652382416        1.92512677639237
h            5.61305442663735       -4.49093592554401        1.00143076259006
h            4.69917571992429       -4.53251642868638        2.22790295020164
o            1.49329503665659       -6.50297705727292        2.29534778294459
h            1.73026256877130       -6.34524111460723        3.22138193682945
h            2.32376983920726       -6.81926495162854        1.89018066053484
o           -8.44783892373423       -5.06397182707948       -1.34901020914289
h           -8.88262483249602       -4.65643187108999       -0.59150502062171
h           -7.64656951037354       -5.51449295518158       -1.01379932744265
o           -6.42253894893565       -1.24264644061089        6.40424980083227
h           -6.02112323277765       -1.73349656917135        5.65417883352176
h           -7.15689147520489       -0.74041828050614        6.02942245080806
o           -2.32019164413925       -4.96033425079454        4.40825073231561
h           -2.30732230703365       -4.53507082114946        3.49149533576948
h           -3.14644007288266       -5.43792530428504        4.47896032145506
o           -2.04368979469271       -3.77698560328238       -3.46724566641900
h           -2.19558001520054       -4.70074344927904       -3.75556374166995
h           -2.22378577658393       -3.77577271419483       -2.50845813627258
o            7.95311665583323       -5.02228567964697       -1.55853722070364
h            7.99313037652103       -4.60720762015697       -0.68218636870881
h            7.86631559598655       -5.96396048508123       -1.41177707241935
o           -4.79777276557683        0.76454357036800       -2.80085151844535
h           -5.12852969479034        0.46200369673640       -1.93155764519588
h           -5.44729041191647        0.47896766366279       -3.45536797562108
o           -3.65275191920863       -7.26724252826655       -1.73422238930376
h           -4.57608611164430       -7.20469441966973       -1.46212829804793
h           -3.13635571341823       -6.95376586304979       -0.96834136756010
o            9.54520901322353       -2.12137779178461        2.64601746051022
h           10.37315846100886       -1.62988878838389        2.74719338162334
h            9.12049179672730       -2.06179506561279        3.53646444969707
o            0.18411780391822       -6.37195781282832       -1.05833324451113
h            0.93859008542058       -6.47459044780655       -0.46584148288039
h            0.22583609054763       -5.42088417076604       -1.32693282059095
o           -1.22979188090326       -6.92304096680079        2.61887649072853
h           -1.38692804362506       -6.37161155196042        3.39430286078642
h           -0.27144498271623       -6.93470318791837        2.47145599930575
o           -2.89025188625099       -1.22679570558175        2.35786546274421
h           -3.48339017192142       -1.39040264980236        1.59770785386926
h           -3.43262203563116       -0.81160418460165        3.04037229022327
o            0.06734083365205       -4.21444763829607        5.62911088664744
h           -0.76967343739196       -4.63822500677895        5.40657822449331
h            0.21465261798530       -3.53173004553636        4.92615531366577
o            7.09241532428674       -1.98352114467479       -1.16813930442348
h            7.71365218304996       -2.21651838355799       -1.87781856848158
h            7.61946777698808       -1.58777302739129       -0.44365763003853
o            5.64689147269810        4.93371687046431        2.76898276640166
h            6.57527147856556        4.77363789841604        2.52499517983823
h            5.30652919847586        5.48283050371919        2.04462526370590
o           -8.48196803636792        0.17290990175819        5.08288307912516
h           -9.33117655728061        0.22368070994780        5.52034545463846
h           -8.64605673884447        0.31844555945580        4.11532954759199
o            0.21544041611203        3.39085870530632        1.48323776168940
h            0.41787283553092        4.04022181135984        2.18923927518859
h            0.55300281899415        3.73966909194444        0.64156430997773
o           -9.72138264767856       -2.98583143008318        0.07514777902778
h          -10.08928380994600       -2.43141693552015        0.79462411097725
h          -10.12743601870613       -2.69274031247520       -0.74913041479772
o           -7.00263384401637       -4.04571582095029        2.82466188233606
h           -6.39013421394195       -4.73663343204923        2.54387481708682
h           -7.10471613884507       -3.49827382884057        2.02138081286209
o          -10.44473736296809        2.47817036348249       -0.72088576401812
h          -10.43661735312111        3.07517375679463        0.03845252523224
h           -9.51085428301095        2.44989465920617       -1.02923368621083
o            6.47760898232628       -4.10906230797314       -3.68153201373842
h            5.59640199478227       -4.51203010718687       -3.58704393340463
h            6.99251027165541       -4.41850653266387       -2.91342143190131
o            2.30965079961714       -5.37715280792340        4.67039708109433
h            3.06727964272665       -5.14983983891299        5.23062679561798
h            1.51864796360447       -5.03941012335835        5.13659904324159
o           -4.38247996200635       -4.54959783810146       -5.21301081055206
h           -3.90381834451526       -5.37869414568079       -5.07945346924330
h           -3.73889245371635       -3.94055701320670       -5.61901756758417
o           -2.47670561121869        3.35590862834887        0.92445466083181
h           -2.72039152111026        4.02317332534154        0.25863435020467
h           -1.54798411948269        3.51885727603073        1.15337500369307
o            5.13285329848907        2.09229674908270       -2.41750508581109
h            5.05171979611618        1.13668078544209       -2.27673492827124
h            5.61819333446027        2.19060448386216       -3.26339327843216
o            0.25556976908916       -3.06451446998340       -6.16730514771544
h            0.94496763942853       -2.62258193458453       -6.68062665379127
h           -0.06490800467800       -2.40090894885061       -5.53128283792364
o           -2.15712515136804       -6.12341583858730        0.23274350630695
h           -1.30742538590096       -6.27439663157988       -0.22355527135915
h           -1.99568460984603       -6.42517178749155        1.14830674376365
o            9.65844326401793        0.22790430605573       -3.54705701891448
h           10.02946968829506        1.09032383924302       -3.73707730198493
h            8.79419830620002        0.40908136384645       -3.06732230522306
o           10.77061518533385       -0.66664669765045       -1.20690050172751
h           10.78115002065661       -1.65179592275148       -1.15766639339518
h           10.46294777757825       -0.42424712633955       -2.10018027285152
o           -4.78655463771756       -4.56728855726041        1.35547624624308
h           -4.93614531893904       -3.65834745128930        1.04718705994524
h           -3.83869877925671       -4.58811747872802        1.55589903634822
o           -6.90386298498013        5.50611840215835        3.27285743725390
h           -6.22748621213230        5.40491697834758        3.95114426142449
h           -6.47558956751358        5.90365388377630        2.49381908573104
o           -8.42565668319214       -0.45844671446663       -1.12459778696336
h           -9.25887796268853       -0.40817439973103       -0.62600561272105
h           -8.69747788877354       -0.51671369436093       -2.05839760832765
o           -6.02786092645300       -6.05808478694891       -0.58603210432963
h           -5.60655574124003       -5.62135500546707        0.17737904214312
h           -5.69517604951811       -5.58076468513300       -1.36679668509255
o           -9.67690045950545        4.13447505221545        1.34540964857681
h           -8.89321810051311        3.69691721701112        1.74539730856739
h           -9.90482331545978        4.86290334193414        1.92264479352253
o            4.86072396013625        4.52195562756606       -4.89467805578590
h            5.33471901386019        5.01624549380771       -4.20318704934047
h            5.43086266534064        3.74436399530869       -5.02436580165395
o            5.25708196626343        6.33766431711025        0.39234866339900
h            4.57674052078321        6.66002252100255       -0.22139215435995