      -----------------------------------------------------------      
     |                   =====================                   |     
     |                           x T B                           |     
     |                   =====================                   |     
     |                         S. Grimme                         |     
     |          Mulliken Center for Theoretical Chemistry        |     
     |                    University of Bonn                     |     
      -----------------------------------------------------------      

   * xtb version 6.5.1 (579679a) compiled by 'ehlert@majestix' on 2022-07-11

   xtb is free software: you can redistribute it and/or modify it under
   the terms of the GNU Lesser General Public License as published by
   the Free Software Foundation, either version 3 of the License, or
   (at your option) any later version.
   
   xtb is distributed in the hope that it will be useful,
   but WITHOUT ANY WARRANTY; without even the implied warranty of
   MERCHANTABILITY or FITNESS FOR A PARTICULAR PURPOSE.  See the
   GNU Lesser General Public License for more details.
   
   Cite this work as:
   * C. Bannwarth, E. Caldeweyher, S. Ehlert, A. Hansen, P. Pracht,
     J. Seibert, S. Spicher, S. Grimme, WIREs Comput. Mol. Sci., 2020, 11,
     e01493. DOI: 10.1002/wcms.1493
   
   for GFN2-xTB:
   * C. Bannwarth, S. Ehlert and S. Grimme., J. Chem. Theory Comput., 2019,
     15, 1652-1671. DOI: 10.1021/acs.jctc.8b01176
   for GFN1-xTB:
   * S. Grimme, C. Bannwarth, P. Shushkov, J. Chem. Theory Comput., 2017,
     13, 1989-2009. DOI: 10.1021/acs.jctc.7b00118
   for GFN0-xTB:
   * P. Pracht, E. Caldeweyher, S. Ehlert, S. Grimme, ChemRxiv, 2019, preprint.
     DOI: 10.26434/chemrxiv.8326202.v1
   for GFN-FF:
   * S. Spicher and S. Grimme, Angew. Chem. Int. Ed., 2020, 59, 15665-15673.
     DOI: 10.1002/anie.202004239
   
   for ALPB and GBSA implicit solvation:
   * S. Ehlert, M. Stahn, S. Spicher, S. Grimme, J. Chem. Theory Comput.,
     2021, 17, 4250-4261. DOI: 10.1021/acs.jctc.1c00471
   
   for DFT-D4:
   * E. Caldeweyher, C. Bannwarth and S. Grimme, J. Chem. Phys., 2017,
     147, 034112. DOI: 10.1063/1.4993215
   * E. Caldeweyher, S. Ehlert, A. Hansen, H. Neugebauer, S. Spicher,
     C. Bannwarth and S. Grimme, J. Chem. Phys., 2019, 150, 154122.
     DOI: 10.1063/1.5090222
   * E. Caldeweyher, J.-M. Mewes, S. Ehlert and S. Grimme, Phys. Chem. Chem. Phys.
     2020, 22, 8499-8512. DOI: 10.1039/D0CP00502A
   
   for sTDA-xTB:
   * S. Grimme and C. Bannwarth, J. Chem. Phys., 2016, 145, 054103.
     DOI: 10.1063/1.4959605
   
   in the mass-spec context:
   * V. Asgeirsson, C. Bauer and S. Grimme, Chem. Sci., 2017, 8, 4879.
     DOI: 10.1039/c7sc00601b
   * J. Koopman and S. Grimme, ACS Omega 2019, 4, 12, 15120-15133.
     DOI: 10.1021/acsomega.9b02011
   
   for metadynamics refer to:
   * S. Grimme, J. Chem. Theory Comput., 2019, 155, 2847-2862
     DOI: 10.1021/acs.jctc.9b00143
   
   for SPH calculations refer to:
   * S. Spicher and S. Grimme, J. Chem. Theory Comput., 2021, 17, 1701-1714
     DOI: 10.1021/acs.jctc.0c01306
   
   with help from (in alphabetical order)
   P. Atkinson, C. Bannwarth, F. Bohle, G. Brandenburg, E. Caldeweyher
   M. Checinski, S. Dohm, S. Ehlert, S. Ehrlich, I. Gerasimov, C. Hölzer
   A. Katbashev, J. Koopman, C. Lavigne, S. Lehtola, F. März, M. Müller,
   F. Musil, H. Neugebauer, J. Pisarek, C. Plett, P. Pracht, F. Pultar,
   J. Seibert, P. Shushkov, S. Spicher, M. Stahn, M. Steiner, T. Strunk,
   J. Stückrath, T. Rose, and J. Unsleber
   
 * started run on 2022/10/12 at 01:16:59.070     

           -------------------------------------------------
          |                Calculation Setup                |
           -------------------------------------------------

          program call               : xtb solute --gfn2 --sp --lmo
          hostname                   : cn0943
          coordinate file            : solute
          omp threads                :                    24

   ID    Z sym.   atoms
    1    1 h      1, 3, 4, 6, 8, 9, 11-13, 15, 16
    2    6 c      2, 5, 7, 10
    3    7 n      14

           -------------------------------------------------
          |                 G F N 2 - x T B                 |
           -------------------------------------------------

        Reference                      10.1021/acs.jctc.8b01176
      * Hamiltonian:
        H0-scaling (s, p, d)           1.850000    2.230000    2.230000
        zeta-weighting                 0.500000
      * Dispersion:
        s8                             2.700000
        a1                             0.520000
        a2                             5.000000
        s9                             5.000000
      * Repulsion:
        kExp                           1.500000    1.000000
        rExp                           1.000000
      * Coulomb:
        alpha                          2.000000
        third order                    shell-resolved
        anisotropic                    true
        a3                             3.000000
        a5                             4.000000
        cn-shift                       1.200000
        cn-exp                         4.000000
        max-rad                        5.000000


          ...................................................
          :                      SETUP                      :
          :.................................................:
          :  # basis functions                  31          :
          :  # atomic orbitals                  31          :
          :  # shells                           21          :
          :  # electrons                        32          :
          :  max. iterations                   250          :
          :  Hamiltonian                  GFN2-xTB          :
          :  restarted?                      false          :
          :  GBSA solvation                  false          :
          :  PC potential                    false          :
          :  electronic temp.          300.0000000     K    :
          :  accuracy                    1.0000000          :
          :  -> integral cutoff          0.2500000E+02      :
          :  -> integral neglect         0.1000000E-07      :
          :  -> SCF convergence          0.1000000E-05 Eh   :
          :  -> wf. convergence          0.1000000E-03 e    :
          :  Broyden damping             0.4000000          :
          ...................................................

 iter      E             dE          RMSdq      gap      omega  full diag
   1    -17.2871300 -0.172871E+02  0.278E+00   10.84       0.0  T
   2    -17.3216272 -0.344972E-01  0.151E+00   11.07       1.0  T
   3    -17.3227123 -0.108514E-02  0.701E-01   11.16       1.0  T
   4    -17.3228190 -0.106638E-03  0.142E-01   11.12       1.0  T
   5    -17.3228952 -0.762250E-04  0.562E-02   11.11       1.0  T
   6    -17.3228972 -0.201201E-05  0.188E-02   11.11       1.3  T
   7    -17.3228974 -0.134719E-06  0.197E-03   11.11      12.7  T
   8    -17.3228974 -0.600454E-08  0.820E-04   11.11      30.5  T
   9    -17.3228974 -0.133242E-08  0.180E-04   11.11     139.1  T

   *** convergence criteria satisfied after 9 iterations ***

         #    Occupation            Energy/Eh            Energy/eV
      -------------------------------------------------------------
         1        2.0000           -0.6281291             -17.0923
       ...           ...                  ...                  ...
        10        2.0000           -0.4634092             -12.6100
        11        2.0000           -0.4579745             -12.4621
        12        2.0000           -0.4514718             -12.2852
        13        2.0000           -0.4321221             -11.7586
        14        2.0000           -0.4268695             -11.6157
        15        2.0000           -0.4199282             -11.4268
        16        2.0000           -0.3619880              -9.8502 (HOMO)
        17                          0.0463407               1.2610 (LUMO)
        18                          0.0917688               2.4972
        19                          0.1092664               2.9733
        20                          0.1290322               3.5111
        21                          0.1392860               3.7902
       ...                                ...                  ...
        31                          0.2990919               8.1387
      -------------------------------------------------------------
                  HL-Gap            0.4083287 Eh           11.1112 eV
             Fermi-level           -0.1578236 Eh           -4.2946 eV
 
 localization/xTB-IFF output generation
 averaging CT terms over            1  occ. levels
 averaging CT terms over            1  virt. levels
 dipole moment from electron density (au)
     X       Y       Z   
  -0.0973  -0.4665  -0.1672  total (Debye):    1.284
cpu  time for init local    0.12 s
wall time for init local    0.01 s
 doing rotations ...
 initialization of trafo matrix to unity

 converged in     10 iterations, threshold :   0.93133141D-06
 doing transformations ...
 lmo centers(Z=2) and atoms on file <lmocent.coord>
 LMO Fii/eV  ncent    charge center   contributions...
    1 sigma -15.02   1.93  -2.67924  -0.47448   0.14293   14N :  0.55    7C :  0.46
    2 sigma -14.22   1.96  -4.63657  -0.26369   0.33356   14N :  0.56   16H :  0.44
    3 sigma -14.16   1.95  -3.83738   0.11445  -1.34458   14N :  0.56   15H :  0.44
    4 sigma -14.00   1.96   2.07272  -0.82596  -0.32100    2C :  0.51    5C :  0.50
    5 sigma -13.99   1.96  -0.27191  -0.61811  -0.02630    7C :  0.51    5C :  0.50
    6 sigma -13.85   1.96   1.08747   1.31182  -0.18428    5C :  0.51   10C :  0.50
    7 sigma -13.63   1.97  -1.51021  -2.55054   0.22028    9H :  0.51    7C :  0.50
    8 sigma -13.55   1.98  -1.34650  -1.11159   1.92268    7C :  0.51    8H :  0.49
    9 sigma -13.54   1.97   3.09982  -2.87880  -0.48465    2C :  0.51    1H :  0.49
   10 sigma -13.50   1.97   4.33740  -1.06437  -0.58918    2C :  0.52    4H :  0.49
   11 sigma -13.46   1.97   3.43278  -1.66334   1.32146    2C :  0.52    3H :  0.49
   12 sigma -13.46   1.99   0.73612  -0.02727  -1.98410    5C :  0.51    6H :  0.50
   13 sigma -13.32   1.97   2.26905   3.27563  -0.40525   10C :  0.51   13H :  0.49
   14 sigma -13.23   1.97   1.52403   2.70271   1.58549   10C :  0.52   11H :  0.49
   15 sigma -13.12   1.97   0.12425   3.36888   0.04239   10C :  0.52   12H :  0.48
   16 LP    -10.76   1.01  -3.42891   1.87830   0.31667   14N :  1.00
 files:
 coordprot.0/xtbscreen.xyz/xtblmoinfo/lmocent.coord
 with protonation site input, xtbdock and
 LMO center info written
 

 SCC (total)                   0 d,  0 h,  0 min,  0.029 sec
 SCC setup                      ...        0 min,  0.000 sec (  1.434%)
 Dispersion                     ...        0 min,  0.001 sec (  3.714%)
 classical contributions        ...        0 min,  0.000 sec (  0.694%)
 integral evaluation            ...        0 min,  0.001 sec (  2.861%)
 iterations                     ...        0 min,  0.005 sec ( 18.677%)
 molecular gradient             ...        0 min,  0.002 sec (  5.200%)
 printout                       ...        0 min,  0.019 sec ( 66.195%)

         :::::::::::::::::::::::::::::::::::::::::::::::::::::
         ::                     SUMMARY                     ::
         :::::::::::::::::::::::::::::::::::::::::::::::::::::
         :: total energy             -17.083932601909 Eh    ::
         :: gradient norm              0.000255384848 Eh/a0 ::
         :: HOMO-LUMO gap             11.111189910815 eV    ::
         ::.................................................::
         :: SCC energy               -17.322897358296 Eh    ::
         :: -> isotropic ES            0.013321102882 Eh    ::
         :: -> anisotropic ES          0.005765249191 Eh    ::
         :: -> anisotropic XC          0.013385760582 Eh    ::
         :: -> dispersion             -0.008365260270 Eh    ::
         :: repulsion energy           0.238946326054 Eh    ::
         :: add. restraining           0.000000000000 Eh    ::
         :: total charge               0.000000000000 e     ::
         :::::::::::::::::::::::::::::::::::::::::::::::::::::

           -------------------------------------------------
          |                Property Printout                |
           -------------------------------------------------

    * Orbital Energies and Occupations

         #    Occupation            Energy/Eh            Energy/eV
      -------------------------------------------------------------
         1        2.0000           -0.6281291             -17.0923
       ...           ...                  ...                  ...
         4        2.0000           -0.5716157             -15.5545
         5        2.0000           -0.5502472             -14.9730
         6        2.0000           -0.5142820             -13.9943
         7        2.0000           -0.5105816             -13.8936
         8        2.0000           -0.5061056             -13.7718
         9        2.0000           -0.4827731             -13.1369
        10        2.0000           -0.4634092             -12.6100
        11        2.0000           -0.4579745             -12.4621
        12        2.0000           -0.4514718             -12.2852
        13        2.0000           -0.4321221             -11.7586
        14        2.0000           -0.4268695             -11.6157
        15        2.0000           -0.4199282             -11.4268
        16        2.0000           -0.3619880              -9.8502 (HOMO)
        17                          0.0463407               1.2610 (LUMO)
        18                          0.0917688               2.4972
        19                          0.1092664               2.9733
        20                          0.1290322               3.5111
        21                          0.1392860               3.7902
        22                          0.1477185               4.0196
        23                          0.1827020               4.9716
        24                          0.1939838               5.2786
        25                          0.2083763               5.6702
        26                          0.2294891               6.2447
        27                          0.2389740               6.5028
       ...                                ...                  ...
        31                          0.2990919               8.1387
      -------------------------------------------------------------
                  HL-Gap            0.4083287 Eh           11.1112 eV
             Fermi-level           -0.1578236 Eh           -4.2946 eV

     #   Z          covCN         q      C6AA      α(0)
     1   1 h        0.925     0.030     2.581     2.512
     2   6 c        3.756    -0.107    22.608     6.780
     3   1 h        0.925     0.035     2.514     2.479
     4   1 h        0.925     0.038     2.478     2.462
     5   6 c        3.851    -0.013    20.771     6.482
     6   1 h        0.924     0.027     2.629     2.536
     7   6 c        3.735     0.021    20.302     6.431
     8   1 h        0.924     0.033     2.547     2.496
     9   1 h        0.923    -0.002     3.086     2.747
    10   6 c        3.756    -0.112    22.690     6.792
    11   1 h        0.925     0.036     2.497     2.471
    12   1 h        0.925     0.053     2.282     2.362
    13   1 h        0.925     0.033     2.550     2.497
    14   7 n        2.630    -0.340    28.763     7.965
    15   1 h        0.860     0.134     1.517     1.930
    16   1 h        0.860     0.134     1.518     1.930

 Mol. C6AA /au·bohr⁶  :       1662.279463
 Mol. C8AA /au·bohr⁸  :      33703.309249
 Mol. α(0) /au        :         60.871096


Wiberg/Mayer (AO) data.
largest (>0.10) Wiberg bond orders for each atom

 ---------------------------------------------------------------------------
     #   Z sym  total        # sym  WBO       # sym  WBO       # sym  WBO
 ---------------------------------------------------------------------------
     1   1 h    0.999 --     2 c    0.987
     2   6 c    3.997 --     5 c    1.009     3 h    0.987     1 h    0.987
                             4 h    0.987
     3   1 h    0.999 --     2 c    0.987
     4   1 h    0.998 --     2 c    0.987
     5   6 c    3.996 --    10 c    1.010     2 c    1.009     7 c    0.993
                             6 h    0.968
     6   1 h    0.999 --     5 c    0.968
     7   6 c    3.986 --    14 n    1.024     5 c    0.993     8 h    0.975
                             9 h    0.969
     8   1 h    0.999 --     7 c    0.975
     9   1 h    1.000 --     7 c    0.969
    10   6 c    3.996 --     5 c    1.010    13 h    0.987    11 h    0.987
                            12 h    0.984
    11   1 h    0.999 --    10 c    0.987
    12   1 h    0.997 --    10 c    0.984
    13   1 h    0.999 --    10 c    0.987
    14   7 n    3.002 --     7 c    1.024    16 h    0.969    15 h    0.969
    15   1 h    0.982 --    14 n    0.969
    16   1 h    0.982 --    14 n    0.969
 ---------------------------------------------------------------------------

Topologies differ in total number of bonds
Writing topology from bond orders to xtbtopo.mol

molecular dipole:
                 x           y           z       tot (Debye)
 q only:        0.005      -0.094      -0.051
   full:       -0.097      -0.467      -0.167       1.284
molecular quadrupole (traceless):
                xx          xy          yy          xz          yz          zz
 q only:        0.722       0.850      -0.739       0.450      -0.200       0.017
  q+dip:        0.765       3.265      -1.875       0.894      -0.074       1.111
   full:        1.221       3.030      -1.922       0.959      -0.239       0.701


           -------------------------------------------------
          | TOTAL ENERGY              -17.083932601909 Eh   |
          | GRADIENT NORM               0.000255384848 Eh/α |
          | HOMO-LUMO GAP              11.111189910815 eV   |
           -------------------------------------------------

------------------------------------------------------------------------
 * finished run on 2022/10/12 at 01:16:59.155     
------------------------------------------------------------------------
 total:
 * wall-time:     0 d,  0 h,  0 min,  0.085 sec
 *  cpu-time:     0 d,  0 h,  0 min,  1.160 sec
 * ratio c/w:    13.581 speedup
 SCF:
 * wall-time:     0 d,  0 h,  0 min,  0.030 sec
 *  cpu-time:     0 d,  0 h,  0 min,  0.593 sec
 * ratio c/w:    20.086 speedup

