612
 energy: -1033.452907728141 gnorm: 0.000292050007 xtb: 6.5.1 (579679a)
H           -2.35543393980000       -0.47094183610000       -1.21456778570000
C           -1.30302419680000       -0.53326062670000       -1.49198741750000
H           -1.13292768480000       -1.42493356820000       -2.09037150690000
C           -0.43930480490000       -0.57575232200000       -0.25110179220000
H            0.58183328440000       -0.35507469020000       -0.54524313700000
H           -0.48333742760000       -1.56336303370000        0.19361230930000
O           -0.95559505680000        0.57380537400000       -2.30829929480000
H           -0.69324328540000        1.33099250680000       -1.73997293500000
N           -0.89721779490000        0.43042444830000        0.73159539350000
H           -0.07357369190000        0.96785873870000        1.04880947230000
H           -1.29599092550000       -0.04789849020000        1.57146097960000
H           -1.60297662440000        1.07881124220000        0.30308490340000
O            2.20053987540000        6.00635473580000        3.30482110570000
H            1.70333481660000        5.44822774510000        3.93079959770000
H            3.04972705980000        6.16560218250000        3.72470336770000
O            3.52903539750000        4.31086999390000       -3.28897616970000
H            3.51073594750000        5.25622889990000       -3.51440619520000
H            3.87601526150000        4.19443392930000       -2.38269864060000
O            6.26661585780000        3.44188785200000        0.58892250230000
H            6.93113720010000        4.10292938030000        0.31360110430000
H            6.75120258710000        2.58197025090000        0.54186573930000
O           -3.23497630390000        2.01908276430000        2.17385532270000
H           -2.37223035730000        1.97377154790000        2.61143788120000
H           -3.59332515010000        1.11037271450000        2.12403423900000
O           -5.29742231070000        1.19229516510000       -0.23032260510000
H           -5.06377754620000        0.70465872180000       -1.05364609510000
H           -5.69536591440000        0.52558504630000        0.35218902320000
O           -1.63708564300000       -3.83811241930000       -3.92202997050000
H           -1.03890492900000       -4.20988470720000       -4.61193961840000
H           -2.50251662420000       -3.74903833110000       -4.36147869290000
O            1.59110543540000        1.21828080000000        1.36923309610000
H            2.43888941460000        1.36546125630000        0.91238181470000
H            1.72200627530000        1.48276148230000        2.30347190160000
O            4.61728434350000        6.53287312180000       -0.07505144150000
H            5.01251925300000        7.39255031200000        0.06997790260000
H            4.72529762110000        6.04297846190000        0.76837837100000
O            2.34867587920000       -1.28714762400000        1.13907519050000
H            1.62951146240000       -1.89848057760000        1.36444080770000
H            1.98745279500000       -0.38958565160000        1.28944120670000
O           -1.72846294530000       -3.93059690840000       -1.04637819850000
H           -0.77338377690000       -3.95477136400000       -0.88354068370000
H           -1.84997565590000       -3.63600341850000       -1.95887158380000
O            1.04826013030000        4.59525192040000       -2.37721612050000
H            1.26732787030000        5.38145657250000       -1.83710576290000
H            1.91706247470000        4.31749141130000       -2.74274575420000
O            6.06236709520000        2.99263705700000       -3.14330986750000
H            5.98556870790000        3.87452478140000       -2.73651538900000
H            5.65089736750000        3.03813424420000       -4.02672187340000
O           -4.09932037670000       -0.50427585060000        2.06865972750000
H           -4.11806907360000       -0.90429213090000        2.95539975690000
H           -3.55880486970000       -1.11080797160000        1.51268831600000
O            0.60020498700000        1.41204274990000        7.43635309430000
H            0.36051761500000        1.03216778590000        6.55781215930000
H           -0.20945617480000        1.40508549620000        7.95094185940000
O           -0.95383025530000        2.03137285000000        3.61582677190000
H           -0.36118923170000        1.33331579100000        3.96855575120000
H           -1.11652251660000        2.63183340900000        4.36441048520000
O            4.98962297870000       -1.68654462510000       -2.34866108540000
H            5.18713372530000       -2.51253912550000       -1.87969338950000
H            4.05123609410000       -1.48394649390000       -2.11708674610000
O           -2.40697693080000       -5.67693047130000        5.25630106210000
H           -2.47345616190000       -5.14818290300000        6.06162489980000
H           -3.25519199890000       -5.54035794120000        4.80852371050000
O            0.30378408800000       -2.78576007910000        2.09912615990000
H            0.99084008340000       -3.13895704450000        2.69159768710000
H           -0.15667713720000       -3.57702980140000        1.74457684980000
O            0.05933331090000        0.13922623360000        5.17625943290000
H           -0.53041574260000       -0.63131724130000        5.14284313700000
H            0.92727870330000       -0.23887267200000        4.92936863330000
O           -1.44499031580000       -1.36110514460000        7.94788112410000
H           -1.76669507840000       -0.45049472680000        7.98352439370000
H           -1.08073605940000       -1.48451783410000        7.05673220970000
O            4.51876761240000        2.48257933030000        2.63433062550000
H            5.48341274320000        2.35835906860000        2.63021790840000
H            4.14491047390000        1.67483485140000        3.02889227230000
O           -1.95056068890000        3.96164440540000       -2.28006466290000
H           -2.23613821380000        3.27907156390000       -1.64567793170000
H           -1.57588807220000        4.70539146400000       -1.77617867170000
O           -4.49008474620000        2.90871708960000        4.25575159050000
H           -4.10089595850000        2.74278209830000        3.36421075860000
H           -4.22757319940000        2.12679616320000        4.76300732740000
O           -2.59567179900000       -2.22429853390000        0.85049731170000
H           -2.46536958670000       -2.76268199660000        0.05489120570000
H           -2.56354651760000       -2.84525909310000        1.60009646150000
O            2.60827269530000       -1.00369932200000       -1.51736291890000
H            2.63476769300000       -0.03773386100000       -1.67480942740000
H            2.62342205910000       -1.15304009690000       -0.54853666170000
O            8.56267979210000        2.31956405090000       -2.37182810630000
H            9.04525670290000        1.87651480710000       -3.08429656940000
H            7.68206211200000        2.55928868980000       -2.72660942250000
O           -2.68088650310000        2.12231463770000       -0.41232097750000
H           -3.57734993750000        1.75416635980000       -0.32566442920000
H           -2.65221377340000        2.86887311450000        0.22688965480000
O            2.59333554160000        1.63714807240000       -1.98003035650000
H            1.72655906570000        1.87679277770000       -1.60290881130000
H            3.22484354900000        2.25807943110000       -1.57695580230000
O            0.99954704500000       -2.97517986650000        8.08419678130000
H            0.11941484750000       -2.65807052680000        8.30778874420000
H            1.55975103120000       -2.17922097960000        8.02732866630000
O           -2.52103484590000       -3.77850381490000        3.06901680720000
H           -1.61168279850000       -3.98459208050000        3.32870071670000
H           -2.88821909250000       -4.61370661200000        2.72208196520000
O            1.02961539310000       -0.26267103810000       -7.42279009740000
H            0.38951020260000       -0.98628448360000       -7.54687146340000
H            0.50346274760000        0.49849538370000       -7.11512846800000
O            2.12089434440000        6.72096479670000       -1.15320304010000
H            1.57422196560000        6.94922536920000       -0.38385627510000
H            3.01388402510000        6.57702788500000       -0.79412510010000
O            0.96828607230000        4.16965727940000       -6.54206329770000
H            0.50208293070000        4.78501427130000       -5.94754954960000
H            0.34717004050000        3.45369756250000       -6.77080569390000
O            5.13719099970000       -4.74515552260000       -4.14667994900000
H            5.03209680660000       -3.86360958900000       -4.58091897290000
H            6.08043465700000       -4.78850088680000       -3.94803187340000
O           -4.27065734830000       -4.69876052110000       -0.20354615940000
H           -4.55197845440000       -5.56451990920000       -0.53047787470000
H           -3.40119620120000       -4.51832944150000       -0.58086923410000
O          -10.85406134470000       -1.53847420070000        2.79054577620000
H          -11.23438241620000       -0.65176445470000        2.61673032610000
H          -10.88078113590000       -1.99410282210000        1.93151100620000
O           -8.00739608560000       -3.14575601910000        1.38883602270000
H           -7.75884238470000       -3.82028188920000        0.71116537440000
H           -7.37342008150000       -2.40879739870000        1.28262822660000
O           -1.28521756100000       -0.84549581950000        3.00375670460000
H           -0.67273231370000       -1.55999977840000        2.73524531990000
H           -2.00787881100000       -1.28766724690000        3.45505503170000
O           -0.40402959030000        2.61066194630000       -3.98669584320000
H            0.52568909990000        2.81634790210000       -3.85272356690000
H           -0.92523764700000        3.16822241080000       -3.38038291090000
O           -2.20704962330000        6.88468163920000       -3.44608298230000
H           -3.11786396550000        6.76324730330000       -3.13226985290000
H           -1.66443715550000        6.79973725410000       -2.64488538390000
O           -6.62190535200000       -2.05022493340000        3.89137266960000
H           -6.19734982360000       -2.51419907900000        3.14990168180000
H           -7.55607313320000       -2.32892523180000        3.94023034000000
O            6.27901372290000        2.59295460080000        5.12619711270000
H            6.60039791570000        2.12988915240000        4.31973156790000
H            6.66907173530000        2.12446386090000        5.89848430850000
O           -5.36561247260000       -5.73463104510000       -3.18386179320000
H           -6.09618216000000       -5.09079620780000       -3.16489858830000
H           -5.53375325350000       -6.35704358310000       -2.46457959580000
O            2.67589581470000        4.06492474500000        1.50542274670000
H            2.61880453860000        4.87970142580000        2.03548879260000
H            3.29814518320000        3.48483437700000        1.98665536690000
O            5.54747836770000        0.89354884220000       -1.62423580410000
H            5.64843279830000        1.64036466380000       -2.24608102020000
H            5.31359694850000        0.10166767110000       -2.13120219580000
O           -0.07691537110000       -4.70554791590000        4.26001996240000
H            0.36036598820000       -5.25291588860000        3.58706693810000
H           -0.80218776230000       -5.23884116380000        4.64115292310000
O           -5.00908257280000       -4.85200181070000        4.41684334950000
H           -5.92123723370000       -5.02199886260000        4.11460587110000
H           -5.10956630560000       -4.32467484030000        5.21546982870000
O            3.23286364730000       -4.06968865560000       -2.23831997170000
H            3.47052067640000       -3.96491386700000       -1.30304508320000
H            4.03725434390000       -4.27615564620000       -2.73772834250000
O            3.58860373210000        5.18343339870000       -6.22750375050000
H            3.42539653520000        5.88998367090000       -5.59400864490000
H            2.72395113490000        4.90760875140000       -6.56052047500000
O            4.02322166630000        3.63967300500000       -0.78721381510000
H            3.43361916780000        3.91232980620000       -0.06155818300000
H            4.90857468510000        3.54256447940000       -0.37189202020000
O            2.43724353420000       -1.55148273110000       -5.53985727000000
H            2.06593331120000       -1.05284117230000       -4.78856108930000
H            2.00048265520000       -1.16275717860000       -6.32352153710000
O           -3.76356698880000       -0.54434839360000       -5.29067869160000
H           -2.89215265000000       -0.75312844470000       -4.91148283800000
H           -3.65092148810000       -0.66450825970000       -6.24401013470000
O           -0.21578272410000       -4.68410073340000       -5.97098738070000
H           -0.41265903520000       -3.95130912690000       -6.57953382780000
H            0.69936919190000       -4.53508026450000       -5.66326192560000
O            4.35986466220000        4.61450636940000        4.79837770980000
H            3.84229500570000        4.53904285490000        5.60414369010000
H            5.08264837970000        3.97614420430000        4.90127340030000
O           -0.51422495260000        1.85989283960000       -6.53313860100000
H           -0.47188115600000        2.00392258140000       -5.56340365730000
H           -1.45762987250000        1.88932859680000       -6.73739273040000
O            4.06072916770000        0.96327851120000        0.46396304550000
H            4.54748479670000        1.06180528190000       -0.38251086410000
H            4.43634692910000        1.60346298080000        1.08987779230000
O           -1.39618708580000        3.38720005290000        5.95836622120000
H           -2.14971997990000        3.99193449670000        5.97543742460000
H           -1.58386014670000        2.68432836920000        6.60800115420000
O            3.93757976950000        1.38732183460000        5.53921797020000
H            4.19268975220000        0.58049608680000        6.00892314180000
H            4.77520766720000        1.85031878280000        5.31927885450000
O            1.09561396350000        0.12094383700000       -3.97731173450000
H            1.43337350090000        0.97022436860000       -4.28938514780000
H            0.46562990290000        0.33023191560000       -3.26374519760000
O           -5.50780961330000       -2.59957270420000       -6.78753599430000
H           -4.99302231840000       -2.99071874490000       -6.04353482650000
H           -6.39524538620000       -2.98094765910000       -6.70229653330000
O           -1.18784411290000       -1.28214703890000       -4.70848709620000
H           -1.17344992880000       -2.12021215780000       -4.20633195770000
H           -0.36727886970000       -0.80735828570000       -4.49225579890000
O           -2.41796012490000       -6.94358372960000       -0.25210224250000
H           -1.45728224320000       -7.09658752970000       -0.17982933610000
H           -2.51465284610000       -6.59404567230000       -1.16386836550000
O            7.98474910820000       -4.60232280270000        2.79292142730000
H            7.83957599580000       -4.11350750860000        1.95758549340000
H            8.34180016880000       -5.45353754880000        2.53547143900000
O            3.07688917310000       -6.46946582150000        0.21901493470000
H            3.96170876020000       -6.80105633730000        0.04798989760000
H            2.61243030310000       -6.52591111190000       -0.62855756960000
O           -5.86633066360000        0.51743057630000        4.11281349560000
H           -6.34934586100000       -0.32389934330000        4.01350828190000
H           -6.43026371570000        1.16940705920000        4.56559307580000
O            8.33490629190000        4.37782424960000        4.18617166700000
H            7.59907617280000        3.95749379850000        4.65020643590000
H            8.94417540580000        3.66222614950000        3.95374368350000
O           10.24177898340000        4.03402010870000       -1.32962170160000
H           10.57836876240000        4.62256034440000       -2.00499210500000
H            9.54895462310000        3.47858593550000       -1.76918064300000
O            8.10093870500000        5.25005473850000       -0.10674160970000
H            8.98531836870000        4.90547135290000       -0.30232842700000
H            8.11873113770000        5.70362830530000        0.77505337840000
O           -4.48716445480000       -0.09003825680000       -2.32493403150000
H           -3.98888068810000        0.56567195770000       -2.85888928280000
H           -5.21336687720000       -0.42379336880000       -2.88264822000000
O            5.20509396500000        3.07244961330000       -5.73244629620000
H            4.74145144280000        2.34215394610000       -6.16716313820000
H            4.68513796630000        3.87740507670000       -5.92602984320000
O           -3.00840261470000        0.68685725210000        5.06531907020000
H           -2.27484359480000        0.89033701020000        4.46620750120000
H           -3.27379346150000       -0.22867674340000        4.87697270090000
O           -9.08232910080000        0.32999724620000        0.16539218430000
H           -8.72713895120000        1.18714743030000       -0.12598331620000
H           -8.89586857430000        0.27859260050000        1.11879846800000
O           -8.53235626400000        2.06564880110000       -5.36914358200000
H           -8.40283161410000        1.10616911800000       -5.31180104590000
H           -9.41901832730000        2.22371305140000       -5.03552418350000
O            8.45264409570000       -5.99482280180000       -0.24584981020000
H            9.09237371200000       -5.99157108150000       -0.95778608000000
H            8.31609764430000       -5.05288182430000        0.00158413300000
O            7.93081529490000       -3.41449118200000        0.37534848970000
H            7.07489661180000       -3.40628679590000       -0.10365281910000
H            8.58675255880000       -3.05368805320000       -0.24477189130000
O           -4.81063080660000        2.73422611070000        7.17640329480000
H           -4.40044674560000        3.57011684250000        6.93062119780000
H           -5.63730871680000        2.70958897990000        6.66440019950000
O            0.09180373310000        3.49111983250000        1.53695010500000
H           -0.16515822880000        2.99512350930000        2.33323672590000
H            1.04685685560000        3.69809217650000        1.59869245110000
O           -6.81968109490000        4.47845168550000        3.58164085310000
H           -7.50210191880000        4.90745099280000        3.02153380800000
H           -5.98730832080000        4.94854182260000        3.39537271240000
O           -2.29487132460000        4.38533685540000        0.95105028260000
H           -1.32916752130000        4.27854497820000        1.02915547460000
H           -2.58731968030000        4.43042635980000        1.86889627790000
O           -1.83744061980000        7.42344312000000        2.03332782790000
H           -1.88270296770000        6.61259213440000        2.57575682270000
H           -2.49911583310000        7.32360860910000        1.33941696230000
O            2.64526956560000       -3.48969666700000        3.16954047230000
H            2.93142611180000       -4.35621767280000        3.50448796630000
H            2.97304436170000       -3.42694169590000        2.25542449480000
O            7.55252288620000       -0.83814908510000        1.89699975330000
H            8.02786824820000       -1.38486949840000        2.54676845630000
H            8.20468144480000       -0.68793903450000        1.18025462290000
O           -0.85790454720000       -2.24089145770000       -7.16122652570000
H           -0.98899369620000       -1.87452859370000       -6.25342958470000
H           -1.68569153830000       -2.05502812390000       -7.62049866130000
O           -8.52966994810000       -0.21951006060000        2.82162579000000
H           -9.28295823100000       -0.84530032100000        2.84920673940000
H           -8.69727483510000        0.41785675310000        3.52560939790000
O            4.31211370230000        0.45117694630000       -4.06633408160000
H            4.02439669240000        0.48374417060000       -4.99037504750000
H            3.64084002700000        0.90018312610000       -3.53830203870000
O           -3.19678683380000        2.41084934250000       -6.32997236600000
H           -3.02532028200000        3.25174809210000       -5.86783517350000
H           -4.05609681150000        2.49672791130000       -6.74886710270000
O            6.16176285520000       -0.65544654190000        4.36762351090000
H            6.17269596630000       -1.54835197190000        3.97820757420000
H            5.80677122920000       -0.73692223720000        5.26381436740000
O            4.52161964290000       -3.16976898620000        5.57855125400000
H            4.55706859550000       -3.00624507630000        4.61884548620000
H            3.63639693250000       -3.53546034820000        5.76487145750000
O           -0.10160954500000       -6.78196083110000       -3.92233807560000
H           -0.97723418270000       -6.74903292710000       -3.51200774870000
H           -0.16909518060000       -6.30097485850000       -4.75347916770000
O            8.15251747260000        5.10384595360000       -4.06514180540000
H            7.46137783270000        5.25010584830000       -3.39913150860000
H            8.10808048000000        5.84644253530000       -4.66719855150000
O            5.92480432620000       -3.95225370910000       -1.24644327960000
H            6.55555004430000       -4.00034916890000       -2.00090820720000
H            5.76662052610000       -4.87902150020000       -0.97492828800000
O            3.86514990120000       -0.07876682530000        3.12762347680000
H            3.63123641080000       -0.61232970160000        2.35078565860000
H            4.77064787710000       -0.29681008960000        3.41764117220000
O            0.92878061740000       -4.12899683730000       -0.55984677400000
H            1.75381683320000       -3.98862233220000       -0.07856483450000
H            1.01838603950000       -3.63705073190000       -1.40952741100000
O            2.25994730730000       -1.27517372140000        4.80343284200000
H            2.85990497510000       -0.72772399060000        4.24653393530000
H            2.27769358850000       -2.15359291510000        4.39415837310000
O            9.42354026610000       -0.74490709590000        0.01339767340000
H            8.82275978410000       -0.86127607960000       -0.75669231430000
H            9.75420945770000        0.16611923010000       -0.04450175850000
O           -5.51408253390000       -2.65980252490000        6.19500829960000
H           -6.10238172190000       -2.49540772420000        5.41595301550000
H           -5.60202698610000       -1.85694867040000        6.72880498700000
O           -2.94507307430000       -3.48488820090000        6.95338801570000
H           -3.88218834210000       -3.26450748380000        6.86594194450000
H           -2.57530271810000       -2.88807877200000        7.62217102140000
O           -9.56566446560000        4.06415477280000       -2.32413883530000
H           -8.65526325370000        4.09199880390000       -2.66155599220000
H           -9.90924733390000        3.19632014170000       -2.55994654070000
O           -3.72426730920000       -2.64510694340000       -2.44276837070000
H           -4.43165183440000       -2.92383146380000       -1.83045224590000
H           -3.78760030950000       -1.67567445150000       -2.43690739900000
O            0.96427559130000        4.29980590330000        5.02326750700000
H            0.11805253540000        4.04323428940000        5.42827314840000
H            1.62580355990000        4.06732387670000        5.72013802170000
O           -8.43430205710000        5.60643366600000        1.76951609320000
H           -7.93610209500000        5.57630929680000        0.93484265290000
H           -9.30757886360000        5.27251495540000        1.53871893180000
O           -6.08359967180000       -1.34545246180000       -4.03981513330000
H           -6.85899693600000       -1.00021466130000       -4.51568930410000
H           -5.32352832450000       -1.30710714140000       -4.64559522900000
O           -7.59441746530000        2.45728321760000       -0.67372266520000
H           -6.72232894400000        2.13102988440000       -0.36025735560000
H           -7.56751151770000        3.42709345500000       -0.67229059670000
O           -2.31897744970000        1.32026503040000        7.50295993670000
H           -2.58570658160000        0.99128273940000        6.60529261610000
H           -3.11851628530000        1.73050639880000        7.84950767880000
O            6.11137664930000       -5.31478028790000        4.82255626210000
H            5.82754692680000       -4.51499793340000        5.29286534960000
H            6.75771342270000       -5.03736697750000        4.15719675770000
O            5.25060643800000       -1.47167646700000        0.70355985200000
H            4.76158268130000       -0.63169920900000        0.60211433790000
H            6.16140847010000       -1.22987170980000        0.96254087690000
O           -7.55348885650000       -4.88365359640000        3.42944516440000
H           -8.20383049950000       -4.62361532110000        4.08899352210000
H           -7.69488081290000       -4.25038548710000        2.69122168560000
O            0.58362030530000        6.81975629390000        1.08936419970000
H            1.13523719260000        6.59183248810000        1.84757445150000
H           -0.24192577600000        7.19766641840000        1.46515755140000
O           -4.22335222660000       -3.70767963830000       -4.74443236590000
H           -4.16420988770000       -3.20444566900000       -3.88463112190000
H           -4.62785900320000       -4.54827748810000       -4.50140088800000
O          -11.65329429710000        1.77597475030000       -0.68154994330000
H          -12.50061287180000        1.93685351240000       -1.09530368500000
H          -11.03001161410000        1.54435789460000       -1.39943465730000
O           -8.24771004660000       -0.50813036000000        6.00711166770000
H           -8.66734869490000        0.32598547700000        5.77725500950000
H           -7.39420042620000       -0.30005096140000        6.41527821750000
O           -9.10458341550000       -2.77432380340000        4.60989576240000
H           -8.97699532170000       -2.08898888330000        5.28384050130000
H           -9.85738108760000       -2.49150620450000        4.07190926900000
O           -5.86480873240000       -2.69909020230000       -0.89232149910000
H           -5.59926237310000       -2.33089489130000       -0.04564222780000
H           -6.61226322050000       -2.14714514980000       -1.20454760910000
O           -8.01471967270000       -3.41797093740000       -5.98599177130000
H           -8.54756887140000       -4.15691362840000       -6.27492528040000
H           -7.72503419060000       -3.61998161620000       -5.05219924470000
O            9.95234410010000        1.36788582010000       -4.55776463420000
H            9.27767727470000        1.79053322650000       -5.12123959860000
H           10.81018223040000        1.64345494130000       -4.87948413780000
O            0.23469563540000       -6.77336662120000       -0.41960556500000
H            0.61361145810000       -7.24569004270000       -1.16377022670000
H            0.51421899860000       -5.84111450980000       -0.52929153720000
O           -5.15860103940000       -3.38813182660000        2.01459841880000
H           -4.89283631930000       -3.96786976560000        2.73964564320000
H           -4.85525820210000       -3.83368924730000        1.20397321070000
O           11.77205706890000        0.97682613870000        2.07139094060000
H           11.43524847030000        1.16524240180000        1.15795186700000
H           12.60471601370000        1.44206033540000        2.15230609580000
O           -5.12969638400000       -7.28800729880000       -0.85243792130000
H           -4.24612761030000       -7.62430217400000       -0.65770167120000
H           -5.64623476500000       -7.36365460450000       -0.04033344780000
O           -6.34433506870000       -0.01941142810000       -7.16772196620000
H           -5.92310733920000       -0.89251199620000       -7.06867325860000
H           -7.20621269170000       -0.11625737880000       -6.75097624770000
O           -1.07366505400000        6.20670819450000       -1.04633664810000
H           -0.40001839820000        6.29401614650000       -0.35765744590000
H           -1.91231747960000        6.47587325680000       -0.62643626790000
O            3.54879677560000       -3.62994096060000        0.50409372420000
H            4.10199837210000       -2.83306889860000        0.45334015010000
H            4.11599163500000       -4.34946996910000        0.83503982640000
O            0.25977674530000        2.51799398250000       -0.93537699040000
H            0.21229496040000        2.81512689220000       -0.00564154210000
H            0.38744328650000        3.32994096560000       -1.46215400040000
O            3.46713156780000        1.07736951270000       -6.61464546850000
H            2.90635973020000        0.59589515240000       -7.22980816670000