 Entering Gaussian System
 *********************************************
 Gaussian 98:
 frequency output generated by the xtb code
 *********************************************
                         Standard orientation:
 --------------------------------------------------------------------
  Center     Atomic     Atomic              Coordinates (Angstroms)
  Number     Number      Type              X           Y           Z
 --------------------------------------------------------------------
    1          6             0        1.110074   -0.578981    0.242999
    2          6             0       -1.243173   -0.095917    0.460491
    3          6             0       -1.730717    0.851196   -0.629982
    4          6             0        1.549512    0.615281   -0.481421
    5          1             0        1.689029   -1.447766   -0.071575
    6          1             0       -2.067116   -0.712324    0.822763
    7          1             0       -2.322046    0.311558   -1.360098
    8          1             0        1.834334    0.563222   -1.512719
    9          1             0        1.209253   -0.430188    1.321800
   10          1             0       -0.838261    0.471701    1.301278
   11          1             0       -2.341046    1.635685   -0.197658
   12          1             0       -0.881045    1.298583   -1.132984
   13          8             0       -0.259038   -1.002548   -0.008726
   14          7             0        1.526138    1.882724    0.097059
   15          1             0        2.329681    2.449217   -0.150682
   16          1             0        1.343000    1.882630    1.095713
   17          8             0        1.094674   -3.908442   -0.251136
   18          1             0        0.185527   -3.585031   -0.174571
   19          1             0        1.559988   -3.616379    0.550455
   20          8             0       -3.188937    2.084407    2.166457
   21          1             0       -2.643916    1.672873    2.850048
   22          1             0       -2.650028    2.790143    1.779104
   23          8             0       -0.304641   -1.170432   -2.728921
   24          1             0       -0.305996   -1.111476   -1.747189
   25          1             0       -1.240530   -1.233889   -2.981646
   26          8             0       -3.030839   -1.099818   -3.254253
   27          1             0       -3.391365   -1.540113   -4.024401
   28          1             0       -3.237628   -0.135549   -3.364104
   29          8             0       -3.552379    1.472078   -3.477350
   30          1             0       -4.073935    1.890013   -2.790652
   31          1             0       -2.706551    1.986094   -3.522362
   32          8             0        1.977697   -2.732929   -2.539100
   33          1             0        1.737948   -3.263490   -1.751005
   34          1             0        1.174358   -2.235239   -2.758353
   35          8             0       -1.305850   -3.045225    2.598842
   36          1             0       -1.400827   -3.179132    1.628992
   37          1             0       -1.167960   -3.911118    2.984523
   38          8             0        4.263366    1.106861    1.534288
   39          1             0        3.547698    1.042966    2.214041
   40          1             0        5.050416    1.373841    2.010738
   41          8             0        0.232733    2.478337    2.714790
   42          1             0       -0.303968    3.127446    2.235126
   43          1             0       -0.393247    1.902774    3.183396
   44          8             0       -1.444014    4.080128    1.141513
   45          1             0       -0.997506    4.015662    0.272212
   46          1             0       -1.601561    5.011565    1.299385
   47          8             0       -3.779790   -2.117046   -0.771691
   48          1             0       -3.552700   -1.732841   -1.635653
   49          1             0       -4.009958   -1.383013   -0.183934
   50          8             0        4.360960   -1.511585    0.703501
   51          1             0        4.339928   -0.593990    1.029687
   52          1             0        4.231072   -1.437679   -0.261016
   53          8             0       -1.728375   -3.599652    0.017753
   54          1             0       -2.456479   -3.003226   -0.286701
   55          1             0       -1.973463   -4.482026   -0.263731
   56          8             0        2.608415   -3.024381    1.944854
   57          1             0        3.260562   -2.438073    1.474089
   58          1             0        3.130341   -3.719748    2.346367
   59          8             0       -0.011448    3.746467   -1.137005
   60          1             0        0.707899    4.103636   -1.678186
   61          1             0        0.419956    2.966106   -0.707772
   62          8             0       -3.280923   -1.284585    3.409640
   63          1             0       -3.730949   -0.993573    2.600303
   64          1             0       -2.662541   -1.985013    3.144381
   65          8             0        4.316990    1.618353   -1.307557
   66          1             0        4.193372    0.716617   -1.639603
   67          1             0        4.364602    1.523808   -0.346791
   68          8             0        0.845211   -1.456441    3.400877
   69          1             0        1.544025   -1.995514    2.990169
   70          1             0        0.027308   -1.910298    3.136109
   71          8             0        2.322510    3.210384   -2.542379
   72          1             0        3.125117    2.787456   -2.197327
   73          1             0        1.858015    2.514377   -3.025750
   74          8             0        2.396835    0.916676    3.409688
   75          1             0        1.724141    1.605650    3.302427
   76          1             0        1.911276    0.083816    3.513559
   77          8             0       -1.270861    2.807565   -3.434165
   78          1             0       -0.988964    3.223199   -2.601338
   79          1             0       -0.539184    2.213079   -3.675309
   80          8             0       -1.362614    0.531023    3.845325
   81          1             0       -0.593443   -0.039614    3.957964
   82          1             0       -2.124036   -0.092705    3.807871
   83          8             0       -4.438063   -0.076939    1.145901
   84          1             0       -5.366442    0.057246    1.342069
   85          1             0       -3.981165    0.749874    1.419303
   86          8             0        0.800534    1.025143   -3.784462
   87          1             0        1.117642    0.755332   -4.646609
   88          1             0        0.412710    0.217880   -3.366507
   89          8             0        3.987487   -1.141457   -1.983573
   90          1             0        4.712805   -1.489124   -2.503622
   91          1             0        3.200794   -1.712036   -2.205008
 --------------------------------------------------------------------
     1 basis functions        1 primitive gaussians
     1 alpha electrons        1 beta electrons
 
 Harmonic frequencies (cm**-1), IR intensities (km*mol⁻¹),
 Raman scattering activities (A**4/amu), Raman depolarization ratios,
 reduced masses (AMU), force constants (mDyne/A) and normal coordinates:
                      1                      2                      3
                        a                      a                      a 
 Frequencies --    28.3680                28.9015                33.9203
 Red. masses --    13.9732                13.8353                14.2952
 Frc consts  --     0.0000                 0.0000                 0.0000
 IR Inten    --     0.7769                 0.6305                 0.1807
 Raman Activ --     0.0000                 0.0000                 0.0000
 Depolar     --     0.0000                 0.0000                 0.0000
 Atom AN      X      Y      Z        X      Y      Z        X      Y      Z
   1   6     0.01  -0.07   0.01     0.12  -0.00  -0.05    -0.06  -0.05   0.05
   2   6     0.03  -0.01   0.05     0.11  -0.12  -0.02    -0.04   0.02   0.01
   3   6     0.07   0.01   0.05     0.11  -0.08   0.01    -0.01  -0.01  -0.03
   4   6     0.02  -0.09  -0.01     0.04   0.04  -0.04    -0.03  -0.06   0.03
   5   1    -0.00  -0.02   0.00     0.05   0.01  -0.02    -0.02  -0.02   0.02
   6   1    -0.00   0.01   0.01     0.03  -0.05  -0.02    -0.02   0.02   0.01
   7   1     0.01   0.01   0.02     0.03  -0.02  -0.00    -0.01  -0.00   0.00
   8   1     0.01  -0.03  -0.00     0.00   0.02  -0.01    -0.01  -0.02   0.01
   9   1     0.01  -0.02   0.00     0.04  -0.00  -0.02    -0.02  -0.01   0.01
  10   1     0.01  -0.01   0.02     0.02  -0.04   0.00    -0.01   0.01  -0.00
  11   1     0.03   0.01   0.01     0.03  -0.03   0.01     0.01   0.01  -0.02
  12   1     0.03  -0.01   0.01     0.04  -0.02   0.01     0.00  -0.02  -0.02
  13   8    -0.01  -0.05   0.06     0.16  -0.09  -0.04    -0.07  -0.03   0.06
  14   7     0.05  -0.09  -0.03     0.01   0.03  -0.01    -0.01  -0.06   0.02
  15   1     0.02  -0.03  -0.01    -0.00   0.01  -0.00     0.00  -0.02   0.00
  16   1     0.01  -0.02  -0.01     0.01  -0.00  -0.00    -0.00  -0.01   0.01
  17   8     0.12  -0.09   0.02    -0.02   0.05   0.06     0.08  -0.05  -0.12
  18   1     0.03  -0.03  -0.01    -0.00   0.02   0.02     0.02  -0.01  -0.04
  19   1     0.02  -0.02   0.01     0.00   0.01   0.01     0.01  -0.02  -0.02
  20   8    -0.16   0.04  -0.02     0.13   0.05  -0.18     0.11   0.15  -0.03
  21   1    -0.05   0.02   0.01     0.03   0.00  -0.05     0.02   0.03  -0.00
  22   1    -0.04   0.00  -0.01     0.03   0.03  -0.02     0.04   0.03  -0.00
  23   8    -0.06  -0.09   0.06     0.09  -0.02  -0.05    -0.09  -0.15   0.07
  24   1    -0.02  -0.02   0.01     0.03  -0.01  -0.01    -0.02  -0.03   0.02
  25   1    -0.02  -0.00   0.01     0.02  -0.01  -0.01    -0.02  -0.04   0.02
  26   8    -0.05   0.18  -0.04     0.08  -0.06  -0.02    -0.09  -0.15   0.02
  27   1    -0.02   0.07  -0.02     0.01  -0.00  -0.01    -0.02  -0.04   0.01
  28   1    -0.02   0.05   0.03    -0.01  -0.02   0.03    -0.02  -0.04  -0.00
  29   8    -0.15   0.20   0.40    -0.20  -0.08   0.37    -0.06  -0.15  -0.06
  30   1     0.01   0.03   0.15    -0.02  -0.05   0.13    -0.02  -0.03  -0.02
  31   1    -0.03   0.04   0.07    -0.06  -0.01   0.07    -0.01  -0.04  -0.01
  32   8     0.01  -0.03   0.00     0.09  -0.04   0.06     0.10   0.14  -0.03
  33   1     0.01  -0.01   0.00     0.01  -0.00   0.02     0.04   0.02  -0.02
  34   1    -0.00  -0.01   0.01     0.03  -0.01  -0.00     0.01   0.01  -0.00
  35   8     0.19   0.20  -0.23    -0.23  -0.11   0.10    -0.00   0.13  -0.19
  36   1     0.05   0.04  -0.06    -0.04  -0.03   0.02     0.01   0.03  -0.05
  37   1     0.08   0.06  -0.06    -0.09  -0.03   0.04    -0.02   0.03  -0.04
  38   8     0.02   0.00  -0.01    -0.01   0.03  -0.02     0.06  -0.02   0.17
  39   1    -0.00   0.02  -0.01    -0.00  -0.01  -0.01     0.01  -0.01   0.04
  40   1     0.00  -0.00  -0.00    -0.01   0.02  -0.00     0.01  -0.01   0.05
  41   8    -0.13  -0.04  -0.12     0.08   0.04   0.03     0.12  -0.06   0.03
  42   1    -0.03  -0.01  -0.03     0.03   0.02   0.01     0.04   0.00   0.02
  43   1    -0.03  -0.01  -0.02     0.01   0.01  -0.00     0.02  -0.01  -0.00
  44   8    -0.13  -0.02  -0.11     0.13   0.16   0.09     0.22   0.09   0.08
  45   1    -0.01  -0.00  -0.02     0.02   0.03   0.02     0.04   0.01   0.01
  46   1    -0.02  -0.01  -0.02     0.04   0.04   0.02     0.07   0.03   0.01
  47   8     0.08   0.01  -0.10     0.01  -0.03  -0.05    -0.06   0.04   0.08
  48   1     0.01   0.01  -0.03     0.01  -0.02  -0.01    -0.03  -0.01   0.01
  49   1     0.01  -0.00  -0.02     0.00   0.00  -0.02    -0.01   0.02   0.01
  50   8    -0.02  -0.03   0.08     0.09   0.00   0.05    -0.03   0.03   0.00
  51   1    -0.00  -0.00   0.01     0.02   0.00   0.01    -0.00   0.00   0.02
  52   1    -0.00  -0.01   0.02     0.03  -0.01   0.01    -0.01   0.03   0.00
  53   8     0.12   0.01  -0.19    -0.05  -0.04   0.06     0.06   0.04  -0.19
  54   1     0.03   0.00  -0.04    -0.01  -0.01   0.01     0.01   0.01  -0.02
  55   1     0.01  -0.00  -0.02     0.01  -0.01  -0.01     0.01   0.01  -0.04
  56   8     0.01  -0.06   0.09     0.01   0.07   0.03     0.01  -0.08  -0.06
  57   1    -0.00  -0.01   0.02     0.01   0.01   0.01    -0.00  -0.01  -0.01
  58   1     0.01  -0.02   0.02    -0.01   0.02   0.02     0.01  -0.02  -0.02
  59   8     0.10  -0.01   0.04    -0.01   0.03   0.03    -0.01  -0.10  -0.03
  60   1     0.02  -0.02  -0.00    -0.01  -0.00  -0.00    -0.00  -0.05  -0.02
  61   1     0.02  -0.01   0.01    -0.01   0.01   0.01    -0.01  -0.02   0.00
  62   8     0.04  -0.02  -0.17    -0.14   0.09  -0.09    -0.00   0.11  -0.15
  63   1     0.00  -0.00  -0.04    -0.02   0.02  -0.03    -0.01   0.04  -0.03
  64   1     0.03   0.01  -0.05    -0.04   0.01  -0.00    -0.00   0.03  -0.05
  65   8     0.01  -0.08  -0.03    -0.01   0.01  -0.05    -0.11   0.23   0.23
  66   1     0.01  -0.02  -0.00     0.01  -0.00  -0.01    -0.02   0.06   0.04
  67   1     0.01  -0.01  -0.01    -0.00   0.01  -0.01    -0.00   0.04   0.05
  68   8     0.14   0.11   0.10    -0.19  -0.05  -0.09     0.07  -0.08   0.03
  69   1     0.03   0.01   0.04    -0.04  -0.00  -0.02     0.01  -0.02   0.00
  70   1     0.03   0.06  -0.02    -0.04  -0.03  -0.00     0.01   0.00  -0.01
  71   8     0.00  -0.10  -0.06    -0.05   0.03  -0.03    -0.14  -0.02  -0.13
  72   1    -0.00  -0.03  -0.02    -0.01   0.00  -0.01    -0.04   0.02  -0.00
  73   1    -0.01  -0.03  -0.00    -0.02   0.01  -0.01    -0.02  -0.03  -0.02
  74   8    -0.03   0.14  -0.05    -0.01  -0.10  -0.01     0.06  -0.10   0.14
  75   1    -0.02   0.02  -0.02     0.00  -0.02   0.00     0.02  -0.02   0.03
  76   1     0.00   0.03  -0.01    -0.01  -0.02  -0.00     0.01  -0.03   0.02
  77   8    -0.05   0.03   0.12    -0.24   0.02   0.17    -0.05  -0.15  -0.00
  78   1     0.01   0.01   0.02    -0.04   0.01   0.04    -0.01  -0.03  -0.00
  79   1    -0.03  -0.00   0.02    -0.06   0.01   0.03    -0.01  -0.04   0.00
  80   8    -0.12   0.08   0.11    -0.02  -0.01  -0.16     0.04   0.02   0.02
  81   1    -0.03   0.04   0.09    -0.01  -0.02  -0.07     0.00   0.00   0.03
  82   1    -0.02   0.00  -0.01    -0.02   0.01  -0.02     0.01   0.01  -0.02
  83   8    -0.02   0.00  -0.12     0.05   0.10  -0.20    -0.02   0.24  -0.06
  84   1    -0.01  -0.01  -0.04     0.02   0.04  -0.05    -0.00   0.07  -0.01
  85   1    -0.02   0.00  -0.02     0.02   0.02  -0.05     0.01   0.05  -0.01
  86   8    -0.14  -0.06   0.04    -0.18   0.12  -0.02    -0.06  -0.18   0.04
  87   1    -0.05  -0.01   0.01    -0.07   0.05  -0.02    -0.02  -0.05   0.01
  88   1    -0.03  -0.02   0.01    -0.02   0.02  -0.01    -0.02  -0.04   0.01
  89   8     0.04  -0.09   0.05     0.10  -0.04   0.05    -0.00   0.26   0.02
  90   1     0.01  -0.03   0.02     0.02  -0.01   0.01     0.01   0.08   0.01
  91   1     0.01  -0.02   0.01     0.03  -0.01   0.01     0.01   0.06   0.00
                      4                      5                      6
                        a                      a                      a 
 Frequencies --    36.3234                37.6914                41.0497
 Red. masses --    13.9324                14.1538                14.1455
 Frc consts  --     0.0000                 0.0000                 0.0000
 IR Inten    --     3.3346                 2.8015                 0.5399
 Raman Activ --     0.0000                 0.0000                 0.0000
 Depolar     --     0.0000                 0.0000                 0.0000
 Atom AN      X      Y      Z        X      Y      Z        X      Y      Z
   1   6     0.05   0.08  -0.01    -0.02   0.02   0.07     0.02   0.03  -0.03
   2   6     0.02  -0.10  -0.00    -0.04  -0.03  -0.03     0.00  -0.07  -0.01
   3   6     0.02  -0.06   0.04     0.01  -0.03  -0.05    -0.02  -0.04   0.03
   4   6    -0.03   0.10  -0.03    -0.01   0.01   0.07    -0.00   0.02  -0.06
   5   1     0.03   0.03   0.00     0.00   0.01   0.03     0.02   0.01   0.00
   6   1     0.01  -0.05  -0.02    -0.01  -0.01  -0.02     0.01  -0.03  -0.01
   7   1     0.03  -0.01  -0.01     0.01  -0.01  -0.02     0.01  -0.01  -0.01
   8   1    -0.01   0.03  -0.01     0.00   0.00   0.02     0.01  -0.00  -0.02
   9   1     0.01   0.03  -0.00    -0.02   0.01   0.02     0.00   0.02  -0.01
  10   1    -0.02  -0.04   0.02    -0.03  -0.01  -0.00    -0.01  -0.03   0.01
  11   1    -0.02  -0.04   0.02    -0.00  -0.01  -0.02    -0.03  -0.03   0.01
  12   1     0.01   0.01   0.04     0.01  -0.01  -0.01    -0.01   0.01   0.02
  13   8     0.10  -0.03  -0.00    -0.00  -0.02   0.02     0.05  -0.01  -0.04
  14   7     0.01   0.10  -0.02    -0.09   0.02   0.05    -0.00   0.04  -0.10
  15   1     0.01   0.02  -0.00    -0.03   0.02   0.01     0.00   0.01  -0.03
  16   1     0.00   0.03  -0.01    -0.03   0.01   0.01    -0.00   0.02  -0.03
  17   8    -0.12   0.11   0.16    -0.06  -0.02   0.18    -0.13   0.07  -0.20
  18   1    -0.02   0.07   0.02    -0.01   0.02   0.03    -0.03   0.02  -0.05
  19   1    -0.02   0.04   0.03    -0.01   0.01   0.04    -0.04  -0.00  -0.04
  20   8     0.08  -0.07   0.09     0.04   0.02  -0.01    -0.04   0.03   0.05
  21   1     0.03  -0.02   0.01     0.00   0.01   0.00    -0.01   0.02   0.02
  22   1     0.02  -0.02   0.01     0.01   0.01   0.01    -0.01   0.00  -0.00
  23   8    -0.04  -0.11   0.00     0.10  -0.03   0.03     0.11   0.16  -0.06
  24   1    -0.00  -0.02  -0.00     0.02  -0.01   0.01     0.03   0.03  -0.02
  25   1    -0.01  -0.01   0.01     0.03  -0.02  -0.00     0.03   0.01  -0.01
  26   8    -0.07   0.10   0.03     0.13  -0.12  -0.11     0.07  -0.15   0.05
  27   1    -0.02   0.03   0.01     0.05  -0.04  -0.03     0.02  -0.05   0.02
  28   1    -0.02   0.03   0.01     0.03  -0.03  -0.04     0.00  -0.04   0.00
  29   8    -0.04   0.11   0.08     0.02  -0.16  -0.26    -0.10  -0.20  -0.01
  30   1     0.02   0.03   0.04    -0.04  -0.04  -0.10    -0.04  -0.06  -0.01
  31   1    -0.00   0.01   0.00    -0.01  -0.02  -0.03    -0.04  -0.03   0.00
  32   8     0.03  -0.03   0.16    -0.03  -0.21   0.10     0.09   0.15  -0.07
  33   1    -0.00   0.00   0.04    -0.01  -0.04   0.04     0.00   0.03  -0.03
  34   1     0.01  -0.02   0.02    -0.00  -0.04   0.02     0.03   0.05  -0.02
  35   8     0.04  -0.20  -0.23     0.16   0.11  -0.19     0.11   0.08  -0.06
  36   1    -0.02  -0.02  -0.06     0.02   0.03  -0.05     0.01   0.02  -0.01
  37   1     0.03  -0.06  -0.09     0.05   0.03  -0.06     0.06   0.02  -0.02
  38   8    -0.00   0.11   0.05    -0.04   0.04  -0.15     0.06  -0.19   0.12
  39   1    -0.00   0.01   0.01     0.00   0.01  -0.02     0.01  -0.02   0.02
  40   1    -0.01   0.04   0.02    -0.00   0.02  -0.06     0.02  -0.05   0.03
  41   8     0.03   0.03   0.01     0.06  -0.01   0.08    -0.02   0.01  -0.17
  42   1     0.00  -0.00  -0.01     0.01   0.01   0.04    -0.01   0.00  -0.04
  43   1     0.01   0.00   0.00     0.02  -0.01   0.01     0.00   0.00  -0.03
  44   8     0.01  -0.07  -0.08     0.03   0.10   0.23    -0.10  -0.01  -0.11
  45   1    -0.00  -0.01  -0.02    -0.01   0.02   0.05    -0.02  -0.01  -0.03
  46   1    -0.01  -0.02  -0.02    -0.00   0.03   0.05    -0.03  -0.00  -0.03
  47   8    -0.31   0.13  -0.05    -0.14   0.07  -0.13    -0.15  -0.00   0.04
  48   1    -0.07   0.04  -0.00    -0.02   0.01  -0.03    -0.02  -0.01   0.01
  49   1    -0.05   0.03   0.00    -0.02   0.02  -0.04    -0.02   0.00   0.01
  50   8     0.10   0.09   0.12     0.01  -0.00  -0.01     0.01  -0.21   0.18
  51   1     0.02   0.02   0.02    -0.00   0.00  -0.02     0.00  -0.05   0.05
  52   1     0.02   0.02   0.03     0.00  -0.02  -0.00     0.02  -0.04   0.04
  53   8    -0.19   0.17  -0.27    -0.09   0.11  -0.15    -0.12   0.01  -0.01
  54   1    -0.07   0.03  -0.04    -0.03   0.02  -0.03    -0.04  -0.00   0.00
  55   1    -0.01   0.05  -0.11    -0.01   0.02  -0.04    -0.03  -0.00   0.01
  56   8     0.03   0.12   0.05     0.07   0.01   0.08    -0.17  -0.18  -0.06
  57   1     0.02   0.03   0.02     0.01   0.00   0.01    -0.02  -0.05   0.01
  58   1     0.00   0.02   0.01     0.02  -0.00   0.01    -0.06  -0.07  -0.02
  59   8     0.02   0.04  -0.11    -0.17   0.03   0.15    -0.05   0.02  -0.07
  60   1    -0.00   0.02  -0.03    -0.05   0.03   0.05    -0.02   0.03  -0.01
  61   1     0.02   0.02  -0.02    -0.03   0.00   0.02     0.00   0.01  -0.03
  62   8     0.15  -0.17   0.04     0.09   0.01  -0.16     0.15   0.04   0.07
  63   1     0.03  -0.03   0.02     0.02   0.01  -0.04     0.03   0.01   0.02
  64   1     0.03  -0.04  -0.00     0.03   0.01  -0.05     0.04   0.01   0.01
  65   8    -0.00   0.02   0.03    -0.02  -0.13  -0.18     0.03  -0.05   0.16
  66   1    -0.00   0.00   0.02    -0.01  -0.04  -0.04     0.02  -0.01   0.04
  67   1     0.00   0.01   0.01    -0.02  -0.02  -0.04     0.01  -0.02   0.04
  68   8    -0.14  -0.01  -0.08     0.13   0.04   0.09     0.09   0.07  -0.01
  69   1    -0.02   0.01  -0.01     0.03   0.01   0.03     0.01   0.00  -0.00
  70   1    -0.02  -0.02  -0.03     0.03   0.03  -0.01     0.01   0.04  -0.01
  71   8     0.01  -0.06  -0.13    -0.09   0.02   0.20     0.10   0.04   0.03
  72   1    -0.00  -0.01  -0.02    -0.01  -0.01   0.02     0.02  -0.00   0.01
  73   1     0.01  -0.02  -0.03    -0.03   0.02   0.04     0.01   0.02   0.00
  74   8    -0.02  -0.02   0.03     0.12   0.05   0.00    -0.02   0.08   0.04
  75   1    -0.00  -0.00   0.01     0.03   0.01   0.01    -0.00   0.02  -0.01
  76   1    -0.01  -0.00   0.00     0.03   0.01   0.00    -0.00   0.02   0.00
  77   8     0.07  -0.10  -0.07    -0.11   0.07   0.08    -0.21   0.01   0.03
  78   1     0.02  -0.02  -0.02    -0.04   0.01   0.03    -0.05   0.00   0.00
  79   1     0.01  -0.04  -0.01    -0.02   0.02   0.03    -0.04   0.02  -0.01
  80   8     0.10  -0.08  -0.06     0.06  -0.00   0.04     0.07   0.10   0.07
  81   1     0.03  -0.02  -0.05     0.01   0.00   0.04     0.02   0.03   0.05
  82   1     0.03  -0.03   0.00     0.02  -0.00  -0.02     0.02   0.02   0.01
  83   8     0.01  -0.05   0.18     0.00   0.08  -0.08     0.01  -0.02   0.12
  84   1     0.01  -0.02   0.07     0.00   0.02  -0.01     0.00  -0.01   0.04
  85   1     0.01  -0.01   0.04     0.00   0.02  -0.02    -0.00  -0.00   0.02
  86   8     0.02  -0.17  -0.04    -0.09   0.10   0.11    -0.05   0.23  -0.09
  87   1    -0.01  -0.04  -0.02    -0.01   0.04   0.03    -0.02   0.06  -0.03
  88   1     0.00  -0.04  -0.01    -0.00   0.01   0.02     0.00   0.05  -0.02
  89   8     0.03   0.00   0.12    -0.03  -0.18  -0.02     0.20  -0.07   0.18
  90   1     0.00   0.00   0.02    -0.01  -0.05  -0.00     0.05  -0.02   0.05
  91   1     0.01  -0.00   0.04    -0.01  -0.05   0.01     0.04   0.00   0.02
                      7                      8                      9
                        a                      a                      a 
 Frequencies --    46.4229                46.7970                51.7270
 Red. masses --    14.0901                13.8586                14.2058
 Frc consts  --     0.0000                 0.0000                 0.0000
 IR Inten    --     1.2674                 0.9678                 0.0941
 Raman Activ --     0.0000                 0.0000                 0.0000
 Depolar     --     0.0000                 0.0000                 0.0000
 Atom AN      X      Y      Z        X      Y      Z        X      Y      Z
   1   6     0.04   0.10   0.03    -0.09  -0.06  -0.02     0.02  -0.02  -0.03
   2   6     0.05   0.16   0.08    -0.06   0.11  -0.09     0.02  -0.06  -0.00
   3   6    -0.02   0.08   0.04    -0.05   0.07  -0.13    -0.00  -0.07   0.00
   4   6     0.04   0.09   0.02    -0.01  -0.09  -0.02    -0.03   0.04   0.03
   5   1     0.00   0.02   0.00    -0.04  -0.03  -0.00     0.01   0.01  -0.03
   6   1     0.02   0.06   0.05    -0.02   0.05  -0.01     0.01  -0.02   0.00
   7   1    -0.02   0.01   0.03    -0.03   0.02  -0.03    -0.01  -0.02   0.01
   8   1     0.01   0.02   0.00    -0.01  -0.03  -0.01    -0.01   0.03   0.01
   9   1     0.02   0.03   0.01    -0.03  -0.02  -0.01     0.01  -0.02  -0.01
  10   1     0.03   0.07   0.00    -0.00   0.04  -0.04     0.01  -0.02  -0.00
  11   1     0.00   0.03   0.01     0.00   0.04  -0.05     0.01  -0.02   0.00
  12   1    -0.01   0.01  -0.01    -0.01   0.00  -0.05    -0.00  -0.02  -0.01
  13   8     0.02   0.15   0.09    -0.13   0.04  -0.06     0.03  -0.05  -0.02
  14   7    -0.01   0.11  -0.02     0.00  -0.08  -0.04    -0.11   0.02   0.09
  15   1    -0.01   0.04  -0.01     0.00  -0.03  -0.02    -0.04   0.02   0.03
  16   1     0.01   0.03  -0.00     0.01  -0.02  -0.01    -0.03  -0.00   0.02
  17   8     0.22   0.05  -0.13     0.11  -0.10   0.04     0.09  -0.02  -0.11
  18   1     0.05  -0.00  -0.03     0.02  -0.05   0.01     0.01  -0.02  -0.04
  19   1     0.04   0.01  -0.02     0.02  -0.02   0.01     0.00  -0.00  -0.02
  20   8    -0.01   0.05   0.16     0.14  -0.07  -0.08     0.12   0.03  -0.19
  21   1     0.00   0.00   0.03     0.04  -0.02  -0.03     0.04   0.01  -0.05
  22   1     0.00   0.00   0.03     0.03  -0.01  -0.01     0.01   0.03  -0.02
  23   8    -0.01   0.03   0.12    -0.10  -0.00  -0.05    -0.06  -0.06  -0.02
  24   1     0.00   0.01   0.03    -0.03   0.00  -0.01    -0.01  -0.02  -0.00
  25   1    -0.00  -0.00   0.03    -0.03   0.01  -0.02    -0.02  -0.01   0.00
  26   8    -0.01  -0.09   0.13    -0.10   0.15  -0.09    -0.08  -0.01   0.04
  27   1     0.00  -0.03   0.04    -0.03   0.03  -0.02    -0.02   0.01   0.01
  28   1    -0.00  -0.02   0.02    -0.02   0.04  -0.03    -0.01   0.00   0.02
  29   8    -0.02  -0.11  -0.04    -0.12   0.15  -0.26     0.04   0.02   0.12
  30   1    -0.01  -0.02  -0.02    -0.06   0.04  -0.09     0.03   0.01   0.05
  31   1    -0.01  -0.02  -0.01    -0.03   0.04  -0.04     0.02  -0.01   0.01
  32   8     0.04   0.08  -0.16    -0.01   0.06   0.06    -0.04  -0.04  -0.17
  33   1     0.03   0.01  -0.04    -0.00   0.00   0.01     0.00  -0.01  -0.04
  34   1     0.01   0.03  -0.01    -0.01   0.01   0.01    -0.02  -0.01  -0.03
  35   8    -0.14  -0.04  -0.14     0.03  -0.13   0.02     0.06  -0.06  -0.12
  36   1     0.00  -0.00  -0.04     0.01  -0.02   0.00     0.02  -0.01  -0.03
  37   1    -0.04  -0.01  -0.04     0.02  -0.03  -0.00     0.04  -0.01  -0.04
  38   8    -0.19   0.03  -0.11     0.02   0.09   0.07    -0.06  -0.14   0.01
  39   1    -0.04  -0.01  -0.02     0.01   0.02   0.02    -0.02  -0.01   0.00
  40   1    -0.05   0.02  -0.04     0.01   0.03   0.01    -0.01  -0.05   0.00
  41   8    -0.04  -0.02   0.10     0.13   0.05  -0.00     0.03   0.36   0.10
  42   1    -0.01  -0.01   0.02     0.03   0.02   0.00     0.01   0.09   0.02
  43   1    -0.01   0.00   0.03     0.03   0.01  -0.00     0.00   0.08   0.01
  44   8     0.03  -0.04   0.01     0.12   0.05   0.03    -0.02   0.28   0.05
  45   1    -0.00  -0.01  -0.00     0.03   0.01   0.01    -0.01   0.05   0.01
  46   1     0.01  -0.01   0.01     0.03   0.01   0.01    -0.02   0.07  -0.01
  47   8     0.10   0.05   0.20     0.19  -0.03  -0.05     0.03  -0.11   0.02
  48   1     0.00   0.01   0.04     0.03   0.01  -0.01    -0.00  -0.02   0.01
  49   1     0.03   0.02   0.05     0.03  -0.02  -0.00     0.01  -0.03   0.01
  50   8     0.01  -0.02   0.07    -0.03   0.03   0.25    -0.13  -0.12  -0.06
  51   1    -0.02   0.00  -0.00    -0.01   0.01   0.05    -0.03  -0.03  -0.01
  52   1     0.02  -0.03   0.01    -0.00  -0.00   0.06    -0.03  -0.02  -0.01
  53   8     0.25   0.06  -0.22     0.14  -0.10  -0.01     0.10  -0.11  -0.14
  54   1     0.05   0.02  -0.02     0.05  -0.01  -0.01     0.02  -0.03  -0.02
  55   1     0.05   0.02  -0.06     0.01  -0.02   0.01     0.02  -0.03  -0.02
  56   8    -0.03   0.02   0.04    -0.06  -0.01   0.13    -0.15  -0.01   0.06
  57   1    -0.00   0.00   0.02    -0.01   0.00   0.04    -0.03  -0.01   0.00
  58   1    -0.01   0.01   0.03    -0.01   0.01   0.04    -0.04  -0.00   0.02
  59   8    -0.08   0.03  -0.09     0.04  -0.02  -0.00    -0.11   0.01   0.05
  60   1    -0.03   0.03  -0.01     0.01  -0.02  -0.01    -0.02   0.00   0.03
  61   1    -0.01   0.01  -0.03    -0.01  -0.01  -0.00    -0.04  -0.00   0.02
  62   8    -0.09  -0.03  -0.00     0.11  -0.06   0.10     0.18   0.00   0.09
  63   1    -0.02   0.01   0.01     0.02  -0.02   0.03     0.03  -0.00   0.03
  64   1    -0.03  -0.01  -0.01     0.02  -0.02   0.02     0.04  -0.00   0.01
  65   8     0.09  -0.20  -0.20    -0.05  -0.05   0.03    -0.02  -0.04   0.06
  66   1     0.03  -0.06  -0.04    -0.00  -0.02   0.02    -0.01  -0.01   0.01
  67   1    -0.01  -0.03  -0.05    -0.00   0.00   0.01    -0.02  -0.02   0.02
  68   8    -0.18  -0.06  -0.04    -0.08   0.03  -0.00    -0.12   0.13  -0.05
  69   1    -0.04  -0.01  -0.01    -0.01   0.01   0.01    -0.02   0.03   0.00
  70   1    -0.04  -0.01  -0.02    -0.01  -0.01   0.01    -0.02   0.02  -0.01
  71   8     0.06  -0.11   0.05    -0.05  -0.09  -0.09    -0.01   0.03   0.22
  72   1     0.02  -0.04  -0.02    -0.02  -0.03  -0.02     0.00   0.01   0.05
  73   1     0.00  -0.01   0.01    -0.02  -0.02  -0.01     0.01   0.01   0.04
  74   8    -0.09  -0.11  -0.01     0.05   0.00   0.08    -0.09   0.13   0.01
  75   1    -0.02  -0.02   0.01     0.02   0.01   0.01    -0.01   0.05   0.01
  76   1    -0.03  -0.03   0.00     0.01   0.00   0.01    -0.04   0.04  -0.00
  77   8    -0.06  -0.04  -0.09    -0.15   0.21  -0.00     0.10  -0.09  -0.02
  78   1    -0.02  -0.01  -0.02    -0.03   0.04   0.00     0.01  -0.01  -0.01
  79   1    -0.01  -0.01  -0.02    -0.05   0.04  -0.01     0.03  -0.02   0.01
  80   8    -0.08  -0.04   0.06     0.13  -0.01  -0.10     0.09   0.15  -0.16
  81   1    -0.02  -0.02  -0.01     0.04  -0.00  -0.06     0.03   0.04  -0.07
  82   1    -0.02  -0.01   0.01     0.03  -0.00   0.00     0.03   0.03  -0.01
  83   8    -0.01   0.13   0.06     0.08  -0.12   0.07     0.09  -0.11   0.08
  84   1    -0.00   0.04   0.00     0.02  -0.03   0.02     0.02  -0.02   0.02
  85   1    -0.00   0.03   0.03     0.02  -0.03   0.00     0.02  -0.02  -0.01
  86   8    -0.04  -0.02   0.01    -0.27   0.08  -0.05     0.13  -0.08   0.13
  87   1     0.00  -0.02   0.01    -0.09   0.03  -0.02     0.06  -0.02   0.04
  88   1    -0.01  -0.00   0.01    -0.05   0.01  -0.01     0.01  -0.02   0.02
  89   8     0.19  -0.21   0.02     0.06  -0.09   0.22    -0.11  -0.01  -0.06
  90   1     0.05  -0.07   0.02     0.02  -0.03   0.07    -0.02   0.01  -0.01
  91   1     0.03  -0.02  -0.02     0.01  -0.01   0.04    -0.02  -0.00  -0.03
                     10                     11                     12
                        a                      a                      a 
 Frequencies --    54.1134                56.1406                59.1039
 Red. masses --    13.9917                14.0274                14.3760
 Frc consts  --     0.0000                 0.0000                 0.0000
 IR Inten    --     0.1478                 1.1530                 1.6097
 Raman Activ --     0.0000                 0.0000                 0.0000
 Depolar     --     0.0000                 0.0000                 0.0000
 Atom AN      X      Y      Z        X      Y      Z        X      Y      Z
   1   6     0.01  -0.13  -0.09     0.04  -0.07  -0.09    -0.00  -0.02   0.00
   2   6     0.02  -0.13  -0.00     0.06  -0.03   0.02     0.01  -0.00   0.06
   3   6    -0.00  -0.08   0.05     0.06   0.01   0.06    -0.03  -0.03   0.05
   4   6     0.01  -0.11  -0.05     0.01  -0.03  -0.04    -0.03  -0.02  -0.03
   5   1    -0.00  -0.04  -0.04     0.00  -0.02  -0.05    -0.00  -0.01  -0.00
   6   1     0.01  -0.04  -0.00     0.01  -0.01   0.01     0.01   0.00   0.03
   7   1    -0.01  -0.01   0.02     0.02   0.01   0.01    -0.01  -0.02   0.02
   8   1     0.01  -0.02  -0.01    -0.01   0.01  -0.02    -0.01  -0.01  -0.01
   9   1     0.01  -0.05  -0.03     0.03  -0.04  -0.03     0.01  -0.00  -0.00
  10   1     0.01  -0.05   0.00     0.03  -0.02   0.01     0.01   0.01   0.01
  11   1     0.01  -0.02   0.03     0.01  -0.00   0.02    -0.01  -0.01   0.01
  12   1    -0.00  -0.02   0.01     0.02   0.01   0.03    -0.01  -0.01   0.01
  13   8    -0.00  -0.13  -0.08     0.02  -0.05  -0.04    -0.01  -0.01   0.05
  14   7    -0.06  -0.14  -0.02     0.17  -0.09   0.07    -0.04  -0.01  -0.05
  15   1    -0.02  -0.03   0.01     0.06  -0.04   0.03    -0.01  -0.00  -0.02
  16   1    -0.02  -0.04  -0.01     0.05  -0.04   0.02    -0.00  -0.00  -0.01
  17   8    -0.10  -0.09  -0.18     0.02  -0.03   0.00     0.03  -0.06   0.07
  18   1    -0.03  -0.03  -0.04    -0.00  -0.02  -0.01     0.00  -0.03   0.00
  19   1    -0.03  -0.02  -0.04    -0.01   0.00   0.01    -0.01  -0.01   0.03
  20   8     0.08   0.07   0.03    -0.02   0.01   0.04     0.07  -0.04   0.16
  21   1     0.01   0.02   0.02     0.00  -0.00   0.00     0.01   0.00   0.05
  22   1     0.02   0.02   0.02    -0.01   0.00   0.01     0.02  -0.02   0.03
  23   8     0.00   0.01  -0.10     0.02  -0.04  -0.03     0.19   0.08   0.02
  24   1     0.00  -0.01  -0.03     0.01  -0.01  -0.01     0.03   0.02   0.01
  25   1     0.00   0.00  -0.02     0.00  -0.03  -0.00     0.05   0.02  -0.01
  26   8    -0.03   0.01   0.04     0.01  -0.15   0.09     0.26   0.06  -0.17
  27   1    -0.02   0.01   0.01    -0.01  -0.05   0.03     0.08   0.02  -0.05
  28   1     0.01   0.00   0.01     0.02  -0.04  -0.00     0.04   0.01  -0.02
  29   8     0.12   0.04   0.06     0.19  -0.14  -0.20    -0.01   0.02   0.10
  30   1     0.04   0.02   0.02    -0.02  -0.03  -0.11     0.03  -0.01   0.06
  31   1     0.03   0.00   0.01     0.04  -0.02   0.01    -0.00   0.01  -0.00
  32   8     0.06   0.05  -0.06     0.03  -0.03  -0.01     0.05  -0.09   0.05
  33   1    -0.00  -0.00  -0.03     0.01  -0.01  -0.00     0.01  -0.02   0.02
  34   1     0.02   0.01  -0.02     0.01  -0.01  -0.01     0.02  -0.02   0.02
  35   8    -0.00   0.06  -0.01    -0.06   0.02  -0.14    -0.14   0.04  -0.08
  36   1    -0.01   0.00   0.00    -0.01   0.00  -0.03    -0.02   0.01  -0.02
  37   1     0.01   0.02   0.01     0.01   0.01  -0.03    -0.02   0.01  -0.02
  38   8    -0.24   0.42  -0.10     0.21   0.03  -0.04    -0.01  -0.07  -0.06
  39   1    -0.04   0.07  -0.00     0.03   0.02  -0.03     0.00  -0.02  -0.01
  40   1    -0.06   0.13  -0.04     0.04  -0.01   0.01     0.00  -0.03  -0.02
  41   8    -0.02  -0.10  -0.06    -0.09   0.04   0.05     0.05  -0.08  -0.00
  42   1     0.00  -0.01   0.00    -0.02   0.00  -0.00     0.01  -0.02   0.00
  43   1    -0.01  -0.02  -0.01    -0.03   0.02   0.02     0.02  -0.01   0.02
  44   8     0.07   0.11   0.10    -0.03   0.05   0.01     0.04  -0.08   0.03
  45   1     0.01   0.02   0.02     0.02   0.02   0.02    -0.01  -0.02   0.00
  46   1     0.03   0.03   0.02     0.00   0.01   0.01     0.01  -0.02   0.01
  47   8    -0.05  -0.01   0.04    -0.06  -0.01   0.12     0.15   0.06  -0.20
  48   1    -0.01  -0.00   0.01    -0.01  -0.00   0.03     0.05   0.02  -0.05
  49   1    -0.00   0.00   0.01    -0.00  -0.00   0.03     0.05   0.01  -0.04
  50   8    -0.14   0.30   0.21    -0.07  -0.01  -0.01    -0.20  -0.08  -0.04
  51   1    -0.06   0.08   0.03     0.01  -0.00  -0.00    -0.03  -0.02  -0.01
  52   1    -0.01   0.05   0.05    -0.02   0.00  -0.00    -0.04  -0.01  -0.01
  53   8    -0.12  -0.11   0.04    -0.01  -0.05  -0.14     0.04  -0.04  -0.11
  54   1    -0.02  -0.02   0.01    -0.01  -0.01  -0.01     0.02  -0.00  -0.04
  55   1    -0.05  -0.03   0.03    -0.01  -0.01  -0.03    -0.01  -0.01  -0.02
  56   8    -0.09  -0.07  -0.15    -0.11   0.08   0.08    -0.15   0.01   0.17
  57   1    -0.03   0.02  -0.00    -0.03   0.01   0.01    -0.04  -0.01   0.02
  58   1    -0.01  -0.02  -0.05    -0.03   0.02   0.02    -0.03   0.01   0.05
  59   8    -0.02  -0.07   0.08     0.28   0.06   0.20    -0.11  -0.08  -0.07
  60   1     0.01  -0.02   0.03     0.07  -0.04   0.02    -0.03  -0.02  -0.02
  61   1    -0.02  -0.03   0.02     0.05   0.01   0.06    -0.02  -0.02  -0.01
  62   8     0.02   0.04   0.05    -0.07  -0.10   0.10     0.06   0.13   0.19
  63   1     0.00   0.02   0.02    -0.02  -0.01   0.03     0.01   0.03   0.05
  64   1     0.00   0.01   0.01    -0.01  -0.01   0.01     0.01   0.03   0.04
  65   8     0.03  -0.00  -0.18    -0.03   0.08  -0.05    -0.16   0.12  -0.03
  66   1     0.01  -0.01  -0.02    -0.02   0.02  -0.01    -0.03   0.03  -0.02
  67   1    -0.02   0.03  -0.04     0.04   0.02  -0.01    -0.02   0.02  -0.01
  68   8     0.06  -0.00  -0.03    -0.18   0.14  -0.07    -0.19   0.04   0.05
  69   1     0.00  -0.01  -0.01    -0.04   0.03   0.00    -0.05   0.00   0.03
  70   1     0.01   0.02  -0.01    -0.04   0.03  -0.03    -0.05   0.02  -0.01
  71   8    -0.03   0.01   0.08    -0.04   0.03  -0.18    -0.16   0.10  -0.13
  72   1    -0.00   0.00   0.01    -0.02   0.01  -0.03    -0.04   0.03  -0.02
  73   1    -0.00   0.01   0.00    -0.01  -0.00  -0.04    -0.03   0.02  -0.04
  74   8    -0.02   0.03   0.06    -0.03   0.07  -0.25     0.03  -0.09  -0.03
  75   1    -0.01  -0.00   0.01    -0.01   0.02  -0.04     0.01  -0.02  -0.01
  76   1     0.01  -0.00  -0.00    -0.01   0.02  -0.05    -0.00  -0.02  -0.00
  77   8     0.14  -0.02  -0.02     0.04   0.10   0.33    -0.00  -0.03  -0.15
  78   1     0.03  -0.01   0.00     0.02   0.02   0.08    -0.00  -0.02  -0.03
  79   1     0.04  -0.00  -0.01     0.01   0.03   0.06     0.00  -0.00  -0.04
  80   8    -0.01   0.03   0.13    -0.19   0.05   0.06     0.07   0.10   0.31
  81   1    -0.00   0.01   0.05    -0.04   0.02  -0.01     0.01   0.02   0.06
  82   1    -0.00   0.01   0.02    -0.04   0.00   0.03     0.02   0.03   0.07
  83   8     0.05   0.05   0.06     0.01  -0.02   0.12     0.15  -0.04   0.05
  84   1     0.01   0.02   0.01     0.00  -0.00   0.03     0.03  -0.01  -0.01
  85   1     0.02   0.01   0.01     0.00  -0.00   0.02     0.03  -0.01   0.02
  86   8     0.13  -0.03  -0.05    -0.10   0.02  -0.05     0.07   0.04  -0.16
  87   1     0.04  -0.01  -0.01    -0.08   0.02  -0.04     0.03  -0.00  -0.03
  88   1     0.02  -0.00  -0.02    -0.01  -0.00  -0.01     0.03   0.01  -0.02
  89   8     0.13  -0.08   0.12    -0.04   0.06  -0.01    -0.06   0.09  -0.05
  90   1     0.04  -0.04   0.05    -0.00   0.03  -0.00    -0.01   0.03  -0.01
  91   1     0.03  -0.01   0.01    -0.00   0.01  -0.01    -0.00   0.00  -0.01
                     13                     14                     15
                        a                      a                      a 
 Frequencies --    59.3951                60.7027                63.6217
 Red. masses --    14.3213                14.1882                14.0853
 Frc consts  --     0.0000                 0.0000                 0.0000
 IR Inten    --     0.6079                 1.4691                 3.9721
 Raman Activ --     0.0000                 0.0000                 0.0000
 Depolar     --     0.0000                 0.0000                 0.0000
 Atom AN      X      Y      Z        X      Y      Z        X      Y      Z
   1   6     0.07  -0.01  -0.03    -0.03  -0.08   0.02    -0.05   0.05   0.15
   2   6     0.06  -0.08   0.02    -0.02  -0.01   0.02    -0.06   0.07   0.03
   3   6     0.03  -0.10   0.01     0.02   0.02   0.03     0.04   0.07  -0.01
   4   6    -0.01   0.01  -0.04     0.04  -0.14  -0.03    -0.03   0.04   0.15
   5   1     0.03   0.01  -0.02    -0.02  -0.03   0.02    -0.01   0.01   0.05
   6   1     0.02  -0.03   0.01    -0.01   0.01   0.00    -0.03   0.02  -0.01
   7   1    -0.00  -0.03   0.01    -0.01   0.02   0.01     0.03   0.02  -0.02
   8   1    -0.00   0.01  -0.01     0.03  -0.06  -0.00    -0.01   0.01   0.04
   9   1     0.03  -0.00  -0.01    -0.01  -0.01   0.00    -0.02   0.02   0.04
  10   1     0.02  -0.02   0.00    -0.00  -0.01   0.01    -0.03   0.02   0.02
  11   1     0.02  -0.02   0.00     0.02   0.02   0.01    -0.00   0.02  -0.02
  12   1     0.01  -0.04  -0.01     0.01  -0.01   0.00     0.02   0.02   0.02
  13   8     0.09  -0.08   0.02    -0.05  -0.04   0.03    -0.05   0.05   0.13
  14   7    -0.07   0.01  -0.04    -0.01  -0.10  -0.15     0.04   0.04   0.18
  15   1    -0.03   0.01  -0.02    -0.00  -0.03  -0.04     0.02  -0.00   0.05
  16   1    -0.01  -0.00  -0.01    -0.02  -0.00  -0.04     0.01   0.02   0.05
  17   8     0.02   0.05  -0.06     0.05  -0.16   0.10    -0.11  -0.01  -0.17
  18   1     0.01   0.03  -0.01     0.01  -0.04   0.02    -0.02   0.00  -0.03
  19   1     0.01   0.00  -0.01     0.01  -0.03   0.02    -0.02  -0.02  -0.04
  20   8    -0.03  -0.07  -0.04    -0.11   0.13   0.14    -0.07  -0.04  -0.01
  21   1    -0.01  -0.01  -0.01    -0.02   0.04   0.03    -0.01  -0.01  -0.01
  22   1    -0.02  -0.00   0.00    -0.04   0.03   0.01    -0.02  -0.01  -0.01
  23   8    -0.07  -0.18   0.03     0.01  -0.03   0.05     0.10  -0.09   0.14
  24   1    -0.01  -0.05   0.01    -0.00  -0.01   0.01     0.01  -0.02   0.03
  25   1    -0.02  -0.01   0.01     0.00  -0.01   0.01     0.03  -0.02   0.02
  26   8    -0.08   0.19   0.01     0.01  -0.01   0.05     0.18  -0.01  -0.10
  27   1    -0.02   0.04   0.00    -0.00  -0.00   0.02     0.06   0.00  -0.03
  28   1    -0.01   0.05  -0.01     0.01  -0.00   0.01     0.04  -0.00  -0.02
  29   8     0.02   0.19  -0.20     0.06  -0.00  -0.05     0.06  -0.02   0.04
  30   1     0.00   0.06  -0.06    -0.00   0.00  -0.03     0.00  -0.02   0.01
  31   1     0.01   0.03  -0.04     0.01   0.01  -0.00     0.01   0.00   0.02
  32   8     0.18   0.11   0.04     0.03  -0.03   0.15     0.14   0.02  -0.03
  33   1     0.04   0.02   0.00     0.01  -0.01   0.03     0.03  -0.00  -0.02
  34   1     0.04   0.01  -0.00     0.01  -0.01   0.04     0.04   0.01  -0.01
  35   8    -0.14   0.17   0.06    -0.13  -0.23  -0.02     0.01  -0.06   0.08
  36   1    -0.02   0.04   0.01    -0.02  -0.05  -0.01    -0.00   0.00   0.02
  37   1    -0.05   0.04   0.02    -0.07  -0.06  -0.01    -0.01  -0.02   0.01
  38   8     0.16  -0.12  -0.09    -0.02   0.02  -0.01    -0.14   0.05  -0.09
  39   1     0.03  -0.02  -0.04    -0.02  -0.01  -0.02    -0.03   0.01  -0.02
  40   1     0.03  -0.02  -0.01    -0.02   0.01   0.02    -0.03   0.01  -0.03
  41   8    -0.03   0.01   0.00    -0.03   0.04  -0.32     0.01   0.29   0.19
  42   1    -0.01   0.01   0.01    -0.02   0.02  -0.05    -0.01   0.04   0.01
  43   1    -0.00   0.00   0.01     0.01  -0.00  -0.07     0.01   0.05   0.03
  44   8    -0.14   0.05   0.13    -0.25   0.07  -0.11    -0.13  -0.05  -0.11
  45   1    -0.04   0.01   0.03    -0.04   0.01  -0.02    -0.01   0.00  -0.01
  46   1    -0.04   0.01   0.02    -0.07   0.02  -0.05    -0.06  -0.02  -0.03
  47   8    -0.02   0.01  -0.04     0.03   0.06   0.09     0.01   0.06  -0.13
  48   1    -0.01   0.02  -0.01     0.00   0.01   0.02     0.02   0.01  -0.03
  49   1    -0.01  -0.01   0.00     0.01   0.02   0.02    -0.00   0.02  -0.03
  50   8     0.22  -0.17   0.07     0.03   0.04  -0.06    -0.10   0.00   0.01
  51   1     0.06  -0.04   0.01     0.01   0.01  -0.01    -0.04   0.00  -0.00
  52   1     0.07  -0.04   0.02     0.01   0.01  -0.01     0.00  -0.00  -0.00
  53   8     0.00   0.09   0.05     0.01  -0.09  -0.08    -0.07   0.06   0.06
  54   1    -0.00   0.01   0.00     0.01  -0.01  -0.00    -0.01   0.02   0.00
  55   1     0.01   0.02   0.02    -0.00  -0.01  -0.05    -0.02   0.01   0.02
  56   8     0.04  -0.05  -0.04     0.09   0.01   0.00    -0.07  -0.17  -0.16
  57   1     0.03  -0.02  -0.00     0.02   0.00  -0.01    -0.02  -0.03  -0.02
  58   1    -0.01  -0.02  -0.01     0.03   0.01   0.01    -0.02  -0.05  -0.06
  59   8    -0.22  -0.01   0.11    -0.03   0.02   0.07     0.17   0.06   0.04
  60   1    -0.06   0.02   0.04    -0.01   0.03   0.03     0.05  -0.04  -0.02
  61   1    -0.04  -0.00   0.02    -0.01  -0.00  -0.00     0.03   0.02   0.04
  62   8    -0.13   0.13   0.15     0.20   0.17  -0.07     0.09   0.06   0.02
  63   1    -0.03   0.03   0.04     0.04   0.04  -0.01     0.02   0.00   0.00
  64   1    -0.03   0.03   0.04     0.02   0.02  -0.02     0.02   0.01   0.01
  65   8    -0.07   0.05  -0.04     0.08   0.08   0.02    -0.11   0.01  -0.13
  66   1     0.01   0.01  -0.01     0.02   0.02   0.00    -0.00  -0.00  -0.03
  67   1    -0.00   0.01  -0.01     0.01   0.01   0.01    -0.02   0.00  -0.03
  68   8     0.03  -0.01  -0.06    -0.10  -0.19  -0.01     0.09  -0.16   0.07
  69   1     0.00  -0.01  -0.02    -0.02  -0.03  -0.01     0.02  -0.03  -0.00
  70   1     0.00   0.01  -0.02    -0.02  -0.06   0.00     0.02  -0.04   0.03
  71   8    -0.20  -0.01   0.07     0.04   0.10   0.12    -0.13  -0.11  -0.23
  72   1    -0.04   0.01   0.00     0.02   0.03   0.01    -0.04  -0.02  -0.03
  73   1    -0.04  -0.01   0.02     0.00   0.02   0.05    -0.03  -0.04  -0.04
  74   8     0.02  -0.02  -0.22    -0.16  -0.12  -0.14    -0.08  -0.03  -0.02
  75   1     0.00  -0.00  -0.04    -0.03  -0.03  -0.05    -0.02  -0.00   0.03
  76   1     0.01  -0.00  -0.04    -0.04  -0.03  -0.03    -0.02  -0.01   0.00
  77   8     0.10   0.01  -0.07    -0.00   0.09   0.05     0.02   0.01   0.15
  78   1     0.00  -0.01  -0.01    -0.01   0.02   0.02     0.02   0.01   0.03
  79   1     0.02  -0.02   0.00    -0.00   0.02   0.02    -0.00  -0.00   0.03
  80   8    -0.01   0.03   0.07     0.28   0.06  -0.07     0.18  -0.00  -0.13
  81   1    -0.01   0.00   0.01     0.06   0.00  -0.01     0.04  -0.01  -0.04
  82   1    -0.01   0.02   0.03     0.06   0.02  -0.03     0.04   0.01  -0.02
  83   8    -0.03  -0.07  -0.01    -0.01   0.14   0.03    -0.03  -0.05  -0.01
  84   1    -0.01  -0.00  -0.02    -0.00   0.02   0.02    -0.01  -0.03   0.00
  85   1    -0.00  -0.02  -0.01    -0.01   0.04   0.02    -0.02  -0.01  -0.00
  86   8    -0.06  -0.18   0.07    -0.02   0.06   0.19    -0.09  -0.11  -0.02
  87   1    -0.02  -0.04   0.02     0.01   0.02   0.05    -0.05  -0.03  -0.01
  88   1    -0.02  -0.05   0.01    -0.00   0.01   0.04    -0.00  -0.03   0.02
  89   8     0.29  -0.02   0.08     0.03   0.07  -0.05     0.14  -0.00  -0.01
  90   1     0.06  -0.00   0.01     0.00   0.01  -0.01     0.04  -0.00   0.00
  91   1     0.06   0.01   0.01     0.01   0.01   0.01     0.03   0.00  -0.01
                     16                     17                     18
                        a                      a                      a 
 Frequencies --    64.8057                66.0696                68.2197
 Red. masses --    14.0967                14.2561                14.1885
 Frc consts  --     0.0000                 0.0000                 0.0000
 IR Inten    --     1.4520                 0.0912                 4.6451
 Raman Activ --     0.0000                 0.0000                 0.0000
 Depolar     --     0.0000                 0.0000                 0.0000
 Atom AN      X      Y      Z        X      Y      Z        X      Y      Z
   1   6     0.11   0.03  -0.05    -0.03   0.05  -0.05    -0.01   0.08  -0.07
   2   6     0.10  -0.07   0.01    -0.03  -0.00   0.04    -0.02  -0.04  -0.02
   3   6     0.13  -0.03   0.03    -0.04   0.05   0.08     0.00   0.01   0.01
   4   6     0.00   0.05  -0.07    -0.12   0.08  -0.06    -0.09   0.11  -0.08
   5   1     0.04   0.02  -0.02    -0.00   0.02  -0.02     0.01   0.03  -0.03
   6   1     0.03  -0.03  -0.01    -0.01  -0.01   0.00    -0.01  -0.02  -0.03
   7   1     0.03   0.00   0.00    -0.02   0.02   0.02     0.02   0.01  -0.02
   8   1    -0.01   0.02  -0.02    -0.05   0.03  -0.02    -0.04   0.04  -0.02
   9   1     0.04   0.01  -0.01     0.00   0.01  -0.02     0.00   0.03  -0.02
  10   1     0.02  -0.03   0.01    -0.01  -0.01   0.02    -0.02  -0.02   0.01
  11   1     0.04  -0.01   0.01    -0.01   0.01   0.04    -0.01  -0.01   0.01
  12   1     0.04  -0.01   0.01    -0.01   0.02   0.02     0.01   0.02   0.03
  13   8     0.14  -0.06   0.01    -0.03   0.02  -0.01     0.01   0.01  -0.04
  14   7    -0.03   0.06  -0.07    -0.08   0.07  -0.02     0.01   0.10  -0.03
  15   1    -0.01   0.02  -0.01    -0.02   0.02  -0.01     0.01   0.01  -0.00
  16   1    -0.01   0.01  -0.02    -0.01   0.01  -0.00     0.00   0.02  -0.01
  17   8     0.01   0.03   0.02     0.01  -0.04   0.02     0.06   0.06  -0.08
  18   1     0.01   0.02   0.01    -0.00  -0.02   0.01     0.01   0.01  -0.01
  19   1     0.01   0.00   0.00     0.00   0.00   0.00     0.02   0.03  -0.03
  20   8     0.05   0.10  -0.02    -0.08   0.13   0.15    -0.04  -0.13   0.10
  21   1     0.00   0.03   0.01    -0.02   0.02   0.03    -0.01  -0.01   0.03
  22   1     0.01   0.03   0.00    -0.02   0.03   0.04    -0.01  -0.03   0.02
  23   8     0.04  -0.13   0.01    -0.01   0.09  -0.02    -0.09  -0.11  -0.04
  24   1     0.02  -0.03   0.00    -0.00   0.03  -0.01    -0.02  -0.02  -0.01
  25   1     0.01  -0.02   0.01    -0.00   0.01  -0.00    -0.02  -0.03  -0.01
  26   8     0.05   0.09   0.06     0.01  -0.06   0.04    -0.05  -0.11  -0.13
  27   1     0.01   0.01   0.02    -0.01  -0.00   0.01    -0.01  -0.01  -0.04
  28   1     0.02   0.02  -0.00     0.02  -0.01   0.02     0.00  -0.02  -0.02
  29   8     0.08   0.07  -0.18     0.24  -0.01   0.11     0.10  -0.07   0.01
  30   1    -0.01   0.03  -0.08     0.07   0.00   0.03     0.01  -0.02  -0.01
  31   1     0.02   0.03  -0.02     0.06   0.00   0.01     0.02  -0.01   0.02
  32   8     0.06  -0.12  -0.03    -0.09  -0.01   0.02    -0.11  -0.11  -0.20
  33   1     0.02  -0.02   0.00    -0.02  -0.01   0.00    -0.02  -0.02  -0.04
  34   1     0.02  -0.03  -0.01    -0.02   0.01   0.01    -0.03  -0.02  -0.04
  35   8     0.10  -0.06   0.08     0.13  -0.18   0.05    -0.16   0.12  -0.02
  36   1     0.02  -0.01   0.02     0.03  -0.05   0.01    -0.02   0.02  -0.01
  37   1     0.05  -0.01   0.01     0.04  -0.04   0.02    -0.07   0.03   0.01
  38   8    -0.40  -0.17   0.11     0.12  -0.07  -0.01     0.00   0.06   0.16
  39   1    -0.08  -0.04   0.05     0.02  -0.01  -0.01     0.00   0.00   0.04
  40   1    -0.09  -0.05   0.01     0.02  -0.00   0.00    -0.00   0.03   0.04
  41   8    -0.12  -0.13  -0.15    -0.02   0.02   0.04     0.08  -0.03  -0.04
  42   1    -0.02  -0.01  -0.02    -0.01   0.01   0.02     0.01  -0.01  -0.00
  43   1    -0.04  -0.02  -0.03    -0.00  -0.01  -0.00     0.03  -0.01   0.00
  44   8     0.02   0.18   0.02    -0.03   0.10   0.12    -0.14  -0.13   0.05
  45   1     0.00   0.05   0.00    -0.02   0.03   0.02    -0.02  -0.01   0.02
  46   1     0.02   0.05   0.01     0.00   0.03   0.04    -0.06  -0.04   0.02
  47   8     0.04   0.06   0.04     0.11  -0.00   0.09     0.03  -0.11  -0.12
  48   1     0.01   0.02   0.01     0.02  -0.01   0.01     0.00  -0.03  -0.03
  49   1     0.01   0.01   0.01     0.02   0.01   0.00     0.01  -0.03  -0.03
  50   8    -0.02  -0.05  -0.14     0.15  -0.13   0.17     0.15   0.11   0.05
  51   1    -0.04  -0.02  -0.02     0.04  -0.03   0.04     0.03   0.03   0.01
  52   1     0.00  -0.01  -0.03     0.02  -0.03   0.04     0.01   0.02   0.01
  53   8     0.01   0.03   0.08     0.02  -0.15   0.06     0.06  -0.02  -0.03
  54   1     0.00   0.01   0.02     0.02  -0.02   0.02     0.01  -0.02  -0.02
  55   1     0.01   0.01   0.01    -0.01  -0.03   0.01     0.03  -0.01  -0.01
  56   8     0.05  -0.02  -0.01    -0.00  -0.05   0.01     0.04   0.14  -0.11
  57   1     0.01  -0.01  -0.02     0.02  -0.02   0.02     0.02   0.03  -0.01
  58   1     0.01  -0.00  -0.00    -0.02  -0.02   0.00    -0.00   0.03  -0.02
  59   8     0.02   0.16  -0.00    -0.10   0.10   0.04     0.05   0.18   0.09
  60   1     0.00   0.03  -0.01    -0.03   0.02   0.00    -0.00   0.07   0.02
  61   1    -0.00   0.03  -0.01    -0.02   0.03   0.01     0.03   0.05   0.01
  62   8     0.04  -0.10   0.01     0.07  -0.09  -0.28     0.05   0.30   0.06
  63   1     0.02  -0.02  -0.00     0.02  -0.02  -0.07     0.01   0.06   0.02
  64   1     0.02  -0.02   0.01     0.02  -0.03  -0.06    -0.00   0.06   0.02
  65   8    -0.08  -0.01   0.09    -0.25  -0.02   0.01     0.00  -0.15   0.11
  66   1    -0.01   0.00   0.00    -0.06  -0.01   0.01    -0.03  -0.04   0.04
  67   1    -0.05  -0.02   0.02    -0.03  -0.00   0.00     0.00  -0.02   0.03
  68   8     0.06  -0.00   0.03     0.04   0.00  -0.05    -0.04   0.02  -0.11
  69   1     0.01   0.00  -0.00     0.01   0.00  -0.01    -0.01   0.01  -0.04
  70   1     0.01   0.00   0.01     0.01  -0.01   0.00    -0.01   0.01  -0.03
  71   8    -0.07  -0.07  -0.14    -0.20   0.03  -0.13     0.06  -0.11   0.01
  72   1    -0.02  -0.02  -0.02    -0.06   0.01  -0.02     0.01  -0.03  -0.00
  73   1    -0.02  -0.02  -0.03    -0.03   0.01  -0.05     0.01  -0.02   0.00
  74   8    -0.18   0.01   0.31     0.02   0.01  -0.11     0.04  -0.02   0.17
  75   1    -0.05  -0.01   0.04     0.00   0.00  -0.02     0.01  -0.00   0.03
  76   1    -0.04  -0.00   0.05     0.01   0.00  -0.02     0.00  -0.01   0.02
  77   8     0.01   0.15   0.02     0.18   0.07  -0.11     0.06  -0.00   0.17
  78   1     0.00   0.03   0.01     0.04   0.01  -0.02     0.02   0.01   0.04
  79   1    -0.01   0.02   0.01     0.04   0.02  -0.03     0.01  -0.00   0.04
  80   8    -0.11   0.02   0.09     0.00  -0.06  -0.07     0.22   0.08   0.19
  81   1    -0.03   0.01   0.05     0.00  -0.01  -0.01     0.05   0.00   0.03
  82   1    -0.02  -0.01   0.01     0.01  -0.02  -0.04     0.04   0.03   0.04
  83   8     0.13   0.01   0.06     0.00   0.18  -0.10     0.01  -0.04  -0.12
  84   1     0.03   0.00   0.02     0.00   0.03  -0.01    -0.00  -0.01  -0.05
  85   1     0.03   0.01   0.01    -0.01   0.04   0.00    -0.00  -0.01  -0.01
  86   8    -0.19  -0.05  -0.07     0.05  -0.04  -0.26    -0.08  -0.10  -0.03
  87   1    -0.09  -0.00  -0.04    -0.01  -0.03  -0.07    -0.05  -0.01  -0.02
  88   1    -0.03  -0.02  -0.01     0.01   0.00  -0.05    -0.02  -0.03  -0.01
  89   8    -0.01   0.02  -0.15    -0.08  -0.10   0.23    -0.21  -0.10   0.09
  90   1    -0.00   0.02  -0.04    -0.02  -0.01   0.05    -0.05  -0.00   0.02
  91   1     0.01  -0.01  -0.03    -0.02  -0.02   0.04    -0.05  -0.03  -0.00
                     19                     20                     21
                        a                      a                      a 
 Frequencies --    69.9183                71.6308                73.0788
 Red. masses --    13.9964                14.4232                13.4019
 Frc consts  --     0.0000                 0.0000                 0.0000
 IR Inten    --     0.5411                 1.3030                 3.4450
 Raman Activ --     0.0000                 0.0000                 0.0000
 Depolar     --     0.0000                 0.0000                 0.0000
 Atom AN      X      Y      Z        X      Y      Z        X      Y      Z
   1   6     0.12  -0.06  -0.08     0.04   0.04  -0.01     0.05   0.07  -0.05
   2   6     0.14  -0.00   0.02     0.03  -0.01  -0.03     0.09   0.24  -0.04
   3   6     0.07  -0.02   0.04     0.06   0.04  -0.01     0.07   0.12  -0.13
   4   6     0.08   0.01   0.03     0.05   0.04  -0.01     0.07   0.05  -0.07
   5   1     0.02  -0.01  -0.06     0.01   0.01  -0.00    -0.00   0.01  -0.02
   6   1     0.05   0.00   0.03     0.01  -0.01  -0.02     0.02   0.09   0.03
   7   1    -0.00  -0.00   0.03     0.01   0.03  -0.00    -0.00   0.01  -0.00
   8   1    -0.00   0.04  -0.00     0.02   0.01   0.00     0.01   0.01  -0.02
   9   1     0.05  -0.05  -0.02     0.00   0.01  -0.00     0.03   0.02  -0.02
  10   1     0.06   0.00  -0.01    -0.00  -0.01   0.00     0.05   0.10  -0.04
  11   1     0.04   0.00   0.02     0.03   0.02   0.00     0.04   0.06  -0.06
  12   1     0.01  -0.02  -0.01     0.02   0.00  -0.00     0.02  -0.00  -0.07
  13   8     0.11  -0.02  -0.05     0.05   0.02  -0.04     0.01   0.15   0.02
  14   7     0.04  -0.04   0.15     0.05   0.04  -0.01    -0.00   0.08  -0.12
  15   1    -0.00   0.01   0.04     0.02   0.01   0.00    -0.01   0.03  -0.04
  16   1     0.02  -0.03   0.04     0.01   0.01  -0.00     0.01   0.02  -0.03
  17   8    -0.04  -0.11  -0.05    -0.07   0.21  -0.06    -0.17  -0.23  -0.07
  18   1    -0.01  -0.02  -0.01    -0.03   0.03  -0.01    -0.04  -0.06  -0.02
  19   1     0.00  -0.01  -0.02    -0.04   0.04   0.00    -0.04  -0.03  -0.03
  20   8    -0.01   0.09   0.19    -0.04  -0.01   0.15     0.06  -0.07   0.08
  21   1     0.01   0.02   0.03    -0.02   0.00   0.05     0.02  -0.03   0.01
  22   1    -0.00   0.01   0.03    -0.00  -0.01   0.03     0.01  -0.02   0.02
  23   8     0.05   0.03  -0.06    -0.14  -0.09  -0.02     0.00  -0.24   0.07
  24   1     0.02   0.00  -0.02    -0.02  -0.02  -0.00    -0.00  -0.04   0.02
  25   1     0.01   0.03  -0.01    -0.04  -0.01  -0.00     0.00  -0.06   0.01
  26   8     0.06   0.15  -0.04    -0.13   0.03  -0.08     0.05  -0.12  -0.07
  27   1     0.03   0.01  -0.00    -0.03   0.01  -0.02     0.00  -0.02  -0.02
  28   1    -0.02   0.03  -0.02    -0.03   0.01  -0.02     0.02  -0.03  -0.00
  29   8    -0.31   0.04  -0.24    -0.13   0.02  -0.13     0.09  -0.08   0.18
  30   1    -0.08   0.01  -0.06    -0.04   0.01  -0.04     0.04  -0.03   0.07
  31   1    -0.07  -0.01  -0.03    -0.02  -0.01  -0.01     0.01  -0.00   0.01
  32   8    -0.07  -0.17  -0.08     0.03   0.17  -0.05     0.07  -0.15   0.11
  33   1    -0.02  -0.04  -0.02     0.01   0.05  -0.01     0.00  -0.05   0.02
  34   1    -0.01  -0.04  -0.02     0.00   0.03  -0.02     0.02  -0.05   0.01
  35   8     0.01  -0.03   0.04     0.10  -0.26   0.14     0.04   0.00   0.01
  36   1     0.00  -0.01   0.01     0.01  -0.06   0.04    -0.00   0.00   0.00
  37   1     0.00  -0.01   0.01     0.04  -0.07   0.03     0.05   0.00  -0.01
  38   8     0.07   0.07   0.11     0.04  -0.02  -0.07     0.11   0.04   0.04
  39   1     0.00   0.02   0.01     0.02   0.01  -0.01     0.02   0.02   0.00
  40   1     0.01   0.02   0.05     0.02  -0.02  -0.02     0.03  -0.00   0.01
  41   8    -0.12   0.16   0.15     0.03  -0.10  -0.03    -0.04  -0.05  -0.01
  42   1    -0.03   0.02   0.01     0.00  -0.02   0.00    -0.01  -0.01   0.00
  43   1    -0.03   0.04   0.03     0.01  -0.03  -0.00    -0.01  -0.00   0.01
  44   8    -0.11  -0.01  -0.08    -0.03  -0.08   0.07    -0.02  -0.02   0.04
  45   1    -0.02  -0.02  -0.02    -0.01  -0.01   0.02    -0.01   0.00   0.01
  46   1    -0.03  -0.00  -0.04    -0.01  -0.02   0.02    -0.02  -0.01   0.02
  47   8     0.15   0.21  -0.00     0.05  -0.01  -0.06     0.06   0.08  -0.00
  48   1     0.03   0.05  -0.00     0.01  -0.01  -0.02     0.01   0.01  -0.01
  49   1     0.04   0.06  -0.00     0.01   0.01  -0.03     0.03   0.03  -0.00
  50   8     0.09   0.07   0.05    -0.22  -0.05  -0.01    -0.11   0.02   0.04
  51   1     0.02   0.02   0.02    -0.03  -0.01  -0.01    -0.01   0.00   0.02
  52   1    -0.00   0.02   0.02    -0.03  -0.01  -0.01    -0.02   0.01   0.01
  53   8     0.01   0.05   0.03    -0.08  -0.08   0.13    -0.07   0.01   0.05
  54   1     0.02   0.03   0.00    -0.01  -0.01   0.02    -0.00   0.02   0.01
  55   1    -0.02   0.02   0.01    -0.02  -0.02   0.02    -0.05   0.00   0.05
  56   8     0.05  -0.03  -0.13    -0.23   0.08   0.14    -0.16  -0.09  -0.18
  57   1     0.02   0.00  -0.02    -0.06   0.01   0.02    -0.04  -0.01  -0.03
  58   1     0.01  -0.02  -0.04    -0.06   0.02   0.04    -0.05  -0.03  -0.06
  59   8    -0.05  -0.21   0.00    -0.01   0.02   0.06    -0.12   0.10  -0.03
  60   1    -0.01  -0.07  -0.01    -0.02   0.02   0.01    -0.04   0.06   0.01
  61   1    -0.01  -0.03   0.03     0.02   0.01   0.01    -0.02   0.02  -0.03
  62   8    -0.01  -0.02  -0.03     0.16  -0.01  -0.26    -0.06  -0.13   0.05
  63   1     0.01   0.01  -0.01     0.06  -0.01  -0.08    -0.00  -0.03   0.01
  64   1    -0.00  -0.01  -0.00     0.03  -0.02  -0.04    -0.01  -0.03   0.01
  65   8     0.00  -0.02   0.09     0.13   0.04  -0.09     0.11   0.08   0.06
  66   1    -0.02  -0.00   0.03     0.04   0.01  -0.02     0.01   0.02   0.02
  67   1     0.01   0.00   0.02     0.02   0.01  -0.02     0.02   0.02   0.02
  68   8     0.05  -0.02  -0.10    -0.15   0.12   0.13    -0.00   0.08  -0.18
  69   1     0.01  -0.01  -0.02    -0.03   0.04   0.03    -0.01   0.01  -0.04
  70   1     0.01  -0.01  -0.01    -0.03   0.01   0.05    -0.00   0.02  -0.03
  71   8    -0.03  -0.05   0.06     0.01  -0.03   0.02     0.03   0.02   0.09
  72   1    -0.01  -0.01   0.02     0.01   0.00  -0.01     0.02   0.01   0.00
  73   1     0.01  -0.01  -0.00     0.00  -0.01   0.02    -0.00  -0.00   0.04
  74   8    -0.12   0.06  -0.07     0.09   0.05  -0.00     0.04   0.08  -0.04
  75   1    -0.03   0.02   0.00     0.02   0.01  -0.01     0.00   0.01  -0.02
  76   1    -0.03   0.01  -0.02     0.02   0.02   0.01     0.01   0.02  -0.02
  77   8    -0.14  -0.24   0.05    -0.00  -0.18   0.12    -0.01   0.12  -0.15
  78   1    -0.03  -0.06   0.01    -0.00  -0.03   0.02    -0.02   0.04  -0.04
  79   1    -0.03  -0.04  -0.00     0.00  -0.05   0.03    -0.01   0.00  -0.00
  80   8    -0.03  -0.01   0.02     0.04   0.03   0.16    -0.08  -0.07   0.00
  81   1    -0.00  -0.00  -0.01     0.01   0.01   0.05    -0.01  -0.01  -0.04
  82   1    -0.01  -0.00   0.00     0.02  -0.00  -0.01    -0.02  -0.02   0.02
  83   8     0.15   0.15  -0.00     0.12   0.09  -0.21     0.13  -0.00   0.00
  84   1     0.03   0.03  -0.01     0.03   0.00  -0.04     0.03  -0.00  -0.01
  85   1     0.03   0.04   0.02     0.02   0.02  -0.02     0.03  -0.00   0.01
  86   8     0.07  -0.00  -0.08     0.03  -0.14   0.11    -0.15  -0.09   0.25
  87   1     0.02   0.00  -0.02     0.01  -0.03   0.03    -0.02  -0.01   0.06
  88   1     0.02  -0.00  -0.02    -0.01  -0.03   0.01    -0.03  -0.04   0.04
  89   8    -0.20  -0.04   0.08     0.13   0.06  -0.06    -0.07   0.06   0.05
  90   1    -0.04   0.01   0.02     0.03  -0.00  -0.00    -0.01   0.02   0.02
  91   1    -0.04  -0.02   0.01     0.02   0.03  -0.02    -0.00  -0.01   0.02
                     22                     23                     24
                        a                      a                      a 
 Frequencies --    76.0379                76.8594                77.8779
 Red. masses --    14.0121                13.9039                14.3129
 Frc consts  --     0.0000                 0.0000                 0.0000
 IR Inten    --     0.6776                 4.3622                 2.0106
 Raman Activ --     0.0000                 0.0000                 0.0000
 Depolar     --     0.0000                 0.0000                 0.0000
 Atom AN      X      Y      Z        X      Y      Z        X      Y      Z
   1   6    -0.16  -0.05  -0.05     0.05  -0.14  -0.08    -0.04   0.00  -0.04
   2   6    -0.14   0.06  -0.04     0.08   0.01  -0.07    -0.04  -0.00  -0.05
   3   6    -0.15   0.07  -0.03     0.02  -0.04  -0.08    -0.03   0.01  -0.04
   4   6    -0.08  -0.06  -0.02     0.10  -0.10   0.03    -0.02  -0.03  -0.08
   5   1    -0.06  -0.02  -0.02     0.00  -0.04  -0.05    -0.01  -0.00  -0.00
   6   1    -0.04   0.02  -0.00     0.03   0.02   0.01    -0.01  -0.00  -0.02
   7   1    -0.03   0.02  -0.02    -0.03  -0.02   0.01     0.01   0.00  -0.03
   8   1    -0.01  -0.02  -0.00     0.01  -0.00   0.00    -0.00  -0.02  -0.02
   9   1    -0.05  -0.02  -0.01     0.02  -0.07  -0.02    -0.01   0.01  -0.01
  10   1    -0.03   0.01  -0.02     0.05   0.01  -0.04    -0.01  -0.00  -0.01
  11   1    -0.06   0.01  -0.01     0.03   0.01  -0.02    -0.03  -0.01  -0.01
  12   1    -0.04   0.03   0.00    -0.00  -0.03  -0.06    -0.01   0.02   0.01
  13   8    -0.21   0.04  -0.09     0.03  -0.04  -0.12    -0.04   0.00  -0.06
  14   7    -0.04  -0.08   0.00     0.03  -0.14   0.11     0.00  -0.01  -0.12
  15   1    -0.00  -0.03   0.01    -0.01  -0.02   0.03     0.01  -0.01  -0.03
  16   1    -0.02  -0.03  -0.00     0.02  -0.05   0.03    -0.00   0.01  -0.03
  17   8    -0.00  -0.06   0.02     0.03   0.17   0.04     0.13   0.16  -0.01
  18   1    -0.00  -0.03  -0.00     0.01   0.06   0.01     0.04   0.07   0.01
  19   1    -0.00   0.01  -0.00     0.01   0.01   0.02     0.04  -0.01   0.01
  20   8    -0.04   0.12   0.13     0.00  -0.07   0.14    -0.02   0.03   0.02
  21   1    -0.00   0.02   0.02     0.02  -0.03   0.02     0.01  -0.00  -0.01
  22   1    -0.01   0.03   0.03    -0.00  -0.02   0.02    -0.01   0.01   0.00
  23   8     0.02  -0.03  -0.09    -0.03  -0.02  -0.13     0.03  -0.07  -0.07
  24   1    -0.02   0.00  -0.02    -0.00  -0.00  -0.03     0.00  -0.01  -0.02
  25   1     0.01  -0.01  -0.04    -0.01  -0.02  -0.03     0.01  -0.01  -0.02
  26   8     0.06  -0.07  -0.23    -0.05  -0.13  -0.03     0.04  -0.03  -0.12
  27   1     0.01  -0.00  -0.06    -0.04  -0.01  -0.01     0.01  -0.01  -0.03
  28   1     0.00  -0.02  -0.03     0.02  -0.02   0.01     0.00  -0.01  -0.02
  29   8    -0.05  -0.06   0.13     0.22  -0.05   0.16    -0.04  -0.04   0.05
  30   1     0.01  -0.03   0.06     0.06  -0.02   0.05    -0.00  -0.02   0.03
  31   1    -0.01  -0.02   0.03     0.04   0.01   0.00    -0.01  -0.02   0.02
  32   8     0.12   0.07   0.12     0.03   0.04  -0.08     0.02  -0.10  -0.20
  33   1     0.02   0.01   0.02     0.01   0.02  -0.01     0.02  -0.01  -0.04
  34   1     0.03   0.01   0.02     0.01   0.00  -0.03     0.00  -0.02  -0.04
  35   8     0.03  -0.05   0.03     0.01   0.01   0.06     0.00  -0.01   0.15
  36   1     0.00  -0.00   0.01     0.00   0.02   0.01     0.01   0.03   0.03
  37   1     0.01  -0.02  -0.00    -0.01  -0.01   0.00     0.01  -0.01   0.01
  38   8    -0.02  -0.11   0.05    -0.00  -0.02   0.07     0.03   0.04  -0.03
  39   1    -0.01  -0.01   0.01     0.00   0.00   0.02     0.01   0.01  -0.01
  40   1    -0.00  -0.02   0.01     0.00  -0.02   0.02     0.01   0.00  -0.01
  41   8    -0.03  -0.01  -0.03     0.01   0.10   0.10     0.01  -0.12  -0.23
  42   1    -0.00   0.01   0.01    -0.00   0.01   0.01     0.00  -0.01  -0.02
  43   1    -0.01   0.00  -0.01     0.01   0.02   0.02     0.01  -0.04  -0.06
  44   8     0.02   0.12   0.10    -0.16  -0.14  -0.03    -0.05   0.09   0.07
  45   1     0.00   0.02   0.02    -0.03  -0.04  -0.00    -0.01   0.02   0.02
  46   1     0.02   0.03   0.02    -0.07  -0.04  -0.03    -0.01   0.02   0.02
  47   8     0.10   0.15  -0.10    -0.10   0.09   0.07     0.04   0.17  -0.02
  48   1     0.02   0.02  -0.03    -0.03   0.00   0.01     0.00   0.03  -0.01
  49   1     0.02   0.04  -0.03    -0.02   0.03   0.01    -0.01   0.04  -0.01
  50   8     0.22  -0.01  -0.15    -0.11   0.02  -0.05    -0.21  -0.02   0.12
  51   1     0.04  -0.00  -0.03    -0.02   0.00  -0.01    -0.04  -0.00   0.02
  52   1     0.06  -0.00  -0.04    -0.02   0.01  -0.01    -0.06  -0.01   0.03
  53   8    -0.01   0.03   0.02     0.02   0.24   0.03     0.18   0.39   0.05
  54   1     0.02   0.02  -0.01    -0.01   0.05   0.02     0.04   0.08   0.01
  55   1    -0.03   0.01   0.01     0.03   0.06  -0.01     0.07   0.10  -0.01
  56   8     0.02   0.27  -0.14     0.03   0.01   0.16     0.03  -0.22   0.20
  57   1     0.02   0.04  -0.04    -0.01   0.00   0.02    -0.01  -0.04   0.05
  58   1    -0.01   0.07  -0.01     0.02   0.02   0.04     0.03  -0.04   0.05
  59   8     0.01  -0.00   0.09    -0.08  -0.26   0.08    -0.01   0.10   0.09
  60   1     0.00  -0.00   0.02    -0.01  -0.07   0.03    -0.01   0.04   0.02
  61   1     0.00  -0.00   0.02    -0.03  -0.06   0.03     0.01   0.02   0.01
  62   8    -0.01  -0.10   0.10     0.00   0.06  -0.05    -0.09  -0.07   0.10
  63   1     0.00  -0.02   0.02     0.00   0.01  -0.01    -0.02  -0.02   0.02
  64   1     0.00  -0.02   0.02    -0.01   0.01  -0.01    -0.02  -0.02   0.03
  65   8     0.02  -0.10   0.07     0.05   0.00   0.05    -0.04   0.03  -0.03
  66   1     0.03  -0.02   0.00     0.02   0.00   0.01    -0.03   0.01   0.00
  67   1    -0.01  -0.04   0.02     0.00  -0.00   0.01     0.00   0.01  -0.01
  68   8    -0.06   0.12  -0.06    -0.03   0.05   0.03     0.05  -0.04  -0.01
  69   1    -0.01   0.05  -0.03     0.00   0.01   0.02     0.01  -0.02   0.01
  70   1    -0.01   0.01   0.01     0.00  -0.01   0.02     0.01  -0.02   0.02
  71   8    -0.00  -0.14   0.08    -0.11  -0.18   0.11    -0.02   0.11  -0.02
  72   1    -0.00  -0.04   0.02    -0.02  -0.04   0.02    -0.00   0.03  -0.01
  73   1     0.01  -0.03   0.01    -0.02  -0.04   0.01    -0.00   0.02   0.00
  74   8    -0.01   0.11   0.08    -0.01   0.08   0.08     0.04  -0.01  -0.03
  75   1     0.00   0.03   0.01     0.00   0.03   0.03     0.00  -0.01  -0.02
  76   1    -0.00   0.03   0.02    -0.01   0.02   0.02     0.01  -0.01  -0.01
  77   8     0.02  -0.15   0.13     0.03   0.27  -0.21     0.04  -0.17   0.18
  78   1     0.01  -0.03   0.03    -0.00   0.02  -0.03     0.01  -0.02   0.04
  79   1     0.01  -0.03   0.02    -0.00   0.06  -0.06     0.02  -0.03   0.04
  80   8    -0.08   0.01  -0.03     0.10  -0.04  -0.05     0.03  -0.11  -0.22
  81   1    -0.01   0.01  -0.03     0.03  -0.02  -0.04     0.01  -0.03  -0.05
  82   1    -0.02  -0.00   0.01     0.02  -0.00  -0.00     0.00  -0.02  -0.03
  83   8     0.00   0.05   0.17     0.00   0.11  -0.05    -0.07   0.01   0.13
  84   1     0.00  -0.00   0.06     0.00   0.03  -0.01    -0.01  -0.00   0.05
  85   1    -0.01   0.02   0.04     0.00   0.02   0.01    -0.02   0.00   0.03
  86   8     0.07  -0.07  -0.11    -0.17   0.04  -0.17     0.12  -0.06   0.04
  87   1     0.00  -0.01  -0.03    -0.05   0.01  -0.05     0.03  -0.00   0.01
  88   1     0.02  -0.02  -0.03    -0.04   0.01  -0.04     0.02  -0.02  -0.00
  89   8     0.29  -0.04  -0.15     0.05   0.04  -0.10    -0.13  -0.02   0.11
  90   1     0.06  -0.02  -0.05     0.02   0.01  -0.02    -0.01   0.01   0.05
  91   1     0.06  -0.00  -0.01     0.01   0.01  -0.03    -0.02  -0.01  -0.01
                     25                     26                     27
                        a                      a                      a 
 Frequencies --    80.5037                81.8907                87.0667
 Red. masses --    14.3704                14.0423                13.9512
 Frc consts  --     0.0000                 0.0000                 0.0000
 IR Inten    --     0.5097                 1.9677                 3.1809
 Raman Activ --     0.0000                 0.0000                 0.0000
 Depolar     --     0.0000                 0.0000                 0.0000
 Atom AN      X      Y      Z        X      Y      Z        X      Y      Z
   1   6    -0.03  -0.02   0.06     0.01   0.02  -0.12     0.07   0.05   0.05
   2   6    -0.02   0.02   0.02     0.04   0.11  -0.11     0.09   0.18   0.08
   3   6    -0.01  -0.01  -0.02     0.01   0.10  -0.11     0.02   0.08   0.02
   4   6    -0.01  -0.03   0.06     0.04   0.07  -0.02     0.13  -0.01  -0.01
   5   1    -0.01  -0.01   0.02    -0.00   0.01  -0.06     0.00   0.00   0.03
   6   1    -0.01   0.01   0.01     0.01   0.04  -0.02     0.03   0.06   0.06
   7   1    -0.01  -0.01   0.00    -0.01   0.03  -0.02    -0.02   0.01   0.04
   8   1     0.00  -0.02   0.02    -0.00   0.05  -0.01     0.02  -0.02  -0.01
   9   1    -0.01  -0.01   0.02     0.01  -0.02  -0.03     0.03   0.03   0.01
  10   1    -0.01   0.01   0.00     0.02   0.03  -0.04     0.05   0.07  -0.00
  11   1     0.01   0.01  -0.01     0.02   0.04  -0.03     0.03   0.04  -0.00
  12   1    -0.00  -0.02  -0.01     0.00   0.02  -0.05    -0.00  -0.01  -0.03
  13   8    -0.04  -0.01   0.06    -0.00   0.10  -0.17     0.05   0.14   0.10
  14   7    -0.03  -0.03   0.03     0.01   0.03   0.08     0.15   0.03  -0.08
  15   1    -0.01  -0.01   0.01     0.00   0.02   0.03     0.03   0.01  -0.05
  16   1    -0.01  -0.00   0.01     0.00  -0.01   0.02     0.06   0.02  -0.02
  17   8    -0.01   0.20  -0.06     0.00  -0.07   0.20    -0.09  -0.04   0.03
  18   1     0.00   0.06  -0.00     0.01  -0.00   0.05    -0.02  -0.00   0.01
  19   1     0.01   0.03  -0.02     0.01  -0.02   0.05    -0.02  -0.01   0.01
  20   8     0.12   0.10  -0.11     0.14  -0.08   0.03    -0.07  -0.03  -0.19
  21   1     0.01   0.04  -0.00     0.03  -0.02   0.01    -0.02  -0.00  -0.04
  22   1     0.03   0.03  -0.01     0.03  -0.02   0.01    -0.03   0.02  -0.01
  23   8    -0.09  -0.00   0.05    -0.16   0.05  -0.17    -0.00   0.19   0.11
  24   1    -0.03  -0.01   0.01    -0.04   0.02  -0.04     0.00   0.05   0.03
  25   1    -0.02  -0.01   0.01    -0.04  -0.00  -0.04    -0.00   0.03   0.03
  26   8    -0.01  -0.12  -0.20    -0.22  -0.14  -0.09     0.03   0.00   0.06
  27   1     0.01  -0.01  -0.07    -0.07  -0.02  -0.02     0.03  -0.00   0.01
  28   1     0.01  -0.02  -0.03    -0.04  -0.03  -0.01     0.00  -0.00   0.01
  29   8     0.08  -0.08   0.07    -0.02  -0.07   0.06    -0.01  -0.02  -0.00
  30   1     0.02  -0.03   0.02    -0.01  -0.01   0.01    -0.00  -0.00  -0.00
  31   1     0.01  -0.00   0.00    -0.00  -0.03   0.02     0.00  -0.02   0.00
  32   8    -0.09   0.07  -0.17    -0.08   0.13   0.28    -0.12   0.10   0.10
  33   1    -0.01   0.02  -0.04    -0.02   0.02   0.06    -0.03   0.02   0.02
  34   1    -0.02   0.02  -0.03    -0.02   0.02   0.05    -0.03   0.03   0.04
  35   8     0.03  -0.16   0.09     0.00   0.10  -0.04    -0.03  -0.02  -0.05
  36   1     0.00  -0.01   0.02    -0.01   0.02  -0.01    -0.01   0.00  -0.01
  37   1     0.00  -0.05  -0.00    -0.00   0.03  -0.00     0.00  -0.01  -0.02
  38   8     0.12   0.06   0.01    -0.24  -0.09  -0.09     0.07   0.04   0.09
  39   1     0.00  -0.00  -0.03    -0.06  -0.02  -0.02     0.01   0.00   0.02
  40   1     0.00   0.03   0.04    -0.06  -0.02  -0.03     0.02  -0.01   0.03
  41   8    -0.18  -0.04  -0.01    -0.12   0.06   0.12     0.02  -0.06  -0.18
  42   1    -0.03   0.00  -0.00    -0.03   0.01   0.02     0.00   0.01  -0.01
  43   1    -0.05   0.01   0.01    -0.03   0.02   0.04     0.00  -0.01  -0.04
  44   8     0.11   0.21  -0.05    -0.03   0.03  -0.03    -0.10   0.21   0.19
  45   1     0.02   0.03  -0.01     0.00   0.02  -0.00    -0.03   0.03   0.05
  46   1     0.06   0.06  -0.02    -0.02   0.01  -0.01    -0.01   0.06   0.03
  47   8    -0.05  -0.01  -0.17    -0.01  -0.07  -0.02    -0.06  -0.08  -0.04
  48   1    -0.01  -0.01  -0.05    -0.02  -0.03  -0.01    -0.01  -0.01  -0.00
  49   1     0.01   0.00  -0.04     0.01  -0.01  -0.01     0.00  -0.03   0.00
  50   8     0.15   0.04   0.04    -0.00  -0.11   0.04    -0.09   0.07  -0.03
  51   1     0.05   0.01   0.01    -0.03  -0.03   0.01    -0.01   0.02  -0.00
  52   1     0.01   0.01   0.01     0.01  -0.03   0.01    -0.02   0.02  -0.01
  53   8    -0.01   0.14   0.02     0.02   0.03   0.01    -0.03   0.04  -0.05
  54   1    -0.01   0.02  -0.01     0.00  -0.00  -0.00    -0.02   0.00  -0.01
  55   1     0.03   0.03  -0.02     0.02   0.00   0.00     0.00   0.01  -0.01
  56   8     0.07   0.06  -0.04     0.15  -0.23   0.10    -0.01  -0.05  -0.04
  57   1     0.02   0.02   0.00     0.02  -0.05   0.01    -0.01  -0.00  -0.01
  58   1     0.01   0.01  -0.02     0.05  -0.05   0.01     0.01  -0.01  -0.02
  59   8     0.02  -0.04  -0.07     0.09   0.07   0.02    -0.14  -0.07   0.19
  60   1     0.02  -0.03  -0.01     0.03  -0.01  -0.00    -0.06   0.01   0.04
  61   1    -0.01  -0.01  -0.01     0.01   0.02   0.02    -0.01  -0.01   0.04
  62   8     0.10  -0.07   0.07     0.02   0.06   0.04     0.04  -0.01   0.04
  63   1     0.04  -0.02   0.01     0.01   0.02   0.01     0.00  -0.01   0.01
  64   1     0.03  -0.02   0.03     0.01   0.02   0.01     0.01  -0.00   0.01
  65   8     0.02  -0.04   0.04    -0.00   0.08  -0.04     0.21  -0.00  -0.01
  66   1    -0.01  -0.01   0.02     0.01   0.02  -0.02     0.04  -0.00   0.00
  67   1     0.02   0.00   0.01    -0.02   0.01  -0.01     0.05   0.01  -0.00
  68   8     0.02  -0.16   0.21     0.11  -0.09  -0.11     0.00  -0.07   0.02
  69   1    -0.00  -0.03   0.03     0.03  -0.04  -0.00    -0.00  -0.02  -0.00
  70   1     0.00  -0.03   0.05     0.02  -0.00  -0.04    -0.00  -0.01  -0.00
  71   8     0.05  -0.08   0.04     0.03   0.11  -0.03    -0.13  -0.28   0.05
  72   1     0.01  -0.02   0.01     0.00   0.03   0.01    -0.01  -0.05  -0.02
  73   1     0.01  -0.02   0.02     0.02   0.03  -0.02    -0.01  -0.06  -0.02
  74   8    -0.18  -0.13  -0.31    -0.17  -0.08  -0.07    -0.02  -0.06   0.02
  75   1    -0.05  -0.04  -0.06    -0.04  -0.02   0.00    -0.01  -0.02  -0.01
  76   1    -0.03  -0.04  -0.04    -0.04  -0.02  -0.03    -0.00  -0.02   0.00
  77   8    -0.03   0.10  -0.11     0.03  -0.11   0.12     0.04  -0.13   0.07
  78   1    -0.01   0.02  -0.02     0.02  -0.01   0.02     0.01  -0.05   0.03
  79   1    -0.01   0.02  -0.02     0.01  -0.02   0.02     0.02  -0.01  -0.01
  80   8    -0.11   0.08   0.26     0.05  -0.02   0.18     0.02   0.04  -0.06
  81   1    -0.03   0.03   0.10     0.01  -0.01   0.03     0.00   0.01  -0.01
  82   1    -0.02   0.01   0.04     0.01  -0.00   0.04     0.00   0.01  -0.01
  83   8     0.18  -0.06   0.04     0.15  -0.01  -0.06     0.02  -0.18  -0.05
  84   1     0.05  -0.02   0.02     0.03   0.00  -0.03     0.00  -0.05  -0.02
  85   1     0.04  -0.01  -0.01     0.04  -0.00  -0.01    -0.00  -0.03  -0.03
  86   8    -0.09   0.01   0.09     0.12  -0.01  -0.06     0.03  -0.07  -0.37
  87   1    -0.01  -0.01   0.03     0.03   0.01  -0.02    -0.03  -0.05  -0.10
  88   1    -0.03   0.00   0.02     0.01   0.00  -0.03     0.01   0.00  -0.05
  89   8    -0.11  -0.01   0.07     0.07   0.04   0.04    -0.05   0.05  -0.03
  90   1    -0.02   0.01   0.02     0.00  -0.01  -0.00    -0.02  -0.00  -0.01
  91   1    -0.03   0.00  -0.00     0.00   0.02   0.03    -0.02   0.02   0.01
                     28                     29                     30
                        a                      a                      a 
 Frequencies --    89.7862                91.1565                97.0583
 Red. masses --    13.8497                13.6739                13.9758
 Frc consts  --     0.0000                 0.0000                 0.0000
 IR Inten    --     2.0470                 1.3101                 0.5301
 Raman Activ --     0.0000                 0.0000                 0.0000
 Depolar     --     0.0000                 0.0000                 0.0000
 Atom AN      X      Y      Z        X      Y      Z        X      Y      Z
   1   6    -0.06   0.04  -0.04     0.05  -0.07  -0.00    -0.05  -0.02   0.07
   2   6    -0.06   0.10  -0.18     0.10   0.17   0.00    -0.03   0.05  -0.03
   3   6    -0.01   0.09  -0.21     0.07   0.04  -0.10     0.09   0.07  -0.07
   4   6     0.01   0.06   0.03     0.11  -0.10   0.00    -0.02  -0.06   0.02
   5   1    -0.02   0.01  -0.01    -0.01  -0.03  -0.01    -0.02  -0.01   0.03
   6   1    -0.02   0.03  -0.06     0.03   0.08   0.05    -0.03   0.03  -0.02
   7   1     0.02   0.02  -0.07    -0.02  -0.01   0.02     0.00   0.04  -0.01
   8   1     0.01   0.03   0.01     0.01  -0.03  -0.01     0.01  -0.03   0.01
   9   1    -0.04  -0.00  -0.01     0.03  -0.03  -0.00    -0.02   0.01   0.02
  10   1    -0.02   0.03  -0.05     0.06   0.08  -0.03    -0.01   0.01  -0.00
  11   1    -0.02   0.02  -0.07     0.06   0.05  -0.05     0.06   0.05  -0.03
  12   1     0.01   0.03  -0.04     0.02  -0.04  -0.08     0.04  -0.02  -0.03
  13   8    -0.07   0.10  -0.17     0.00   0.05   0.05    -0.06  -0.01   0.06
  14   7    -0.04   0.05   0.07     0.12  -0.10  -0.00    -0.05  -0.03  -0.06
  15   1    -0.01   0.02   0.03     0.03  -0.02  -0.01    -0.01  -0.01  -0.02
  16   1    -0.02   0.01   0.02     0.04  -0.03   0.00    -0.02   0.01  -0.02
  17   8     0.03  -0.03  -0.02    -0.08  -0.06  -0.07    -0.03   0.20  -0.01
  18   1     0.01  -0.01  -0.01    -0.02  -0.01  -0.02    -0.02   0.01  -0.00
  19   1     0.00   0.00  -0.00    -0.02   0.01  -0.03    -0.03   0.04   0.01
  20   8     0.10  -0.13  -0.16     0.06  -0.14  -0.13     0.36  -0.18   0.18
  21   1     0.01  -0.02  -0.02     0.02  -0.03  -0.03     0.11  -0.07   0.01
  22   1     0.02  -0.02  -0.03     0.01  -0.02  -0.02     0.06  -0.03   0.04
  23   8     0.20  -0.12  -0.18    -0.03   0.07   0.05     0.05   0.04   0.06
  24   1     0.05  -0.01  -0.05    -0.01   0.01   0.01     0.01   0.00   0.01
  25   1     0.05  -0.01  -0.03    -0.01   0.01   0.01     0.01   0.01   0.01
  26   8     0.05   0.10   0.25    -0.04  -0.04   0.05     0.07   0.04   0.08
  27   1    -0.02  -0.00   0.09    -0.01  -0.01   0.01     0.02   0.00   0.02
  28   1    -0.00   0.02   0.04    -0.01  -0.01   0.01     0.01   0.01   0.01
[...]
  35   8    -0.00   0.00  -0.00     0.01  -0.08   0.03    -0.03   0.20  -0.09
  36   1     0.00   0.00   0.00     0.00  -0.00   0.03    -0.00   0.02  -0.03
  37   1     0.00  -0.00   0.00    -0.05   0.32  -0.15     0.13  -0.80   0.38
  38   8     0.00   0.00   0.00     0.00   0.00   0.00     0.00   0.00   0.00
  39   1    -0.00   0.00   0.00     0.00   0.00  -0.00     0.00   0.00  -0.00
  40   1    -0.00  -0.00  -0.00    -0.01  -0.00  -0.00    -0.02  -0.01  -0.01
  41   8     0.00   0.00  -0.00     0.00  -0.00   0.00     0.00  -0.00   0.00
  42   1     0.00  -0.00   0.00    -0.00   0.00  -0.00    -0.00   0.00  -0.00
  43   1    -0.00  -0.00   0.00     0.00   0.00  -0.00     0.00   0.00  -0.00
  44   8     0.00  -0.01  -0.00    -0.00   0.00   0.00    -0.00   0.01   0.00
  45   1    -0.00  -0.00   0.00    -0.00   0.00   0.00    -0.00   0.00   0.00
  46   1    -0.00   0.02   0.00     0.00  -0.01  -0.00     0.01  -0.05  -0.01
  47   8     0.00  -0.00  -0.00     0.00   0.00   0.00     0.00  -0.00   0.00
  48   1    -0.00  -0.00   0.00    -0.00   0.00  -0.00     0.00   0.00  -0.00
  49   1    -0.00   0.01   0.01     0.00  -0.00  -0.00     0.00  -0.00  -0.00
  50   8    -0.00  -0.00  -0.00    -0.00  -0.00  -0.00    -0.00  -0.00   0.00
  51   1     0.00   0.00   0.00     0.00   0.00   0.00     0.00   0.00   0.00
  52   1     0.00  -0.00   0.00     0.00   0.00  -0.00     0.00   0.00  -0.00
  53   8     0.00   0.01   0.00     0.05   0.20   0.06     0.02   0.08   0.03
  54   1    -0.00   0.00   0.00    -0.01   0.03   0.00    -0.00   0.01  -0.00
  55   1    -0.02  -0.06  -0.02    -0.21  -0.83  -0.25    -0.08  -0.33  -0.10
  56   8     0.00  -0.00   0.00     0.00  -0.00   0.00     0.00  -0.00   0.00
  57   1    -0.00  -0.00   0.00     0.00   0.00   0.00     0.00  -0.00   0.00
  58   1    -0.00   0.00  -0.00    -0.00   0.00  -0.00    -0.01   0.01  -0.01
  59   8     0.00  -0.00  -0.00    -0.00  -0.00   0.00     0.00  -0.00  -0.00
  60   1    -0.00  -0.00   0.00     0.00   0.00  -0.00     0.00   0.00  -0.00
  61   1    -0.00   0.00  -0.00     0.00  -0.00   0.00    -0.00   0.00  -0.00
  62   8     0.00  -0.00   0.00    -0.00   0.00  -0.00     0.00  -0.00  -0.00
  63   1    -0.01   0.01  -0.01     0.00  -0.00   0.00     0.00  -0.00   0.00
  64   1     0.00  -0.00   0.00     0.01  -0.01  -0.00    -0.02   0.02   0.01
  65   8    -0.00   0.00  -0.00    -0.00  -0.00  -0.00    -0.00   0.00  -0.00
  66   1     0.00  -0.00  -0.00     0.00   0.00   0.00     0.00  -0.00  -0.00
  67   1     0.00  -0.00   0.00     0.00  -0.00   0.00     0.00  -0.00   0.00
  68   8     0.00  -0.00  -0.00     0.00   0.00   0.00    -0.00  -0.00  -0.00
  69   1    -0.00   0.00   0.00    -0.00   0.00   0.00     0.00  -0.00  -0.00
  70   1     0.00   0.00   0.00    -0.01  -0.00  -0.00     0.02   0.01   0.00
  71   8    -0.00  -0.00  -0.00    -0.00  -0.00  -0.00    -0.00  -0.00   0.00
  72   1     0.00  -0.00   0.00     0.00  -0.00   0.00     0.00   0.00   0.00
  73   1     0.00   0.00   0.00     0.00   0.00   0.00     0.00   0.00  -0.00
  74   8     0.00  -0.00  -0.00     0.00   0.00  -0.00    -0.00  -0.00   0.00
  75   1    -0.00   0.00   0.00    -0.00   0.00  -0.00    -0.00   0.00  -0.00
  76   1    -0.00  -0.00   0.00    -0.00  -0.00   0.00     0.00   0.00  -0.00
  77   8    -0.00  -0.00  -0.00    -0.00  -0.00  -0.00    -0.00  -0.00  -0.00
  78   1     0.00   0.00   0.00     0.00   0.00   0.00     0.00   0.00   0.00
  79   1    -0.00   0.00   0.00    -0.00   0.00  -0.00     0.00  -0.00  -0.00
  80   8     0.00  -0.00   0.00    -0.00   0.00  -0.00     0.00  -0.00   0.00
  81   1    -0.00   0.00  -0.00     0.00  -0.00   0.00    -0.00   0.00  -0.00
  82   1    -0.00  -0.00   0.00     0.00   0.00   0.00     0.00   0.00  -0.00
  83   8    -0.10   0.01   0.02     0.03  -0.00  -0.01     0.01  -0.00  -0.00
  84   1     0.42  -0.05  -0.08    -0.13   0.02   0.03    -0.06   0.01   0.01
  85   1    -0.02  -0.01  -0.00     0.01   0.00   0.00     0.00   0.00   0.00
  86   8    -0.00   0.00   0.00     0.00  -0.00  -0.00     0.00  -0.00  -0.00
  87   1     0.00  -0.00  -0.00    -0.00   0.00   0.00    -0.00   0.00   0.00
  88   1     0.00   0.00  -0.00     0.00   0.00  -0.00     0.00   0.00  -0.00
  89   8     0.00  -0.00  -0.00     0.00  -0.00  -0.00     0.00  -0.00  -0.00
  90   1    -0.00   0.00   0.00    -0.00   0.00   0.00    -0.00   0.00   0.00
  91   1     0.00   0.00  -0.00     0.00   0.00   0.00     0.00   0.00  -0.00
                    262                    263                    264
                        a                      a                      a 
 Frequencies --  3671.5209              3673.2052              3675.6221
 Red. masses --     1.8324                 1.8355                 1.8386
 Frc consts  --     0.0000                 0.0000                 0.0000
 IR Inten    --    11.4418                12.6185                 8.1183
 Raman Activ --     0.0000                 0.0000                 0.0000
 Depolar     --     0.0000                 0.0000                 0.0000
 Atom AN      X      Y      Z        X      Y      Z        X      Y      Z
   1   6     0.00  -0.00  -0.00    -0.00  -0.00   0.00    -0.00   0.00  -0.00
   2   6     0.00  -0.00  -0.00     0.00   0.00   0.00     0.00  -0.00   0.00
   3   6     0.00  -0.00  -0.00     0.00   0.00   0.00    -0.00  -0.00  -0.00
   4   6    -0.00  -0.00  -0.00     0.00   0.00   0.00    -0.00   0.00   0.00
   5   1    -0.00   0.00   0.00    -0.00   0.00   0.00    -0.00  -0.00   0.00
   6   1    -0.00   0.00   0.00    -0.00  -0.00  -0.00     0.00   0.00  -0.00
   7   1    -0.00   0.00   0.00    -0.00  -0.00  -0.00     0.00   0.00   0.00
   8   1    -0.00   0.00   0.00    -0.00   0.00  -0.00     0.00   0.00  -0.00
   9   1     0.00  -0.00   0.00     0.00   0.00  -0.00     0.00  -0.00  -0.00
  10   1     0.00  -0.00   0.00     0.00   0.00  -0.00     0.00  -0.00  -0.00
  11   1    -0.00   0.00   0.00    -0.00   0.00   0.00     0.00  -0.00  -0.00
  12   1     0.00   0.00  -0.00     0.00  -0.00   0.00    -0.00   0.00  -0.00
  13   8    -0.00   0.00   0.00    -0.00  -0.00  -0.00     0.00   0.00   0.00
  14   7     0.00  -0.00  -0.00     0.00   0.00   0.00    -0.00  -0.00   0.00
  15   1    -0.00  -0.00   0.00    -0.00  -0.00   0.00     0.00   0.00  -0.00
  16   1     0.00   0.00   0.00     0.00  -0.00  -0.00     0.00   0.00  -0.00
  17   8     0.00  -0.00   0.00    -0.00  -0.00  -0.00     0.00   0.00   0.00
  18   1    -0.00   0.00   0.00    -0.00   0.00  -0.00     0.00  -0.00   0.00
  19   1    -0.00  -0.00  -0.00     0.00   0.00   0.00    -0.00  -0.00  -0.00
  20   8    -0.00  -0.00   0.00     0.00   0.00  -0.00    -0.00  -0.00   0.00
  21   1     0.00  -0.00   0.00    -0.00   0.00  -0.00     0.00  -0.00   0.00
  22   1     0.01   0.02  -0.01    -0.00  -0.00   0.00     0.00   0.00  -0.00
  23   8    -0.00   0.00   0.00     0.00   0.00   0.00    -0.00  -0.00  -0.00
  24   1    -0.00  -0.00  -0.00     0.00   0.00   0.00    -0.00  -0.00  -0.00
  25   1     0.00   0.00   0.00    -0.00  -0.00  -0.00     0.00   0.00   0.00
  26   8     0.00   0.00   0.00    -0.00  -0.00  -0.00     0.00   0.01   0.01
  27   1    -0.01  -0.01  -0.02     0.01   0.01   0.02    -0.02  -0.02  -0.04
  28   1     0.00   0.00   0.00    -0.00  -0.00  -0.00     0.00   0.00   0.00
  29   8     0.00  -0.00  -0.00     0.00  -0.00  -0.00    -0.00   0.00   0.00
  30   1    -0.01   0.01   0.01    -0.00   0.00   0.00     0.01  -0.00  -0.01
  31   1     0.00   0.00  -0.00     0.00  -0.00  -0.00    -0.00   0.00   0.00
  32   8     0.00   0.00  -0.00     0.00  -0.00   0.00    -0.00  -0.00   0.00
  33   1    -0.00  -0.00   0.00     0.00  -0.00   0.00     0.00  -0.00  -0.00
  34   1    -0.00   0.00   0.00    -0.00   0.00  -0.00    -0.00   0.00  -0.00
  35   8     0.00  -0.01   0.00    -0.00   0.00  -0.00     0.00  -0.00   0.00
  36   1     0.00  -0.00   0.00    -0.00   0.00  -0.00    -0.00  -0.00  -0.00
  37   1    -0.01   0.04  -0.02     0.00  -0.01   0.01    -0.00   0.00  -0.00
  38   8    -0.01  -0.00  -0.00    -0.19  -0.07  -0.12     0.01   0.00   0.01
  39   1    -0.00  -0.00   0.00    -0.04  -0.01   0.00     0.00   0.00  -0.00
  40   1     0.03   0.01   0.02     0.80   0.27   0.46    -0.04  -0.02  -0.03
  41   8     0.00  -0.01   0.00     0.00   0.00  -0.00    -0.00  -0.00   0.00
  42   1    -0.02   0.02  -0.02     0.00  -0.00   0.00    -0.00   0.00  -0.00
  43   1    -0.00  -0.00   0.00    -0.00  -0.00   0.00     0.00   0.00  -0.00
  44   8    -0.04   0.23   0.04     0.00  -0.01  -0.00    -0.00   0.00   0.00
  45   1    -0.02   0.03   0.03     0.00  -0.00  -0.00    -0.00   0.00   0.00
  46   1     0.17  -0.94  -0.18    -0.01   0.03   0.01     0.00  -0.01  -0.00
  47   8     0.00  -0.00  -0.00    -0.00  -0.00   0.00     0.00   0.00  -0.00
  48   1    -0.00  -0.00   0.00     0.00   0.00  -0.00    -0.00  -0.00   0.00
  49   1    -0.00   0.00   0.00     0.00  -0.00  -0.00     0.00  -0.00  -0.00
  50   8    -0.00   0.00  -0.00     0.00   0.01   0.00     0.00  -0.00   0.01
  51   1    -0.00  -0.00  -0.00    -0.00  -0.03  -0.01     0.00   0.00   0.00
  52   1     0.00   0.00   0.00    -0.00   0.00  -0.00    -0.00   0.00  -0.02
  53   8    -0.00  -0.01  -0.00     0.00   0.00   0.00    -0.00  -0.00  -0.00
  54   1     0.00  -0.00  -0.00    -0.00   0.00  -0.00     0.00  -0.00   0.00
  55   1     0.01   0.03   0.01    -0.00  -0.01  -0.00     0.00   0.00   0.00
  56   8    -0.00   0.00  -0.00     0.01  -0.01   0.01    -0.02   0.02  -0.01
  57   1    -0.00   0.00  -0.00    -0.00  -0.00   0.00     0.00   0.00  -0.00
  58   1     0.01  -0.01   0.00    -0.03   0.04  -0.02     0.07  -0.10   0.06
  59   8     0.00  -0.00  -0.00    -0.00   0.00   0.00    -0.00  -0.00   0.00
  60   1    -0.00  -0.00   0.00     0.00   0.00  -0.00     0.00   0.00  -0.00
  61   1     0.00   0.00  -0.00     0.00  -0.00   0.00    -0.00   0.00  -0.00
  62   8    -0.00   0.00   0.00     0.00  -0.00  -0.00    -0.00   0.00   0.00
  63   1    -0.00   0.00  -0.00     0.00  -0.00   0.00    -0.00   0.00  -0.00
  64   1     0.00  -0.00  -0.00    -0.00   0.00   0.00     0.00  -0.00  -0.00
  65   8     0.00  -0.00   0.00     0.00  -0.00   0.01     0.00   0.01   0.00
  66   1     0.00   0.00   0.00    -0.00   0.00   0.00    -0.00  -0.02  -0.01
  67   1    -0.00   0.00  -0.00    -0.00   0.00  -0.03     0.00   0.00   0.00
  68   8     0.00   0.00  -0.00    -0.00   0.00   0.00     0.00  -0.00  -0.00
  69   1    -0.00   0.00   0.00     0.00  -0.00  -0.00    -0.00   0.00   0.00
  70   1    -0.00  -0.00  -0.00    -0.00  -0.00  -0.00     0.00   0.00   0.00
  71   8     0.00  -0.00  -0.00     0.00   0.00   0.00    -0.00  -0.00  -0.00
  72   1    -0.00   0.00  -0.00    -0.00   0.00  -0.00     0.00  -0.00   0.00
  73   1     0.00   0.00   0.00    -0.00  -0.00  -0.00     0.00   0.00   0.00
  74   8     0.00  -0.00  -0.00     0.00  -0.00  -0.00    -0.00  -0.00   0.00
  75   1    -0.00   0.00   0.00     0.00  -0.00   0.00     0.00  -0.00   0.00
  76   1     0.00   0.00  -0.00     0.00   0.00  -0.00     0.00   0.00  -0.00
  77   8    -0.00  -0.00  -0.00    -0.00   0.00   0.00     0.00  -0.00   0.00
  78   1     0.00   0.00   0.00    -0.00  -0.00  -0.00    -0.00  -0.00  -0.00
  79   1    -0.00   0.00   0.00     0.00  -0.00  -0.00    -0.00   0.00   0.00
  80   8    -0.00  -0.00  -0.00     0.00  -0.00   0.00    -0.00   0.00  -0.00
  81   1     0.00  -0.00   0.00    -0.00   0.00  -0.00     0.00  -0.00   0.00
  82   1     0.00   0.00   0.00    -0.00  -0.00  -0.00     0.00   0.00  -0.00
  83   8    -0.00   0.00   0.00     0.00  -0.00  -0.00    -0.00   0.00   0.00
  84   1     0.02  -0.00  -0.00    -0.01   0.00   0.00     0.01  -0.00  -0.00
  85   1    -0.00  -0.00   0.00     0.00   0.00  -0.00    -0.00  -0.00  -0.00
  86   8    -0.00   0.00   0.00     0.00  -0.00  -0.00    -0.00   0.00   0.01
  87   1     0.00  -0.00  -0.01    -0.00   0.00   0.01     0.02  -0.01  -0.04
  88   1    -0.00  -0.00   0.00     0.00   0.00  -0.00    -0.00  -0.00   0.00
  89   8    -0.00   0.00   0.00     0.01  -0.01  -0.01     0.18  -0.08  -0.13
  90   1     0.01  -0.00  -0.01    -0.05   0.02   0.03    -0.74   0.33   0.51
  91   1    -0.00  -0.00   0.00     0.00  -0.00  -0.00     0.03   0.00  -0.01
                    265                    266                    267
                        a                      a                      a 
 Frequencies --  3675.9747              3676.9643              3678.2794
 Red. masses --     1.8346                 1.8384                 1.8380
 Frc consts  --     0.0000                 0.0000                 0.0000
 IR Inten    --    10.5152                12.1749                14.2154
 Raman Activ --     0.0000                 0.0000                 0.0000
 Depolar     --     0.0000                 0.0000                 0.0000
 Atom AN      X      Y      Z        X      Y      Z        X      Y      Z
   1   6     0.00  -0.00  -0.00    -0.00   0.00  -0.00     0.00   0.00  -0.00
   2   6     0.00  -0.00  -0.00    -0.00   0.00  -0.00    -0.00   0.00  -0.00
   3   6     0.00   0.00   0.00     0.00  -0.00   0.00    -0.00  -0.00  -0.00
   4   6     0.00  -0.00  -0.00     0.00   0.00   0.00     0.00  -0.00  -0.00
   5   1    -0.00   0.00   0.00     0.00  -0.00  -0.00    -0.00   0.00   0.00
   6   1    -0.00  -0.00   0.00     0.00  -0.00  -0.00    -0.00  -0.00   0.00
   7   1    -0.00  -0.00  -0.00     0.00   0.00   0.00     0.00   0.00   0.00
   8   1    -0.00   0.00   0.00    -0.00  -0.00   0.00    -0.00   0.00   0.00
   9   1    -0.00  -0.00  -0.00    -0.00   0.00   0.00    -0.00  -0.00   0.00
  10   1    -0.00   0.00  -0.00    -0.00  -0.00   0.00     0.00  -0.00   0.00
  11   1    -0.00  -0.00  -0.00     0.00  -0.00  -0.00    -0.00  -0.00   0.00
  12   1     0.00   0.00  -0.00    -0.00   0.00  -0.00     0.00  -0.00  -0.00
  13   8     0.00   0.00   0.00     0.00   0.00   0.00     0.00  -0.00  -0.00
  14   7     0.00   0.00  -0.00     0.00  -0.00  -0.00     0.00   0.00  -0.00
  15   1    -0.00  -0.00   0.00    -0.00  -0.00   0.00    -0.00  -0.00   0.00
  16   1     0.00   0.00  -0.00    -0.00   0.00   0.00    -0.00   0.00   0.00
  17   8     0.00   0.00   0.00    -0.00  -0.00  -0.00     0.00   0.00   0.00
  18   1    -0.00   0.00   0.00    -0.00   0.00  -0.00     0.00   0.00   0.00
  19   1    -0.00  -0.00  -0.00     0.01   0.00   0.02    -0.00  -0.00  -0.00
  20   8     0.00  -0.00   0.00    -0.00   0.00  -0.00     0.00   0.00  -0.00
  21   1    -0.00   0.00  -0.00     0.00  -0.00   0.00     0.00  -0.00   0.00
  22   1     0.00   0.00  -0.00     0.00   0.00  -0.00    -0.00  -0.00   0.00
  23   8     0.01   0.00   0.00     0.00   0.00   0.00     0.00   0.00  -0.00
  24   1     0.00  -0.00   0.00    -0.00  -0.00  -0.00    -0.00   0.00  -0.00
  25   1    -0.03  -0.00  -0.01    -0.00  -0.00  -0.00     0.00  -0.00   0.00
  26   8    -0.09  -0.11  -0.19    -0.00  -0.00  -0.01     0.01   0.01   0.02
  27   1     0.36   0.46   0.77     0.01   0.01   0.02    -0.03  -0.04  -0.06
  28   1    -0.00  -0.04  -0.02    -0.00  -0.00  -0.00     0.00   0.00   0.00
  29   8     0.01  -0.01  -0.01    -0.00   0.00   0.00    -0.00   0.00   0.00
  30   1    -0.04   0.03   0.05     0.00  -0.00  -0.00     0.00  -0.00  -0.00
  31   1     0.00  -0.00  -0.00    -0.00   0.00   0.00     0.00   0.00   0.00
  32   8    -0.00  -0.00   0.00    -0.00   0.00  -0.00    -0.00   0.00  -0.00
  33   1    -0.00   0.00  -0.00    -0.00  -0.00   0.00    -0.00  -0.00   0.00
  34   1    -0.00  -0.00  -0.00     0.00  -0.00  -0.00     0.00  -0.00   0.00
  35   8     0.00  -0.00   0.00     0.00  -0.00   0.00    -0.00   0.00  -0.00
  36   1    -0.00  -0.00  -0.00     0.00  -0.00   0.00    -0.00   0.00  -0.00
  37   1    -0.00   0.01  -0.01    -0.00   0.02  -0.01     0.00  -0.01   0.00
  38   8     0.00   0.00   0.00     0.01   0.00   0.01    -0.00  -0.00  -0.00
  39   1     0.00   0.00  -0.00     0.00   0.00  -0.00    -0.00  -0.00   0.00
  40   1    -0.02  -0.01  -0.01    -0.05  -0.02  -0.03     0.02   0.01   0.01
  41   8     0.00  -0.00   0.00    -0.00   0.00  -0.00    -0.00   0.00  -0.00
  42   1    -0.00   0.00  -0.00     0.00  -0.00   0.00     0.00  -0.00   0.00
  43   1    -0.00  -0.00   0.00    -0.00  -0.00   0.00    -0.00  -0.00   0.00
  44   8    -0.00   0.00   0.00    -0.00   0.00   0.00     0.00  -0.00  -0.00
  45   1    -0.00   0.00   0.00    -0.00   0.00   0.00     0.00  -0.00  -0.00
  46   1     0.00  -0.02  -0.00     0.00  -0.01  -0.00    -0.00   0.01   0.00
  47   8    -0.00  -0.00   0.00    -0.00  -0.00   0.00     0.00   0.00  -0.00
  48   1     0.00   0.01  -0.02     0.00   0.00  -0.00    -0.00  -0.00   0.00
  49   1    -0.00   0.00   0.00    -0.00  -0.00   0.00     0.00  -0.00  -0.00
  50   8     0.00  -0.00   0.00     0.00   0.00   0.00    -0.00   0.00  -0.00
  51   1     0.00   0.00   0.00     0.00   0.00   0.00    -0.00  -0.00  -0.00
  52   1    -0.00   0.00  -0.00    -0.00  -0.00  -0.00     0.00  -0.00   0.00
  53   8    -0.00  -0.01  -0.00    -0.00  -0.00  -0.00     0.00   0.00   0.00
  54   1    -0.00  -0.00  -0.00     0.00  -0.00   0.00    -0.00   0.00   0.00
  55   1     0.01   0.02   0.01     0.00   0.01   0.00    -0.00  -0.01  -0.00
  56   8    -0.01   0.01  -0.00     0.13  -0.17   0.10    -0.01   0.01  -0.00
  57   1    -0.00   0.00  -0.00     0.00  -0.03   0.02    -0.00   0.00  -0.00
  58   1     0.02  -0.03   0.02    -0.51   0.70  -0.41     0.02  -0.03   0.02
  59   8     0.00   0.00  -0.00     0.00  -0.00  -0.00     0.00   0.00  -0.00
  60   1    -0.00  -0.00   0.00    -0.00  -0.00   0.00    -0.00  -0.00   0.00
  61   1     0.00   0.00  -0.00    -0.00   0.00  -0.00    -0.00   0.00  -0.00
  62   8     0.00   0.00   0.00    -0.00   0.00   0.00     0.00  -0.00  -0.00
  63   1    -0.00   0.00  -0.00    -0.00   0.00   0.00     0.00  -0.00   0.00
  64   1     0.00  -0.00  -0.00     0.00  -0.00  -0.00    -0.00   0.00   0.00
  65   8     0.00   0.00  -0.00     0.00   0.00  -0.00    -0.00  -0.00  -0.00
  66   1    -0.00  -0.00  -0.00    -0.00  -0.00  -0.00     0.00   0.00   0.00
  67   1     0.00   0.00   0.00     0.00  -0.00   0.00    -0.00  -0.00  -0.00
  68   8     0.00  -0.00  -0.00    -0.00   0.00   0.00     0.00  -0.00  -0.00
  69   1    -0.00   0.00   0.00     0.02  -0.01  -0.01    -0.00   0.00   0.00
  70   1    -0.00  -0.00  -0.00    -0.00  -0.00  -0.00     0.00   0.00   0.00
  71   8    -0.00  -0.00  -0.00    -0.00  -0.00  -0.00    -0.00  -0.00  -0.00
  72   1    -0.00   0.00  -0.00     0.00  -0.00   0.00    -0.00  -0.00  -0.00
  73   1     0.00   0.00   0.00     0.00   0.00   0.00     0.01   0.02   0.02
  74   8    -0.00   0.00   0.00    -0.00   0.00  -0.00     0.00  -0.00  -0.00
  75   1     0.00  -0.00  -0.00     0.00  -0.00   0.00    -0.00   0.00   0.00
  76   1    -0.00  -0.00   0.00     0.00  -0.00   0.00    -0.00  -0.00   0.00
  77   8     0.00  -0.00  -0.00     0.00  -0.00  -0.00     0.00  -0.00  -0.00
  78   1     0.00  -0.00  -0.00    -0.00  -0.00  -0.00    -0.00  -0.00  -0.00
  79   1    -0.00   0.00   0.00    -0.00   0.00   0.00    -0.02   0.02   0.01
  80   8     0.00   0.00   0.00    -0.00   0.00  -0.00     0.00  -0.00   0.00
  81   1    -0.00   0.00  -0.00     0.00  -0.00   0.00    -0.00   0.00  -0.00
  82   1    -0.00  -0.00   0.00     0.00   0.00   0.00    -0.00  -0.00   0.00
  83   8    -0.00   0.00   0.00    -0.00   0.00   0.00     0.00  -0.00  -0.00
  84   1     0.01  -0.00  -0.00     0.01  -0.00  -0.00    -0.01   0.00   0.00
  85   1    -0.00  -0.00  -0.00    -0.00  -0.00  -0.00     0.00   0.00   0.00
  86   8    -0.01   0.01   0.02    -0.00   0.00   0.01    -0.08   0.06   0.21
  87   1     0.03  -0.02  -0.07     0.02  -0.01  -0.05     0.33  -0.25  -0.87
  88   1    -0.00  -0.00   0.00    -0.00  -0.00   0.00    -0.02  -0.01   0.03
  89   8     0.01  -0.00  -0.00     0.03  -0.01  -0.02    -0.01   0.01   0.01
  90   1    -0.03   0.01   0.02    -0.10   0.05   0.07     0.04  -0.02  -0.03
  91   1     0.00  -0.00  -0.00     0.00   0.00  -0.00    -0.00  -0.00   0.00
