      -----------------------------------------------------------      
     |                   =====================                   |     
     |                           x T B                           |     
     |                   =====================                   |     
     |                         S. Grimme                         |     
     |          Mulliken Center for Theoretical Chemistry        |     
     |                    University of Bonn                     |     
      -----------------------------------------------------------      

   * xtb version 6.5.1 (579679a) compiled by 'ehlert@majestix' on 2022-07-11

   xtb is free software: you can redistribute it and/or modify it under
   the terms of the GNU Lesser General Public License as published by
   the Free Software Foundation, either version 3 of the License, or
   (at your option) any later version.
   
   xtb is distributed in the hope that it will be useful,
   but WITHOUT ANY WARRANTY; without even the implied warranty of
   MERCHANTABILITY or FITNESS FOR A PARTICULAR PURPOSE.  See the
   GNU Lesser General Public License for more details.
   
   Cite this work as:
   * C. Bannwarth, E. Caldeweyher, S. Ehlert, A. Hansen, P. Pracht,
     J. Seibert, S. Spicher, S. Grimme, WIREs Comput. Mol. Sci., 2020, 11,
     e01493. DOI: 10.1002/wcms.1493
   
   for GFN2-xTB:
   * C. Bannwarth, S. Ehlert and S. Grimme., J. Chem. Theory Comput., 2019,
     15, 1652-1671. DOI: 10.1021/acs.jctc.8b01176
   for GFN1-xTB:
   * S. Grimme, C. Bannwarth, P. Shushkov, J. Chem. Theory Comput., 2017,
     13, 1989-2009. DOI: 10.1021/acs.jctc.7b00118
   for GFN0-xTB:
   * P. Pracht, E. Caldeweyher, S. Ehlert, S. Grimme, ChemRxiv, 2019, preprint.
     DOI: 10.26434/chemrxiv.8326202.v1
   for GFN-FF:
   * S. Spicher and S. Grimme, Angew. Chem. Int. Ed., 2020, 59, 15665-15673.
     DOI: 10.1002/anie.202004239
   
   for ALPB and GBSA implicit solvation:
   * S. Ehlert, M. Stahn, S. Spicher, S. Grimme, J. Chem. Theory Comput.,
     2021, 17, 4250-4261. DOI: 10.1021/acs.jctc.1c00471
   
   for DFT-D4:
   * E. Caldeweyher, C. Bannwarth and S. Grimme, J. Chem. Phys., 2017,
     147, 034112. DOI: 10.1063/1.4993215
   * E. Caldeweyher, S. Ehlert, A. Hansen, H. Neugebauer, S. Spicher,
     C. Bannwarth and S. Grimme, J. Chem. Phys., 2019, 150, 154122.
     DOI: 10.1063/1.5090222
   * E. Caldeweyher, J.-M. Mewes, S. Ehlert and S. Grimme, Phys. Chem. Chem. Phys.
     2020, 22, 8499-8512. DOI: 10.1039/D0CP00502A
   
   for sTDA-xTB:
   * S. Grimme and C. Bannwarth, J. Chem. Phys., 2016, 145, 054103.
     DOI: 10.1063/1.4959605
   
   in the mass-spec context:
   * V. Asgeirsson, C. Bauer and S. Grimme, Chem. Sci., 2017, 8, 4879.
     DOI: 10.1039/c7sc00601b
   * J. Koopman and S. Grimme, ACS Omega 2019, 4, 12, 15120-15133.
     DOI: 10.1021/acsomega.9b02011
   
   for metadynamics refer to:
   * S. Grimme, J. Chem. Theory Comput., 2019, 155, 2847-2862
     DOI: 10.1021/acs.jctc.9b00143
   
   for SPH calculations refer to:
   * S. Spicher and S. Grimme, J. Chem. Theory Comput., 2021, 17, 1701-1714
     DOI: 10.1021/acs.jctc.0c01306
   
   with help from (in alphabetical order)
   P. Atkinson, C. Bannwarth, F. Bohle, G. Brandenburg, E. Caldeweyher
   M. Checinski, S. Dohm, S. Ehlert, S. Ehrlich, I. Gerasimov, C. Hölzer
   A. Katbashev, J. Koopman, C. Lavigne, S. Lehtola, F. März, M. Müller,
   F. Musil, H. Neugebauer, J. Pisarek, C. Plett, P. Pracht, F. Pultar,
   J. Seibert, P. Shushkov, S. Spicher, M. Stahn, M. Steiner, T. Strunk,
   J. Stückrath, T. Rose, and J. Unsleber
   
 * started run on 2022/10/12 at 03:15:58.516     

           -------------------------------------------------
          |                Calculation Setup                |
           -------------------------------------------------

          program call               : xtb cluster.xyz --gfn2 --ohess
          hostname                   : cn1257
          coordinate file            : cluster.xyz
          omp threads                :                    10

   ID    Z sym.   atoms
    1    6 C      1-4
    2    1 H      5-12, 15, 16, 18, 19, 21, 22, 24, 25, 27, 28, 30, 31, 33,
                  34, 36, 37, 39, 40, 42, 43, 45, 46, 48, 49, 51, 52, 54, 55,
                  57, 58, 60, 61, 63, 64, 66, 67, 69, 70, 72, 73, 75, 76, 78,
                  79, 81, 82, 84, 85, 87, 88, 90, 91
    3    8 O      13, 17, 20, 23, 26, 29, 32, 35, 38, 41, 44, 47, 50, 53, 56,
                  59, 62, 65, 68, 71, 74, 77, 80, 83, 86, 89
    4    7 N      14

molecular fragmentation (1/2 indicates fragments):
111111111111111122222222222222222222222222222222222222222222222222222222
2222222222222222222
# atoms in fragment 1/2:    16    75
 fragment masses (1/2) :       88.13      450.38
CMA distance (Bohr)    :   0.709
constraining FC (au)   :  0.0500

           -------------------------------------------------
          |                 G F N 2 - x T B                 |
           -------------------------------------------------

        Reference                      10.1021/acs.jctc.8b01176
      * Hamiltonian:
        H0-scaling (s, p, d)           1.850000    2.230000    2.230000
        zeta-weighting                 0.500000
      * Dispersion:
        s8                             2.700000
        a1                             0.520000
        a2                             5.000000
        s9                             5.000000
      * Repulsion:
        kExp                           1.500000    1.000000
        rExp                           1.000000
      * Coulomb:
        alpha                          2.000000
        third order                    shell-resolved
        anisotropic                    true
        a3                             3.000000
        a5                             4.000000
        cn-shift                       1.200000
        cn-exp                         4.000000
        max-rad                        5.000000


          ...................................................
          :                      SETUP                      :
          :.................................................:
          :  # basis functions                 184          :
          :  # atomic orbitals                 184          :
          :  # shells                          122          :
          :  # electrons                       237          :
          :  max. iterations                   250          :
          :  Hamiltonian                  GFN2-xTB          :
          :  restarted?                      false          :
          :  GBSA solvation                  false          :
          :  PC potential                    false          :
          :  electronic temp.          300.0000000     K    :
          :  accuracy                    1.0000000          :
          :  -> integral cutoff          0.2500000E+02      :
          :  -> integral neglect         0.1000000E-07      :
          :  -> SCF convergence          0.1000000E-05 Eh   :
          :  -> wf. convergence          0.1000000E-03 e    :
          :  Broyden damping             0.4000000          :
          ...................................................

 iter      E             dE          RMSdq      gap      omega  full diag
   1   -148.6766013 -0.148677E+03  0.397E+00    6.41       0.0  T
   2   -148.7385326 -0.619313E-01  0.236E+00    5.98       1.0  T
   3   -148.7343000  0.423261E-02  0.704E-01    6.72       1.0  T
   4   -148.7498071 -0.155072E-01  0.144E-01    6.12       1.0  T
   5   -148.7500527 -0.245610E-03  0.524E-02    6.11       1.0  T
   6   -148.7500649 -0.121436E-04  0.197E-02    6.13       1.0  T
   7   -148.7500666 -0.175734E-05  0.600E-03    6.13       1.7  T
   8   -148.7500670 -0.395582E-06  0.139E-03    6.13       7.5  T
   9   -148.7500670 -0.142130E-07  0.449E-04    6.13      23.4  T
  10   -148.7500670 -0.258041E-08  0.799E-05    6.13     131.3  T

   *** convergence criteria satisfied after 10 iterations ***

         #    Occupation            Energy/Eh            Energy/eV
      -------------------------------------------------------------
         1        2.0000           -0.6905553             -18.7910
       ...           ...                  ...                  ...
       113        2.0000           -0.4174865             -11.3604
       114        2.0000           -0.4174243             -11.3587
       115        2.0000           -0.4157352             -11.3127
       116        2.0000           -0.4126607             -11.2291
       117        2.0000           -0.4098334             -11.1521
       118        2.0000           -0.3857890             -10.4979
       119        1.0000           -0.2637851              -7.1780 (HOMO)
       120                         -0.0384630              -1.0466 (LUMO)
       121                         -0.0114323              -0.3111
       122                         -0.0053286              -0.1450
       123                          0.0008787               0.0239
       124                          0.0161832               0.4404
       ...                                ...                  ...
       184                          0.4181541              11.3786
      -------------------------------------------------------------
                  HL-Gap            0.2253221 Eh            6.1313 eV
             Fermi-level           -0.2379555 Eh           -6.4751 eV

 SCC (total)                   0 d,  0 h,  0 min,  0.108 sec
 SCC setup                      ...        0 min,  0.002 sec (  2.121%)
 Dispersion                     ...        0 min,  0.002 sec (  1.681%)
 classical contributions        ...        0 min,  0.000 sec (  0.453%)
 integral evaluation            ...        0 min,  0.006 sec (  5.816%)
 iterations                     ...        0 min,  0.075 sec ( 69.747%)
 molecular gradient             ...        0 min,  0.021 sec ( 19.239%)
 printout                       ...        0 min,  0.001 sec (  0.866%)

         :::::::::::::::::::::::::::::::::::::::::::::::::::::
         ::                     SUMMARY                     ::
         :::::::::::::::::::::::::::::::::::::::::::::::::::::
         :: total energy            -147.739284770604 Eh    ::
         :: gradient norm              0.000493390389 Eh/a0 ::
         :: HOMO-LUMO gap              6.131326356908 eV    ::
         ::.................................................::
         :: SCC energy              -148.750067048201 Eh    ::
         :: -> isotropic ES            0.791617377881 Eh    ::
         :: -> anisotropic ES         -0.139518073104 Eh    ::
         :: -> anisotropic XC         -0.008623266431 Eh    ::
         :: -> dispersion             -0.073103158323 Eh    ::
         :: repulsion energy           1.004100065031 Eh    ::
         :: add. restraining           0.000000000000 Eh    ::
         :: total charge              -0.000000000000 e     ::
         :::::::::::::::::::::::::::::::::::::::::::::::::::::

      ----------------------------------------------------------- 
     |                   =====================                   |
     |                        A N C O P T                        |
     |                   =====================                   |
     |               Approximate Normal Coordinate               |
     |                Rational Function Optimizer                |
      ----------------------------------------------------------- 

          ...................................................
          :                      SETUP                      :
          :.................................................:
          :   optimization level            normal          :
          :   max. optcycles                   273          :
          :   ANC micro-cycles                  20          :
          :   degrees of freedom               267          :
          :.................................................:
          :   RF solver                   davidson          :
          :   write xtbopt.log                true          :
          :   linear?                        false          :
          :   energy convergence         0.5000000E-05 Eh   :
          :   grad. convergence          0.1000000E-02 Eh/α :
          :   maximium RF displ.         1.0000000          :
          :   Hlow (freq-cutoff)         0.1000000E-01      :
          :   Hmax (freq-cutoff)         5.0000000          :
          :   S6 in model hess.         20.0000000          :
          ...................................................

generating ANC from model Hessian ...
Using Lindh-Hessian (1995)
 Shifting diagonal of input Hessian by   1.002216805331655E-002
 Lowest  eigenvalues of input Hessian
    0.010000    0.000000    0.000000    0.000000    0.000000    0.000000
    0.000000    0.010062    0.010109    0.010195    0.010230    0.010267
    0.010317    0.010365    0.010435    0.010491    0.010567    0.010625
 Highest eigenvalues
    1.415893    1.416302    1.419171    1.475255    1.564098    1.740764
 

........................................................................
.............................. CYCLE    1 ..............................
........................................................................
   1   -148.7500670 -0.148750E+03  0.331E-05    6.13       0.0  T
   2   -148.7500670 -0.109139E-10  0.187E-05    6.13     560.9  T
   3   -148.7500670 -0.125056E-11  0.689E-06    6.13    1521.6  T
     SCC iter.                  ...        0 min,  0.020 sec
     gradient                   ...        0 min,  0.021 sec
 * total energy  :  -147.7392848 Eh     change       -0.1067519E-09 Eh
   gradient norm :     0.0004928 Eh/α   predicted     0.0000000E+00 (-100.00%)
   displ. norm   :     0.0085441 α      lambda       -0.7333642E-06
   maximum displ.:     0.0028078 α      in ANC's #11, #3, #1, ...

   *** GEOMETRY OPTIMIZATION CONVERGED AFTER 1 ITERATIONS ***

------------------------------------------------------------------------
 total energy gain   :        -0.0000000 Eh       -0.0000 kcal/mol
 total RMSD          :         0.0000001 a0        0.0000 Å
 total power (kW/mol):        -0.0000003 (step)   -0.0000 (real)
------------------------------------------------------------------------

 ANCopt (total)                0 d,  0 h,  0 min,  0.272 sec
 optimizer setup                ...        0 min,  0.001 sec (  0.225%)
 model hessian                  ...        0 min,  0.211 sec ( 77.438%)
 ANC generation                 ...        0 min,  0.010 sec (  3.504%)
 coordinate transformation      ...        0 min,  0.000 sec (  0.029%)
 single point calculation       ...        0 min,  0.049 sec ( 17.946%)
 optimization log               ...        0 min,  0.002 sec (  0.645%)
 hessian update                 ...        0 min,  0.000 sec (  0.001%)
 rational function              ...        0 min,  0.000 sec (  0.096%)

================
 final structure:
================
91
 xtb: 6.5.1 (579679a)
C            1.11007640760000       -0.57897580480000        0.24300206050000
C           -1.24317380170000       -0.09592471280000        0.46048650300000
C           -1.73071937490000        0.85118831810000       -0.62998679470000
C            1.54951045990000        0.61528994650000       -0.48141456430000
H            1.68903663870000       -1.44775649690000       -0.07157116370000
H           -2.06711534970000       -0.71233666090000        0.82275431370000
H           -2.32204217890000        0.31154856890000       -1.36010571120000
H            1.83433569130000        0.56323380610000       -1.51271143240000
H            1.20925082460000       -0.43018373970000        1.32180341500000
H           -0.83826842500000        0.47169381320000        1.30127595020000
H           -2.34105361290000        1.63567315510000       -0.19766292610000
H           -0.88104792060000        1.29857994830000       -1.13298476350000
O           -0.25903247090000       -1.00254876460000       -0.00872866720000
N            1.52612756400000        1.88273118240000        0.09706725840000
H            2.32966874000000        2.44922970730000       -0.15066948750000
H            1.34298638050000        1.88263507070000        1.09572123270000
O            1.09469495180000       -3.90843497470000       -0.25113883810000
H            0.18554599330000       -3.58502931960000       -0.17457615750000
H            1.56000456520000       -3.61637098810000        0.55045389450000
O           -3.18895507660000        2.08438607160000        2.16644936960000
H           -2.64393468760000        1.67285385140000        2.85004188090000
H           -2.65004891160000        2.79012581820000        1.77909934860000
O           -0.30462519530000       -1.17042855850000       -2.72892377950000
H           -0.30598421500000       -1.11147419230000       -1.74719152990000
H           -1.24051262700000       -1.23389055500000       -2.98165234650000
O           -3.03082179720000       -1.09982857910000       -3.25426540800000
H           -3.39134294200000       -1.54012374410000       -4.02441496440000
H           -3.23761544030000       -0.13555991670000       -3.36411516180000
O           -3.55237433510000        1.47206553370000       -3.47735986970000
H           -4.07393463820000        1.88999659490000       -2.79066292680000
H           -2.70654921400000        1.98608534630000       -3.52236800790000
O            1.97772031520000       -2.73291427780000       -2.53909794080000
H            1.73797088010000       -3.26347757850000       -1.75100403080000
H            1.17437942560000       -2.23522771280000       -2.75835299550000
O           -1.30584284810000       -3.04523600430000        2.59883208410000
H           -1.40081595080000       -3.17914149410000        1.62898130500000
H           -1.16794952830000       -3.91112906240000        2.98451183530000
O            4.26335458710000        1.10688085470000        1.53430441420000
H            3.54768484380000        1.04298099500000        2.21405519550000
H            5.05040141230000        1.37386427210000        2.01075778030000
O            0.23271094460000        2.47833336470000        2.71479513260000
H           -0.30399188390000        3.12743973460000        2.23513024210000
H           -0.39326808590000        1.90276621950000        3.18339721650000
O           -1.44403924670000        4.08011820500000        1.14151484360000
H           -0.99752746540000        4.01565583760000        0.27221576860000
H           -1.60159144380000        5.01155374040000        1.29938801980000
O           -3.77977627110000       -2.11706403740000       -0.77170766300000
H           -3.55268475980000       -1.73285702200000       -1.63566842800000
H           -4.00994958760000       -1.38303322090000       -0.18395017520000
O            4.36096531330000       -1.51156323610000        0.70351320700000
H            4.33992694720000       -0.59396941460000        1.02970142660000
H            4.23107999540000       -1.43765591490000       -0.26100348840000
O           -1.72835639730000       -3.59966102060000        0.01774101900000
H           -2.45646189460000       -3.00323834390000       -0.28671507950000
H           -1.97343820350000       -4.48203545510000       -0.26374584850000
O            2.60842376120000       -3.02437080760000        1.94485788610000
H            3.26056975120000       -2.43805841930000        1.47409576610000
H            3.13035177700000       -3.71973503890000        2.34637150710000
O           -0.01146345920000        3.74646818600000       -1.13699799610000
H            0.70788360300000        4.10364190670000       -1.67817597220000
H            0.41994338580000        2.96610903100000       -0.70776578820000
O           -3.28092760730000       -1.28460779390000        3.40962552440000
H           -3.73095220770000       -0.99359672440000        2.60028838390000
H           -2.66254123130000       -1.98503228700000        3.14436812120000
O            4.31698562180000        1.61837804320000       -1.30753868710000
H            4.19337372290000        0.71664149370000       -1.63958735490000
H            4.36459472600000        1.52383116730000       -0.34677285300000
O            0.84520715470000       -1.45644259440000        3.40087699830000
H            1.54402507930000       -1.99551110810000        2.99017023370000
H            0.02730710780000       -1.91030335560000        3.13610545630000
O            2.32250144370000        3.21040077180000       -2.54236540510000
H            3.12511015770000        2.78747628770000       -2.19731067680000
H            1.85801194590000        2.51439207400000       -3.02573933550000
O            2.39681776770000        0.91668262640000        3.40969724200000
H            1.72412135510000        1.60565295680000        3.30243519110000
H            1.91126306760000        0.08381978880000        3.51356589050000
O           -1.27086382020000        2.80756390630000       -3.43416378940000
H           -0.98897175760000        3.22319825000000       -2.60133578950000
H           -0.53918227780000        2.21308281630000       -3.67530686400000
O           -1.36262973680000        0.53100935340000        3.84532131090000
H           -0.59345691800000       -0.03962361010000        3.95796142840000
H           -2.12404819160000       -0.09272230510000        3.80786310600000
O           -4.43806610180000       -0.07696437040000        1.14588493870000
H           -5.36644618270000        0.05721573770000        1.34205068140000
H           -3.98117389060000        0.74985012180000        1.41929067740000
O            0.80054206440000        1.02515326480000       -3.78445745930000
H            1.11765440930000        0.75534635250000       -4.64660366250000
H            0.41272051190000        0.21788832550000       -3.36650480680000
O            3.98749961390000       -1.14143217070000       -1.98356117570000
H            4.71282117320000       -1.48909519360000       -2.50360756930000
H            3.20081040650000       -1.71201509890000       -2.20499918260000
 
 Bond Distances (Angstroems)
 ---------------------------
C1-C4=1.4643         C1-H5=1.0904         C1-H9=1.0935         C1-O13=1.4551        C2-C3=1.5244         C2-H6=1.0909         
C2-H10=1.0923        C2-O13=1.4180        C3-C2=1.5244         C3-H7=1.0835         C3-H11=1.0839        C3-H12=1.0840        
C4-C1=1.4643         C4-H8=1.0712         C4-N14=1.3934        H5-C1=1.0904         H6-C2=1.0909         H7-C3=1.0835         
H8-C4=1.0712         H9-C1=1.0935         H10-C2=1.0923        H11-C3=1.0839        H12-C3=1.0840        O13-C1=1.4551        
O13-C2=1.4180        N14-C4=1.3934        N14-H15=1.0139       N14-H16=1.0153       H15-N14=1.0139       H16-N14=1.0153       
O17-H18=0.9680       O17-H19=0.9718       H18-O17=0.9680       H19-O17=0.9718       O20-H21=0.9663       O20-H22=0.9688       
H21-O20=0.9663       H22-O20=0.9688       O23-H24=0.9835       O23-H25=0.9715       H24-O23=0.9835       H25-O23=0.9715       
O26-H27=0.9576       O26-H28=0.9923       H27-O26=0.9576       H28-O26=0.9923       O29-H30=0.9583       O29-H31=0.9908       
H30-O29=0.9583       H31-O29=0.9908       O32-H33=0.9798       O32-H34=0.9701       H33-O32=0.9798       H34-O32=0.9701       
O35-H36=0.9836       O35-H37=0.9579       H36-O35=0.9836       H37-O35=0.9579       O38-H39=0.9891       O38-H40=0.9580       
H39-O38=0.9891       H40-O38=0.9580       O41-H42=0.9693       O41-H43=0.9709       H42-O41=0.9693       H43-O41=0.9709       
O44-H45=0.9794       O44-H46=0.9578       H45-O44=0.9794       H46-O44=0.9578       O47-H48=0.9724       O47-H49=0.9681       
H48-O47=0.9724       H49-O47=0.9681       O50-H51=0.9741       O50-H52=0.9760       H51-O50=0.9741       H52-O50=0.9760       
O53-H54=0.9892       O53-H55=0.9581       H54-O53=0.9892       H55-O53=0.9581       O56-H57=0.9953       O56-H58=0.9577       
H57-O56=0.9953       H58-O56=0.9577       O59-H60=0.9685       O59-H61=0.9896       H60-O59=0.9685       H61-O59=0.9896       
O62-H63=0.9707       O62-H64=0.9713       H63-O62=0.9707       H64-O62=0.9713       O65-H66=0.9688       O65-H67=0.9666       
H66-O65=0.9688       H67-O65=0.9666       O68-H69=0.9735       O68-H70=0.9721       H69-O68=0.9735       H70-O68=0.9721       
O71-H72=0.9706       O71-H73=0.9663       H72-O71=0.9706       H73-O71=0.9663       O74-H75=0.9689       O74-H76=0.9696       
H75-O74=0.9689       H76-O74=0.9696       O77-H78=0.9725       O77-H79=0.9731       H78-O77=0.9725       H79-O77=0.9731       
O80-H81=0.9643       O80-H82=0.9850       H81-O80=0.9643       H82-O80=0.9850       O83-H84=0.9583       O83-H85=0.9834       
H84-O83=0.9583       H85-O83=0.9834       O86-H87=0.9574       O86-H88=0.9883       H87-O86=0.9574       H88-O86=0.9883       
O89-H90=0.9578       O89-H91=0.9967       H90-O89=0.9578       H91-O89=0.9967       
 C  H  Rav=1.0862 sigma=0.0068  Rmin=1.0712  Rmax=1.0935     8
 C  C  Rav=1.4944 sigma=0.0301  Rmin=1.4643  Rmax=1.5244     2
 N  H  Rav=1.0146 sigma=0.0007  Rmin=1.0139  Rmax=1.0153     2
 N  C  Rav=1.3934 sigma=0.0000  Rmin=1.3934  Rmax=1.3934     1
 O  H  Rav=0.9726 sigma=0.0110  Rmin=0.9574  Rmax=0.9967    50
 O  C  Rav=1.4365 sigma=0.0185  Rmin=1.4180  Rmax=1.4551     2
 
 selected bond angles (degree)
 --------------------
H5-C1-C4=110.35                H9-C1-C4=110.48                H9-C1-H5=110.17                O13-C1-C4=115.73               
O13-C1-H5=102.58               O13-C1-H9=107.19               H6-C2-C3=110.31                H10-C2-C3=110.26               
H10-C2-H6=108.54               O13-C2-C3=112.49               O13-C2-H6=105.83               O13-C2-H10=109.25              
H7-C3-C2=110.31                H11-C3-C2=110.15               H11-C3-H7=108.78               H12-C3-C2=109.73               
H12-C3-H7=108.70               H12-C3-H11=109.13              H8-C4-C1=121.10                N14-C4-C1=122.10               
N14-C4-H8=116.64               
 
 selected dihedral angles (degree)
 ---------------------------------
H7-C3-C2-H6=312.16            H7-C3-C2-H10=192.29           H7-C3-C2-O13= 70.07           H11-C3-C2-H6= 72.26           
H11-C3-C2-H10=312.39          H11-C3-C2-O13=190.16          H12-C3-C2-H6=192.42           H12-C3-C2-H10= 72.55          
H12-C3-C2-O13=310.33          H8-C4-C1-H5= 37.46            H8-C4-C1-H9=159.55            H8-C4-C1-O13=281.57           
N14-C4-C1-H5=212.67           N14-C4-C1-H9=334.75           N14-C4-C1-O13= 96.78          
 
 CMA Distance (Angstroems)
 ---------------------------
R(CMA):  0.3754
           -------------------------------------------------
          |                Final Singlepoint                |
           -------------------------------------------------

          ...................................................
          :                      SETUP                      :
          :.................................................:
          :  # basis functions                 184          :
          :  # atomic orbitals                 184          :
          :  # shells                          122          :
          :  # electrons                       237          :
          :  max. iterations                   250          :
          :  Hamiltonian                  GFN2-xTB          :
          :  restarted?                      false          :
          :  GBSA solvation                  false          :
          :  PC potential                    false          :
          :  electronic temp.          300.0000000     K    :
          :  accuracy                    1.0000000          :
          :  -> integral cutoff          0.2500000E+02      :
          :  -> integral neglect         0.1000000E-07      :
          :  -> SCF convergence          0.1000000E-05 Eh   :
          :  -> wf. convergence          0.1000000E-03 e    :
          :  Broyden damping             0.4000000          :
          ...................................................

 iter      E             dE          RMSdq      gap      omega  full diag
   1   -148.7500670 -0.148750E+03  0.224E-06    6.13       0.0  T
   2   -148.7500670  0.284217E-13  0.134E-06    6.13    7805.2  T
   3   -148.7500670  0.000000E+00  0.386E-07    6.13   27134.8  T

   *** convergence criteria satisfied after 3 iterations ***

         #    Occupation            Energy/Eh            Energy/eV
      -------------------------------------------------------------
         1        2.0000           -0.6905560             -18.7910
       ...           ...                  ...                  ...
       113        2.0000           -0.4174866             -11.3604
       114        2.0000           -0.4174238             -11.3587
       115        2.0000           -0.4157347             -11.3127
       116        2.0000           -0.4126613             -11.2291
       117        2.0000           -0.4098315             -11.1521
       118        2.0000           -0.3857907             -10.4979
       119        1.0000           -0.2637863              -7.1780 (HOMO)
       120                         -0.0384634              -1.0466 (LUMO)
       121                         -0.0114331              -0.3111
       122                         -0.0053291              -0.1450
       123                          0.0008782               0.0239
       124                          0.0161812               0.4403
       ...                                ...                  ...
       184                          0.4181528              11.3785
      -------------------------------------------------------------
                  HL-Gap            0.2253229 Eh            6.1313 eV
             Fermi-level           -0.2379567 Eh           -6.4751 eV

 SCC (total)                   0 d,  0 h,  0 min,  0.048 sec
 SCC setup                      ...        0 min,  0.000 sec (  0.788%)
 Dispersion                     ...        0 min,  0.001 sec (  1.701%)
 classical contributions        ...        0 min,  0.000 sec (  0.197%)
 integral evaluation            ...        0 min,  0.005 sec ( 10.942%)
 iterations                     ...        0 min,  0.020 sec ( 42.528%)
 molecular gradient             ...        0 min,  0.020 sec ( 42.513%)
 printout                       ...        0 min,  0.001 sec (  1.150%)

         :::::::::::::::::::::::::::::::::::::::::::::::::::::
         ::                     SUMMARY                     ::
         :::::::::::::::::::::::::::::::::::::::::::::::::::::
         :: total energy            -147.739284770711 Eh    ::
         :: gradient norm              0.000492822908 Eh/a0 ::
         :: HOMO-LUMO gap              6.131348469716 eV    ::
         ::.................................................::
         :: SCC energy              -148.750067048309 Eh    ::
         :: -> isotropic ES            0.791615167149 Eh    ::
         :: -> anisotropic ES         -0.139518138126 Eh    ::
         :: -> anisotropic XC         -0.008623318684 Eh    ::
         :: -> dispersion             -0.073103126849 Eh    ::
         :: repulsion energy           1.004100065031 Eh    ::
         :: add. restraining           0.000000000000 Eh    ::
         :: total charge              -0.000000000000 e     ::
         :::::::::::::::::::::::::::::::::::::::::::::::::::::

           ------------------------------------------------- 
          |                Numerical Hessian                |
           ------------------------------------------------- 
step length          :   0.00500
SCC accuracy         :   0.30000
Hessian scale factor :   1.00000
frozen atoms in %    :   0.00000    0
RMS gradient         :   0.00049
estimated CPU  time     15.64 min
estimated wall time      1.58 min

writing file <hessian>.

 projected vibrational frequencies (cm⁻¹)
eigval :       -0.00    -0.00    -0.00    -0.00     0.00     0.00
eigval :       28.37    28.90    33.92    36.32    37.69    41.05
eigval :       46.42    46.80    51.73    54.11    56.14    59.10
eigval :       59.40    60.70    63.62    64.81    66.07    68.22
eigval :       69.92    71.63    73.08    76.04    76.86    77.88
eigval :       80.50    81.89    87.07    89.79    91.16    97.06
eigval :       97.95    99.61   105.44   108.77   110.15   119.42
eigval :      123.48   128.45   131.16   136.39   138.88   140.22
eigval :      146.92   149.94   151.24   154.06   156.27   162.85
eigval :      168.84   174.70   177.67   179.53   184.88   190.30
eigval :      193.67   197.57   205.09   210.02   213.37   216.47
eigval :      219.45   221.46   225.71   228.72   232.41   241.93
eigval :      246.20   249.90   253.48   259.03   263.02   265.26
eigval :      272.33   275.16   282.80   287.76   296.02   299.34
eigval :      302.04   314.87   318.24   320.67   324.47   330.00
eigval :      331.28   338.76   346.55   351.82   360.36   366.98
eigval :      372.32   375.84   394.56   400.54   405.38   410.09
eigval :      433.22   435.62   444.06   446.11   450.33   451.52
eigval :      457.89   458.68   473.70   476.81   481.39   485.11
eigval :      490.24   493.01   499.93   510.27   512.45   517.77
eigval :      524.53   527.57   532.12   537.80   543.06   550.10
eigval :      552.91   562.50   568.06   574.57   578.08   578.35
eigval :      582.93   590.61   595.28   604.23   615.01   618.60
eigval :      625.50   631.80   637.09   640.36   649.06   655.18
eigval :      670.04   674.87   678.60   685.80   691.31   705.55
eigval :      715.96   732.88   742.06   766.34   774.63   782.20
eigval :      794.49   799.65   810.34   819.17   834.38   846.33
eigval :      850.83   862.75   873.45   884.66   902.74   920.37
eigval :      931.11   937.37   962.34  1000.35  1085.59  1094.90
eigval :     1128.37  1168.40  1231.19  1244.18  1271.40  1301.28
eigval :     1335.73  1384.90  1398.82  1429.42  1458.25  1476.54
eigval :     1477.25  1485.69  1513.09  1516.34  1517.69  1520.12
eigval :     1522.98  1524.96  1526.95  1528.84  1530.05  1532.06
eigval :     1535.36  1537.41  1541.61  1543.35  1543.96  1547.16
eigval :     1549.19  1554.11  1556.00  1559.72  1565.14  1574.37
eigval :     1581.89  1586.76  1604.26  2917.40  2947.32  2964.73
eigval :     2966.45  2972.47  2981.59  2989.60  3011.41  3051.15
eigval :     3065.69  3075.32  3077.57  3085.06  3091.58  3098.56
eigval :     3132.92  3170.88  3173.68  3182.89  3192.60  3246.75
eigval :     3259.03  3290.46  3341.78  3346.13  3346.56  3374.47
eigval :     3384.25  3388.64  3391.31  3401.71  3404.86  3409.93
eigval :     3415.49  3416.44  3422.79  3437.51  3444.88  3458.52
eigval :     3461.77  3464.15  3469.21  3482.46  3488.93  3493.70
eigval :     3494.95  3520.65  3526.31  3530.36  3568.49  3666.25
eigval :     3666.73  3667.10  3670.19  3671.52  3673.21  3675.62
eigval :     3675.97  3676.96  3678.28
           -------------------------------------------------
          |                Property Printout                |
           -------------------------------------------------

    * Orbital Energies and Occupations

         #    Occupation            Energy/Eh            Energy/eV
      -------------------------------------------------------------
         1        2.0000           -0.6905560             -18.7910
       ...           ...                  ...                  ...
       107        2.0000           -0.4289730             -11.6729
       108        2.0000           -0.4257972             -11.5865
       109        2.0000           -0.4245246             -11.5519
       110        2.0000           -0.4233292             -11.5194
       111        2.0000           -0.4222436             -11.4898
       112        2.0000           -0.4220987             -11.4859
       113        2.0000           -0.4174866             -11.3604
       114        2.0000           -0.4174238             -11.3587
       115        2.0000           -0.4157347             -11.3127
       116        2.0000           -0.4126613             -11.2291
       117        2.0000           -0.4098315             -11.1521
       118        2.0000           -0.3857908             -10.4979
       119        1.0000           -0.2637863              -7.1780 (HOMO)
       120                         -0.0384634              -1.0466 (LUMO)
       121                         -0.0114331              -0.3111
       122                         -0.0053291              -0.1450
       123                          0.0008782               0.0239
       124                          0.0161812               0.4403
       125                          0.0342040               0.9307
       126                          0.0379976               1.0340
       127                          0.0448150               1.2195
       128                          0.0528858               1.4391
       129                          0.0681321               1.8540
       130                          0.0769529               2.0940
       ...                                ...                  ...
       184                          0.4181528              11.3785
      -------------------------------------------------------------
                  HL-Gap            0.2253229 Eh            6.1313 eV
             Fermi-level           -0.2379567 Eh           -6.4751 eV

     #   Z          covCN         q      C6AA      α(0)
     1   6 C        3.687     0.033    20.208     6.435
     2   6 C        3.687     0.050    19.915     6.388
     3   6 C        3.751    -0.161    23.684     6.940
     4   6 C        2.815    -0.074    29.841     8.950
     5   1 H        0.924     0.080     1.978     2.199
     6   1 H        0.924     0.060     2.202     2.320
     7   1 H        0.925     0.061     2.193     2.316
     8   1 H        0.926     0.058     2.226     2.333
     9   1 H        0.924     0.059     2.213     2.326
    10   1 H        0.924     0.052     2.294     2.368
    11   1 H        0.925     0.053     2.287     2.365
    12   1 H        0.925     0.070     2.080     2.255
    13   8 O        1.694    -0.359    20.059     6.047
    14   7 N        2.632    -0.294    27.581     7.800
    15   1 H        0.860     0.193     1.141     1.673
    16   1 H        0.860     0.199     1.111     1.651
    17   8 O        1.609    -0.635    26.031     6.886
    18   1 H        0.804     0.316     0.676     1.291
    19   1 H        0.804     0.313     0.682     1.297
    20   8 O        1.609    -0.628    25.877     6.866
    21   1 H        0.805     0.321     0.662     1.278
    22   1 H        0.804     0.316     0.674     1.289
    23   8 O        1.607    -0.653    26.488     6.946
    24   1 H        0.802     0.338     0.617     1.234
    25   1 H        0.804     0.317     0.672     1.288
    26   8 O        1.606    -0.626    25.810     6.857
    27   1 H        0.806     0.284     0.772     1.380
    28   1 H        0.801     0.342     0.609     1.226
    29   8 O        1.607    -0.623    25.734     6.847
    30   1 H        0.806     0.283     0.774     1.382
    31   1 H        0.801     0.342     0.608     1.225
    32   8 O        1.608    -0.639    26.149     6.902
    33   1 H        0.803     0.325     0.649     1.266
    34   1 H        0.804     0.317     0.673     1.289
    35   8 O        1.608    -0.619    25.641     6.834
    36   1 H        0.802     0.342     0.608     1.225
    37   1 H        0.806     0.286     0.765     1.374
    38   8 O        1.607    -0.626    25.819     6.858
    39   1 H        0.802     0.340     0.612     1.229
    40   1 H        0.806     0.283     0.775     1.382
    41   8 O        1.608    -0.647    26.337     6.926
    42   1 H        0.804     0.312     0.685     1.300
    43   1 H        0.804     0.319     0.667     1.283
    44   8 O        1.609    -0.616    25.561     6.824
    45   1 H        0.803     0.341     0.610     1.227
    46   1 H        0.806     0.285     0.768     1.376
    47   8 O        1.609    -0.626    25.823     6.858
    48   1 H        0.804     0.318     0.670     1.286
    49   1 H        0.804     0.317     0.672     1.287
    50   8 O        1.608    -0.646    26.325     6.925
    51   1 H        0.804     0.316     0.675     1.290
    52   1 H        0.803     0.320     0.665     1.281
    53   8 O        1.607    -0.622    25.726     6.846
    54   1 H        0.802     0.342     0.608     1.225
    55   1 H        0.806     0.286     0.764     1.373
    56   8 O        1.606    -0.629    25.901     6.869
    57   1 H        0.801     0.342     0.607     1.225
    58   1 H        0.806     0.280     0.784     1.391
    59   8 O        1.606    -0.646    26.317     6.924
    60   1 H        0.804     0.319     0.666     1.282
    61   1 H        0.803     0.322     0.658     1.275
    62   8 O        1.608    -0.632    25.960     6.877
    63   1 H        0.804     0.311     0.690     1.304
    64   1 H        0.804     0.315     0.678     1.293
    65   8 O        1.609    -0.630    25.906     6.870
    66   1 H        0.804     0.313     0.683     1.298
    67   1 H        0.805     0.307     0.700     1.315
    68   8 O        1.608    -0.657    26.584     6.959
    69   1 H        0.804     0.315     0.678     1.293
    70   1 H        0.804     0.316     0.674     1.289
    71   8 O        1.609    -0.633    25.999     6.882
    72   1 H        0.804     0.310     0.691     1.306
    73   1 H        0.805     0.304     0.709     1.323
    74   8 O        1.609    -0.629    25.894     6.868
    75   1 H        0.804     0.322     0.657     1.273
    76   1 H        0.804     0.322     0.657     1.273
    77   8 O        1.608    -0.640    26.155     6.902
    78   1 H        0.804     0.316     0.675     1.291
    79   1 H        0.804     0.318     0.670     1.286
    80   8 O        1.607    -0.656    26.578     6.958
    81   1 H        0.805     0.310     0.692     1.307
    82   1 H        0.802     0.328     0.643     1.260
    83   8 O        1.608    -0.622    25.714     6.844
    84   1 H        0.806     0.284     0.770     1.378
    85   1 H        0.802     0.341     0.610     1.227
    86   8 O        1.607    -0.626    25.830     6.859
    87   1 H        0.806     0.280     0.783     1.390
    88   1 H        0.802     0.339     0.616     1.233
    89   8 O        1.605    -0.632    25.964     6.877
    90   1 H        0.806     0.280     0.784     1.391
    91   1 H        0.801     0.341     0.609     1.226

 Mol. C6AA /au·bohr⁶  :      44470.852302
 Mol. C8AA /au·bohr⁸  :     828050.497102
 Mol. α(0) /au        :        301.141303


Wiberg/Mayer (AO) data.
largest (>0.10) Wiberg bond orders for each atom

 ---------------------------------------------------------------------------
     #   Z sym  total        # sym  WBO       # sym  WBO       # sym  WBO
 ---------------------------------------------------------------------------
     1   6 C    3.933 --     4 C    1.067     9 H    0.951     5 H    0.942
                            13 O    0.910
     2   6 C    3.944 --     3 C    1.012    13 O    0.973    10 H    0.962
                             6 H    0.959
     3   6 C    3.988 --     2 C    1.012    11 H    0.978     7 H    0.976
                            12 H    0.971
     4   6 C    3.230 --    14 N    1.156     1 C    1.067     8 H    0.960
     5   1 H    0.977 --     1 C    0.942
     6   1 H    0.994 --     2 C    0.959
     7   1 H    0.996 --     3 C    0.976
     8   1 H    0.996 --     4 C    0.960
     9   1 H    0.993 --     1 C    0.951
    10   1 H    0.996 --     2 C    0.962
    11   1 H    0.997 --     3 C    0.978
    12   1 H    0.995 --     3 C    0.971
    13   8 O    2.054 --     2 C    0.973     1 C    0.910
    14   7 N    3.154 --     4 C    1.156    15 H    0.921    16 H    0.918
    15   1 H    0.944 --    14 N    0.921
    16   1 H    0.958 --    14 N    0.918
    17   8 O    1.852 --    18 H    0.872    19 H    0.858
    18   1 H    0.900 --    17 O    0.872
    19   1 H    0.902 --    17 O    0.858
    20   8 O    1.853 --    21 H    0.874    22 H    0.861
    21   1 H    0.897 --    20 O    0.874
    22   1 H    0.900 --    20 O    0.861
    23   8 O    1.878 --    25 H    0.850    24 H    0.820
    24   1 H    0.885 --    23 O    0.820
    25   1 H    0.899 --    23 O    0.850
    26   8 O    1.872 --    27 H    0.914    28 H    0.797
    27   1 H    0.919 --    26 O    0.914
    28   1 H    0.883 --    26 O    0.797
    29   8 O    1.872 --    30 H    0.915    31 H    0.803
    30   1 H    0.920 --    29 O    0.915
    31   1 H    0.883 --    29 O    0.803
    32   8 O    1.879 --    34 H    0.861    33 H    0.836
    33   1 H    0.894 --    32 O    0.836
    34   1 H    0.900 --    32 O    0.861
    35   8 O    1.873 --    37 H    0.914    36 H    0.815
    36   1 H    0.883 --    35 O    0.815
    37   1 H    0.918 --    35 O    0.914
    38   8 O    1.862 --    40 H    0.917    39 H    0.803
    39   1 H    0.884 --    38 O    0.803
    40   1 H    0.920 --    38 O    0.917
    41   8 O    1.829 --    43 H    0.856    42 H    0.856
    42   1 H    0.902 --    41 O    0.856
    43   1 H    0.898 --    41 O    0.856
    44   8 O    1.863 --    46 H    0.914    45 H    0.828
    45   1 H    0.884 --    44 O    0.828
    46   1 H    0.919 --    44 O    0.914
    47   8 O    1.877 --    49 H    0.868    48 H    0.855
    48   1 H    0.899 --    47 O    0.855
    49   1 H    0.899 --    47 O    0.868
    50   8 O    1.868 --    51 H    0.847    52 H    0.841
    51   1 H    0.900 --    50 O    0.847
    52   1 H    0.898 --    50 O    0.841
    53   8 O    1.875 --    55 H    0.913    54 H    0.800
    54   1 H    0.883 --    53 O    0.800
    55   1 H    0.918 --    53 O    0.913
    56   8 O    1.867 --    58 H    0.917    57 H    0.792
    57   1 H    0.883 --    56 O    0.792
    58   1 H    0.921 --    56 O    0.917
    59   8 O    1.858 --    60 H    0.868    61 H    0.809
    60   1 H    0.898 --    59 O    0.868
    61   1 H    0.893 --    59 O    0.809
    62   8 O    1.868 --    63 H    0.862    64 H    0.859
    63   1 H    0.903 --    62 O    0.862
    64   1 H    0.901 --    62 O    0.859
    65   8 O    1.834 --    67 H    0.877    66 H    0.871
    66   1 H    0.902 --    65 O    0.871
    67   1 H    0.906 --    65 O    0.877
    68   8 O    1.812 --    69 H    0.853    70 H    0.853
    69   1 H    0.901 --    68 O    0.853
    70   1 H    0.900 --    68 O    0.853
    71   8 O    1.820 --    73 H    0.885    72 H    0.868
    72   1 H    0.904 --    71 O    0.868
    73   1 H    0.908 --    71 O    0.885
    74   8 O    1.870 --    75 H    0.861    76 H    0.861
    75   1 H    0.896 --    74 O    0.861
    76   1 H    0.896 --    74 O    0.861
    77   8 O    1.863 --    78 H    0.853    79 H    0.852
    78   1 H    0.900 --    77 O    0.853
    79   1 H    0.899 --    77 O    0.852
    80   8 O    1.818 --    81 H    0.884    82 H    0.814
    81   1 H    0.904 --    80 O    0.884
    82   1 H    0.892 --    80 O    0.814
    83   8 O    1.859 --    84 H    0.915    85 H    0.819
    84   1 H    0.919 --    83 O    0.915
    85   1 H    0.884 --    83 O    0.819
    86   8 O    1.855 --    87 H    0.917    88 H    0.807
    87   1 H    0.921 --    86 O    0.917
    88   1 H    0.885 --    86 O    0.807
    89   8 O    1.862 --    90 H    0.918    91 H    0.786
    90   1 H    0.922 --    89 O    0.918
    91   1 H    0.883 --    89 O    0.786
 ---------------------------------------------------------------------------

Topologies differ in total number of bonds
Writing topology from bond orders to xtbtopo.mol

molecular dipole:
                 x           y           z       tot (Debye)
 q only:       -0.926      -0.300      -0.112
   full:       -1.014      -0.768      -0.092       3.241
molecular quadrupole (traceless):
                xx          xy          yy          xz          yz          zz
 q only:        4.514      -3.499       8.900      10.076       5.725     -13.413
  q+dip:        6.299      -4.172      10.497      13.003       7.163     -16.796
   full:        7.083      -4.719      10.810      13.240       7.325     -17.893

           -------------------------------------------------
          |                Geometry Summary                 |
           -------------------------------------------------

      molecular mass/u    :      538.5106197
   center of mass at/Å    :        0.0389768       0.0072804       0.0191736
  moments of inertia/u·Å² :        0.5358287E+04   0.5836983E+04   0.6482569E+04
rotational constants/cm⁻¹ :        0.3146086E-02   0.2888073E-02   0.2600455E-02

 * 64 selected distances

     #   Z          #   Z                                           value/Å
     2   6 C        3   6 C                                       1.5244200 (max)
     1   6 C        4   6 C                                       1.4642926
     1   6 C        5   1 H                                       1.0903813
     2   6 C        6   1 H                                       1.0909086
     3   6 C        7   1 H                                       1.0834886
     4   6 C        8   1 H                                       1.0711716
     1   6 C        9   1 H                                       1.0935206
     2   6 C       10   1 H                                       1.0922757
     3   6 C       11   1 H                                       1.0838951
     3   6 C       12   1 H                                       1.0840240
     2   6 C       13   8 O                                       1.4179790
     4   6 C       14   7 N                                       1.3934115
    14   7 N       15   1 H                                       1.0138899
    14   7 N       16   1 H                                       1.0153082
    17   8 O       18   1 H                                       0.9679902
    17   8 O       19   1 H                                       0.9717847
    20   8 O       21   1 H                                       0.9662841
    20   8 O       22   1 H                                       0.9687769
    23   8 O       24   1 H                                       0.9835018
    23   8 O       25   1 H                                       0.9714858
    26   8 O       27   1 H                                       0.9575833
    26   8 O       28   1 H                                       0.9922927
    29   8 O       30   1 H                                       0.9582507
    29   8 O       31   1 H                                       0.9907888
    32   8 O       33   1 H                                       0.9798313
    32   8 O       34   1 H                                       0.9701141
    35   8 O       36   1 H                                       0.9836469
    35   8 O       37   1 H                                       0.9578802
    38   8 O       39   1 H                                       0.9891045
    38   8 O       40   1 H                                       0.9579827
    41   8 O       42   1 H                                       0.9692614
    41   8 O       43   1 H                                       0.9709353
    44   8 O       45   1 H                                       0.9793923
    44   8 O       46   1 H                                       0.9577677
    47   8 O       48   1 H                                       0.9724268
    47   8 O       49   1 H                                       0.9681116
    50   8 O       51   1 H                                       0.9740739
    50   8 O       52   1 H                                       0.9760252
    53   8 O       54   1 H                                       0.9892175
    53   8 O       55   1 H                                       0.9580630
    56   8 O       57   1 H                                       0.9953260
    56   8 O       58   1 H                                       0.9576814
    59   8 O       60   1 H                                       0.9684560
    59   8 O       61   1 H                                       0.9896023
    62   8 O       63   1 H                                       0.9706886
    62   8 O       64   1 H                                       0.9712661
    65   8 O       66   1 H                                       0.9688474
    65   8 O       67   1 H                                       0.9665800
    68   8 O       69   1 H                                       0.9734586
    68   8 O       70   1 H                                       0.9721390
    71   8 O       72   1 H                                       0.9706229
    71   8 O       73   1 H                                       0.9663483
    74   8 O       75   1 H                                       0.9688684
    74   8 O       76   1 H                                       0.9696457
    77   8 O       78   1 H                                       0.9725316
    77   8 O       79   1 H                                       0.9730960
    80   8 O       81   1 H                                       0.9643323
    80   8 O       82   1 H                                       0.9849886
    83   8 O       84   1 H                                       0.9583189
    83   8 O       85   1 H                                       0.9834244
    86   8 O       87   1 H                                       0.9574196 (min)
    86   8 O       88   1 H                                       0.9883152
    89   8 O       90   1 H                                       0.9578149
    89   8 O       91   1 H                                       0.9967345

 * 6 distinct bonds (by element types)

   Z      Z             #   av. dist./Å        max./Å        min./Å
   1 H    6 C           8     1.0862082     1.0935206     1.0711716
   6 C    6 C           2     1.4943563     1.5244200     1.4642926
   1 H    7 N           2     1.0145990     1.0153082     1.0138899
   6 C    7 N           1     1.3934115     1.3934115     1.3934115
   1 H    8 O          50     0.9725816     0.9967345     0.9574196
   6 C    8 O           1     1.4179790     1.4179790     1.4179790

           -------------------------------------------------
          |               Frequency Printout                |
           -------------------------------------------------
 projected vibrational frequencies (cm⁻¹)
eigval :       -0.00    -0.00    -0.00    -0.00     0.00     0.00
eigval :       28.37    28.90    33.92    36.32    37.69    41.05
eigval :       46.42    46.80    51.73    54.11    56.14    59.10
eigval :       59.40    60.70    63.62    64.81    66.07    68.22
eigval :       69.92    71.63    73.08    76.04    76.86    77.88
eigval :       80.50    81.89    87.07    89.79    91.16    97.06
eigval :       97.95    99.61   105.44   108.77   110.15   119.42
eigval :      123.48   128.45   131.16   136.39   138.88   140.22
eigval :      146.92   149.94   151.24   154.06   156.27   162.85
eigval :      168.84   174.70   177.67   179.53   184.88   190.30
eigval :      193.67   197.57   205.09   210.02   213.37   216.47
eigval :      219.45   221.46   225.71   228.72   232.41   241.93
eigval :      246.20   249.90   253.48   259.03   263.02   265.26
eigval :      272.33   275.16   282.80   287.76   296.02   299.34
eigval :      302.04   314.87   318.24   320.67   324.47   330.00
eigval :      331.28   338.76   346.55   351.82   360.36   366.98
eigval :      372.32   375.84   394.56   400.54   405.38   410.09
eigval :      433.22   435.62   444.06   446.11   450.33   451.52
eigval :      457.89   458.68   473.70   476.81   481.39   485.11
eigval :      490.24   493.01   499.93   510.27   512.45   517.77
eigval :      524.53   527.57   532.12   537.80   543.06   550.10
eigval :      552.91   562.50   568.06   574.57   578.08   578.35
eigval :      582.93   590.61   595.28   604.23   615.01   618.60
eigval :      625.50   631.80   637.09   640.36   649.06   655.18
eigval :      670.04   674.87   678.60   685.80   691.31   705.55
eigval :      715.96   732.88   742.06   766.34   774.63   782.20
eigval :      794.49   799.65   810.34   819.17   834.38   846.33
eigval :      850.83   862.75   873.45   884.66   902.74   920.37
eigval :      931.11   937.37   962.34  1000.35  1085.59  1094.90
eigval :     1128.37  1168.40  1231.19  1244.18  1271.40  1301.28
eigval :     1335.73  1384.90  1398.82  1429.42  1458.25  1476.54
eigval :     1477.25  1485.69  1513.09  1516.34  1517.69  1520.12
eigval :     1522.98  1524.96  1526.95  1528.84  1530.05  1532.06
eigval :     1535.36  1537.41  1541.61  1543.35  1543.96  1547.16
eigval :     1549.19  1554.11  1556.00  1559.72  1565.14  1574.37
eigval :     1581.89  1586.76  1604.26  2917.40  2947.32  2964.73
eigval :     2966.45  2972.47  2981.59  2989.60  3011.41  3051.15
eigval :     3065.69  3075.32  3077.57  3085.06  3091.58  3098.56
eigval :     3132.92  3170.88  3173.68  3182.89  3192.60  3246.75
eigval :     3259.03  3290.46  3341.78  3346.13  3346.56  3374.47
eigval :     3384.25  3388.64  3391.31  3401.71  3404.86  3409.93
eigval :     3415.49  3416.44  3422.79  3437.51  3444.88  3458.52
eigval :     3461.77  3464.15  3469.21  3482.46  3488.93  3493.70
eigval :     3494.95  3520.65  3526.31  3530.36  3568.49  3666.25
eigval :     3666.73  3667.10  3670.19  3671.52  3673.21  3675.62
eigval :     3675.97  3676.96  3678.28
 reduced masses (amu)
   1: 14.09   2: 14.13   3: 14.03   4: 13.95   5: 14.10   6: 13.94   7: 13.97   8: 13.84
   9: 14.30  10: 13.93  11: 14.15  12: 14.15  13: 14.09  14: 13.86  15: 14.21  16: 13.99
  17: 14.03  18: 14.38  19: 14.32  20: 14.19  21: 14.09  22: 14.10  23: 14.26  24: 14.19
  25: 14.00  26: 14.42  27: 13.40  28: 14.01  29: 13.90  30: 14.31  31: 14.37  32: 14.04
  33: 13.95  34: 13.85  35: 13.67  36: 13.98  37: 14.48  38: 14.11  39: 14.49  40: 13.97
  41: 12.75  42: 12.54  43: 11.30  44: 12.84  45: 13.22  46: 11.18  47: 12.98  48: 12.59
  49: 13.37  50: 13.68  51: 12.47  52: 12.94  53: 13.15  54: 12.76  55: 11.86  56: 12.51
  57: 12.68  58: 12.57  59: 11.65  60: 11.86  61: 10.49  62: 10.59  63: 10.18  64:  9.83
  65: 11.38  66: 13.61  67: 12.42  68: 11.38  69: 10.91  70:  7.80  71:  8.23  72:  8.41
  73:  7.02  74:  7.27  75: 11.62  76:  9.88  77:  7.49  78:  8.63  79:  8.18  80: 11.47
  81: 10.15  82:  7.51  83: 11.76  84:  8.30  85: 10.76  86:  8.23  87: 11.05  88:  7.49
  89:  6.00  90: 12.13  91: 13.13  92:  9.92  93:  7.90  94: 11.78  95:  9.00  96: 13.07
  97: 12.76  98: 13.34  99:  5.05 100:  2.78 101:  6.73 102:  3.63 103:  1.92 104:  1.82
 105:  6.93 106:  2.74 107:  2.46 108:  2.49 109:  1.92 110:  2.05 111:  1.92 112:  2.26
 113:  2.00 114:  1.93 115:  2.00 116:  1.73 117:  1.70 118:  1.68 119:  1.64 120:  2.06
 121:  1.79 122:  3.75 123:  4.30 124:  3.98 125:  1.65 126:  2.01 127:  2.29 128:  1.72
 129:  1.82 130:  1.65 131:  1.65 132:  1.64 133:  1.57 134:  1.83 135:  1.61 136:  1.78
 137:  1.68 138:  1.74 139:  2.00 140:  1.78 141:  1.91 142:  1.68 143:  1.85 144:  2.03
 145:  1.76 146:  2.14 147:  2.14 148:  1.96 149:  2.03 150:  1.95 151:  1.85 152:  1.98
 153:  2.01 154:  2.27 155:  2.43 156:  2.16 157:  2.23 158:  3.38 159:  3.65 160:  2.98
 161:  2.01 162:  2.02 163:  6.07 164:  2.42 165:  2.11 166:  1.99 167:  2.40 168:  4.39
 169:  4.21 170:  4.90 171:  6.85 172:  6.22 173: 10.43 174:  7.07 175:  4.70 176:  6.37
 177:  3.43 178:  4.33 179:  2.68 180:  2.48 181:  3.18 182:  5.80 183:  3.10 184:  3.32
 185:  2.17 186:  3.66 187:  2.82 188:  1.65 189:  2.13 190:  2.13 191:  2.10 192:  2.02
 193:  2.01 194:  2.00 195:  2.03 196:  2.01 197:  2.02 198:  2.01 199:  2.05 200:  2.06
 201:  2.08 202:  2.03 203:  2.03 204:  2.09 205:  2.08 206:  2.05 207:  2.05 208:  2.10
 209:  2.07 210:  2.07 211:  2.09 212:  2.05 213:  1.91 214:  1.88 215:  1.62 216:  1.81
 217:  1.88 218:  1.89 219:  1.81 220:  1.64 221:  1.93 222:  1.89 223:  1.89 224:  1.87
 225:  1.58 226:  1.86 227:  1.82 228:  1.75 229:  1.89 230:  1.92 231:  1.86 232:  1.89
 233:  1.86 234:  1.96 235:  1.88 236:  2.12 237:  1.47 238:  2.09 239:  2.13 240:  1.94
 241:  1.60 242:  2.12 243:  2.02 244:  2.02 245:  2.13 246:  1.82 247:  1.70 248:  1.90
 249:  1.84 250:  1.75 251:  1.60 252:  1.73 253:  1.87 254:  2.04 255:  1.80 256:  1.73
 257:  1.74 258:  1.71 259:  1.68 260:  1.67 261:  1.75 262:  1.72 263:  1.80 264:  1.83
 265:  1.84 266:  1.83 267:  1.83 268:  1.83 269:  1.84 270:  1.84 271:  1.83 272:  1.84
 273:  1.84
 IR intensities (km·mol⁻¹)
   1:  0.00   2:  0.04   3:  0.06   4:  0.02   5:  0.04   6:  0.02   7:  0.78   8:  0.63
   9:  0.18  10:  3.33  11:  2.80  12:  0.54  13:  1.27  14:  0.97  15:  0.09  16:  0.15
  17:  1.15  18:  1.61  19:  0.61  20:  1.47  21:  3.97  22:  1.45  23:  0.09  24:  4.65
  25:  0.54  26:  1.30  27:  3.44  28:  0.68  29:  4.36  30:  2.01  31:  0.51  32:  1.97
  33:  3.18  34:  2.05  35:  1.31  36:  0.53  37:  1.35  38:  5.08  39:  6.05  40:  0.44
  41:  5.40  42:  3.00  43:  1.69  44:  3.09  45:  6.16  46:  0.76  47:  4.60  48:  4.43
  49:  4.96  50:  3.79  51:  6.18  52:  1.40  53: 12.01  54: 11.22  55:  5.93  56: 13.31
  57: 15.15  58:  1.56  59:  8.78  60:  4.31  61:  0.87  62:  4.59  63: 22.36  64:  9.83
  65:  2.17  66:  7.78  67: 20.84  68:  5.75  69:  0.66  70:  5.73  71:  8.78  72:130.40
  73:  3.11  74: 55.95  75: 29.49  76: 55.16  77: 27.16  78:101.54  79: 26.15  80: 18.17
  81: 19.46  82: 40.49  83: 14.17  84: 64.16  85: 16.50  86:163.55  87: 98.92  88: 79.76
  89: 21.09  90:  2.89  91:  8.57  92: 13.61  93: 68.38  94: 79.26  95: 13.54  96: 26.10
  97: 39.05  98:  9.26  99: 61.87 100:  4.77 101: 24.41 102: 27.10 103: 64.19 104:  5.45
 105: 23.60 106: 27.07 107: 36.92 108: 10.87 109:  0.33 110: 17.12 111: 49.21 112:  3.79
 113: 22.75 114: 12.04 115: 55.45 116: 13.29 117:  6.97 118: 15.17 119: 18.76 120:  3.82
 121: 16.39 122:  3.47 123: 13.52 124: 34.81 125: 39.49 126: 22.70 127: 14.38 128:  4.99
 129:207.16 130: 15.21 131: 66.16 132: 50.25 133:108.30 134:  2.43 135: 66.03 136: 27.29
 137:  5.93 138: 91.34 139: 57.60 140: 13.47 141:235.55 142:144.53 143: 46.24 144: 65.22
 145: 13.34 146:129.27 147:550.41 148:314.59 149:399.15 150:626.69 151:191.43 152:112.98
 153:253.46 154:326.57 155:555.24 156:****** 157:****** 158:117.13 159:113.94 160:330.39
 161:289.49 162:181.98 163: 29.90 164:333.45 165:606.86 166: 98.40 167: 65.23 168: 23.56
 169: 74.38 170: 31.06 171: 36.57 172:  1.79 173: 50.35 174: 32.96 175:  5.57 176:  1.59
 177:  0.49 178:  8.55 179:  3.85 180:  8.60 181:  8.22 182:  9.48 183: 10.82 184: 16.06
 185:  1.12 186: 42.70 187: 34.68 188: 27.68 189: 90.56 190:527.05 191: 81.27 192: 55.03
 193:203.74 194: 73.31 195:153.29 196: 23.40 197:151.40 198:296.81 199:340.24 200:359.99
 201:127.74 202: 60.47 203:402.96 204:119.60 205:477.25 206:158.44 207:411.38 208:221.09
 209: 60.10 210:172.25 211: 32.34 212: 50.04 213: 45.61 214:478.54 215:  5.43 216:  6.66
 217:495.85 218:****** 219:  3.30 220: 37.49 221:770.66 222:****** 223:872.05 224:******
 225:119.68 226: 13.01 227:434.73 228:458.33 229:270.65 230:120.13 231: 10.16 232:******
 233:490.01 234:597.78 235:****** 236:516.19 237: 37.09 238:191.63 239:517.88 240:674.39
 241:236.92 242:264.46 243:729.00 244: 95.21 245: 79.14 246:280.11 247:524.55 248:948.02
 249: 77.29 250:131.86 251:230.28 252: 71.33 253:413.96 254:417.43 255:291.23 256:166.61
 257:124.51 258: 34.32 259:103.95 260: 95.57 261:156.54 262:205.73 263: 61.39 264: 19.47
 265:  3.90 266:  8.19 267: 19.57 268: 11.44 269: 12.62 270:  8.12 271: 10.52 272: 12.17
 273: 14.22
 Raman intensities (amu)
   1:  0.00   2:  0.00   3:  0.00   4:  0.00   5:  0.00   6:  0.00   7:  0.00   8:  0.00
   9:  0.00  10:  0.00  11:  0.00  12:  0.00  13:  0.00  14:  0.00  15:  0.00  16:  0.00
  17:  0.00  18:  0.00  19:  0.00  20:  0.00  21:  0.00  22:  0.00  23:  0.00  24:  0.00
  25:  0.00  26:  0.00  27:  0.00  28:  0.00  29:  0.00  30:  0.00  31:  0.00  32:  0.00
  33:  0.00  34:  0.00  35:  0.00  36:  0.00  37:  0.00  38:  0.00  39:  0.00  40:  0.00
  41:  0.00  42:  0.00  43:  0.00  44:  0.00  45:  0.00  46:  0.00  47:  0.00  48:  0.00
  49:  0.00  50:  0.00  51:  0.00  52:  0.00  53:  0.00  54:  0.00  55:  0.00  56:  0.00
  57:  0.00  58:  0.00  59:  0.00  60:  0.00  61:  0.00  62:  0.00  63:  0.00  64:  0.00
  65:  0.00  66:  0.00  67:  0.00  68:  0.00  69:  0.00  70:  0.00  71:  0.00  72:  0.00
  73:  0.00  74:  0.00  75:  0.00  76:  0.00  77:  0.00  78:  0.00  79:  0.00  80:  0.00
  81:  0.00  82:  0.00  83:  0.00  84:  0.00  85:  0.00  86:  0.00  87:  0.00  88:  0.00
  89:  0.00  90:  0.00  91:  0.00  92:  0.00  93:  0.00  94:  0.00  95:  0.00  96:  0.00
  97:  0.00  98:  0.00  99:  0.00 100:  0.00 101:  0.00 102:  0.00 103:  0.00 104:  0.00
 105:  0.00 106:  0.00 107:  0.00 108:  0.00 109:  0.00 110:  0.00 111:  0.00 112:  0.00
 113:  0.00 114:  0.00 115:  0.00 116:  0.00 117:  0.00 118:  0.00 119:  0.00 120:  0.00
 121:  0.00 122:  0.00 123:  0.00 124:  0.00 125:  0.00 126:  0.00 127:  0.00 128:  0.00
 129:  0.00 130:  0.00 131:  0.00 132:  0.00 133:  0.00 134:  0.00 135:  0.00 136:  0.00
 137:  0.00 138:  0.00 139:  0.00 140:  0.00 141:  0.00 142:  0.00 143:  0.00 144:  0.00
 145:  0.00 146:  0.00 147:  0.00 148:  0.00 149:  0.00 150:  0.00 151:  0.00 152:  0.00
 153:  0.00 154:  0.00 155:  0.00 156:  0.00 157:  0.00 158:  0.00 159:  0.00 160:  0.00
 161:  0.00 162:  0.00 163:  0.00 164:  0.00 165:  0.00 166:  0.00 167:  0.00 168:  0.00
 169:  0.00 170:  0.00 171:  0.00 172:  0.00 173:  0.00 174:  0.00 175:  0.00 176:  0.00
 177:  0.00 178:  0.00 179:  0.00 180:  0.00 181:  0.00 182:  0.00 183:  0.00 184:  0.00
 185:  0.00 186:  0.00 187:  0.00 188:  0.00 189:  0.00 190:  0.00 191:  0.00 192:  0.00
 193:  0.00 194:  0.00 195:  0.00 196:  0.00 197:  0.00 198:  0.00 199:  0.00 200:  0.00
 201:  0.00 202:  0.00 203:  0.00 204:  0.00 205:  0.00 206:  0.00 207:  0.00 208:  0.00
 209:  0.00 210:  0.00 211:  0.00 212:  0.00 213:  0.00 214:  0.00 215:  0.00 216:  0.00
 217:  0.00 218:  0.00 219:  0.00 220:  0.00 221:  0.00 222:  0.00 223:  0.00 224:  0.00
 225:  0.00 226:  0.00 227:  0.00 228:  0.00 229:  0.00 230:  0.00 231:  0.00 232:  0.00
 233:  0.00 234:  0.00 235:  0.00 236:  0.00 237:  0.00 238:  0.00 239:  0.00 240:  0.00
 241:  0.00 242:  0.00 243:  0.00 244:  0.00 245:  0.00 246:  0.00 247:  0.00 248:  0.00
 249:  0.00 250:  0.00 251:  0.00 252:  0.00 253:  0.00 254:  0.00 255:  0.00 256:  0.00
 257:  0.00 258:  0.00 259:  0.00 260:  0.00 261:  0.00 262:  0.00 263:  0.00 264:  0.00
 265:  0.00 266:  0.00 267:  0.00 268:  0.00 269:  0.00 270:  0.00 271:  0.00 272:  0.00
 273:  0.00
 output can be read by thermo (or use thermo option).
 writing <g98.out> molden fake output.
 recommended (thermochemical) frequency scaling factor: 1.0
           -------------------------------------------------
          |             Thermodynamic Functions             |
           -------------------------------------------------

Molecule has no symmetry elements
It seems to be the C1 point group
c1  symmetry found (for desy threshold:  0.10E+00) used in thermo

          ...................................................
          :                      SETUP                      :
          :.................................................:
          :  # frequencies                         267      :
          :  # imaginary freq.                       0      :
          :  linear?                             false      :
          :  only rotor calc.                    false      :
          :  symmetry                               c1      :
          :  rotational number                       1      :
          :  scaling factor                  1.0000000      :
          :  rotor cutoff                   50.0000000 cm⁻¹ :
          :  imag. cutoff                  -20.0000000 cm⁻¹ :
          :.................................................:

    mode    ω/cm⁻¹     T·S(HO)/kcal·mol⁻¹    T·S(FR)/kcal·mol⁻¹   T·S(vib)
   ------------------------------------------------------------------------
       1     28.37    -1.77113 (  9.39%)    -1.22442 ( 90.61%)    -1.27575
       2     28.90    -1.76010 ( 10.04%)    -1.21890 ( 89.96%)    -1.27325
       3     33.92    -1.66542 ( 17.48%)    -1.17147 ( 82.52%)    -1.25781
       4     36.32    -1.62496 ( 21.78%)    -1.15120 ( 78.22%)    -1.25440
       5     37.69    -1.60311 ( 24.41%)    -1.14024 ( 75.59%)    -1.25323
       6     41.05    -1.55270 ( 31.24%)    -1.11496 ( 68.76%)    -1.25171
       7     46.42    -1.48008 ( 42.63%)    -1.07852 ( 57.37%)    -1.24971
       8     46.80    -1.47535 ( 43.42%)    -1.07614 ( 56.58%)    -1.24947
       9     51.73    -1.41628 ( 53.39%)    -1.04647 ( 46.61%)    -1.24392
      10     54.11    -1.38971 ( 57.84%)    -1.03311 ( 42.16%)    -1.23937
      11     56.14    -1.36804 ( 61.38%)    -1.02222 ( 38.62%)    -1.23449
      12     59.10    -1.33776 ( 66.13%)    -1.00698 ( 33.87%)    -1.22573
      13     59.40    -1.33487 ( 66.57%)    -1.00553 ( 33.43%)    -1.22477
      14     60.70    -1.32206 ( 68.48%)    -0.99908 ( 31.52%)    -1.22025
      15     63.62    -1.29444 ( 72.39%)    -0.98516 ( 27.61%)    -1.20904
      16     64.81    -1.28360 ( 73.84%)    -0.97970 ( 26.16%)    -1.20409
      17     66.07    -1.27225 ( 75.30%)    -0.97398 ( 24.70%)    -1.19858
      18     68.22    -1.25344 ( 77.61%)    -0.96449 ( 22.39%)    -1.18874
      19     69.92    -1.23901 ( 79.27%)    -0.95721 ( 20.73%)    -1.18059
      20     71.63    -1.22481 ( 80.81%)    -0.95004 ( 19.19%)    -1.17209
      21     73.08    -1.21307 ( 82.03%)    -0.94411 ( 17.97%)    -1.16473
      22     76.04    -1.18980 ( 84.25%)    -0.93235 ( 15.75%)    -1.14925
      23     76.86    -1.18351 ( 84.81%)    -0.92917 ( 15.19%)    -1.14488
      24     77.88    -1.17580 ( 85.48%)    -0.92527 ( 14.52%)    -1.13941
      25     80.50    -1.15639 ( 87.05%)    -0.91545 ( 12.95%)    -1.12518
      26     81.89    -1.14640 ( 87.80%)    -0.91039 ( 12.20%)    -1.11760
      27     87.07    -1.11058 ( 90.19%)    -0.89223 (  9.81%)    -1.08916
      28     89.79    -1.09263 ( 91.23%)    -0.88312 (  8.77%)    -1.07425
      29     91.16    -1.08380 ( 91.70%)    -0.87863 (  8.30%)    -1.06677
      30     97.06    -1.04726 ( 93.42%)    -0.86005 (  6.58%)    -1.03495
      31     97.95    -1.04194 ( 93.64%)    -0.85733 (  6.36%)    -1.03020
      32     99.61    -1.03216 ( 94.03%)    -0.85235 (  5.97%)    -1.02142
      33    105.44    -0.99915 ( 95.19%)    -0.83551 (  4.81%)    -0.99127
      34    108.77    -0.98113 ( 95.73%)    -0.82630 (  4.27%)    -0.97451
      35    110.15    -0.97384 ( 95.93%)    -0.82256 (  4.07%)    -0.96767
      36    119.42    -0.92717 ( 97.02%)    -0.79863 (  2.98%)    -0.92334
      37    123.48    -0.90793 ( 97.38%)    -0.78873 (  2.62%)    -0.90481
      38    128.45    -0.88525 ( 97.76%)    -0.77704 (  2.24%)    -0.88282
      39    131.16    -0.87329 ( 97.93%)    -0.77086 (  2.07%)    -0.87117
      40    136.39    -0.85089 ( 98.23%)    -0.75926 (  1.77%)    -0.84926
      41    138.88    -0.84057 ( 98.35%)    -0.75391 (  1.65%)    -0.83914
      42    140.22    -0.83506 ( 98.41%)    -0.75106 (  1.59%)    -0.83373
      43    146.92    -0.80849 ( 98.68%)    -0.73723 (  1.32%)    -0.80755
      44    149.94    -0.79696 ( 98.78%)    -0.73121 (  1.22%)    -0.79616
      45    151.24    -0.79206 ( 98.82%)    -0.72866 (  1.18%)    -0.79132
      46    154.06    -0.78160 ( 98.90%)    -0.72318 (  1.10%)    -0.78096
      47    156.27    -0.77355 ( 98.96%)    -0.71897 (  1.04%)    -0.77298
      48    162.85    -0.75029 ( 99.12%)    -0.70675 (  0.88%)    -0.74990
      49    168.84    -0.72997 ( 99.24%)    -0.69604 (  0.76%)    -0.72971
      50    174.70    -0.71089 ( 99.33%)    -0.68594 (  0.67%)    -0.71073
      51    177.67    -0.70146 ( 99.38%)    -0.68093 (  0.62%)    -0.70134
      52    179.53    -0.69567 ( 99.40%)    -0.67785 (  0.60%)    -0.69556
      53    184.88    -0.67936 ( 99.47%)    -0.66916 (  0.53%)    -0.67931
      54    190.30    -0.66335 ( 99.53%)    -0.66059 (  0.47%)    -0.66334
      55    193.67    -0.65366 ( 99.56%)    -0.65539 (  0.44%)    -0.65367
      56    197.57    -0.64269 ( 99.59%)    -0.64949 (  0.41%)    -0.64272
      57    205.09    -0.62221 ( 99.65%)    -0.63842 (  0.35%)    -0.62227
      58    210.02    -0.60927 ( 99.68%)    -0.63139 (  0.32%)    -0.60934
      59    213.37    -0.60067 ( 99.70%)    -0.62670 (  0.30%)    -0.60075
      60    216.47    -0.59285 ( 99.72%)    -0.62243 (  0.28%)    -0.59294
      61    219.45    -0.58545 ( 99.73%)    -0.61837 (  0.27%)    -0.58554
      62    221.46    -0.58053 ( 99.74%)    -0.61567 (  0.26%)    -0.58062
      63    225.71    -0.57030 ( 99.76%)    -0.61004 (  0.24%)    -0.57039
      64    228.72    -0.56319 ( 99.77%)    -0.60611 (  0.23%)    -0.56328
      65    232.41    -0.55462 ( 99.79%)    -0.60137 (  0.21%)    -0.55472
      66    241.93    -0.53328 ( 99.82%)    -0.58949 (  0.18%)    -0.53339
      67    246.20    -0.52403 ( 99.83%)    -0.58430 (  0.17%)    -0.52413
      68    249.90    -0.51619 ( 99.84%)    -0.57989 (  0.16%)    -0.51629
      69    253.48    -0.50872 ( 99.85%)    -0.57567 (  0.15%)    -0.50882
      70    259.03    -0.49741 ( 99.86%)    -0.56926 (  0.14%)    -0.49751
      71    263.02    -0.48945 ( 99.87%)    -0.56472 (  0.13%)    -0.48954
      72    265.26    -0.48506 ( 99.87%)    -0.56221 (  0.13%)    -0.48516
      73    272.33    -0.47149 ( 99.89%)    -0.55442 (  0.11%)    -0.47158
      74    275.16    -0.46619 ( 99.89%)    -0.55136 (  0.11%)    -0.46628
      75    282.80    -0.45220 ( 99.90%)    -0.54324 (  0.10%)    -0.45229
      76    287.76    -0.44337 ( 99.91%)    -0.53809 (  0.09%)    -0.44346
      77    296.02    -0.42912 ( 99.92%)    -0.52971 (  0.08%)    -0.42921
      78    299.34    -0.42354 ( 99.92%)    -0.52640 (  0.08%)    -0.42362
   ------------------------------------------------------------------------

   temp. (K)  partition function   enthalpy   heat capacity  entropy
                                   cal/mol     cal/K/mol   cal/K/mol   J/K/mol
 298.15  VIB  0.856E+33            43569.438    235.697    282.017
         ROT  0.344E+08              888.752      2.981     37.467
         INT  0.295E+41            44458.191    238.677    319.484
         TR   0.121E+29             1481.254      4.968     44.716
         TOT                       45939.4447   243.6456   364.2004  1523.8143

       T/K    H(0)-H(T)+PV         H(T)/Eh          T*S/Eh         G(T)/Eh
   ------------------------------------------------------------------------
    298.15    0.732092E-01    0.808868E+00    0.173043E+00    0.635824E+00
   ------------------------------------------------------------------------

         :::::::::::::::::::::::::::::::::::::::::::::::::::::
         ::                  THERMODYNAMIC                  ::
         :::::::::::::::::::::::::::::::::::::::::::::::::::::
         :: total free energy        -147.103460327314 Eh   ::
         ::.................................................::
         :: total energy             -147.739284770711 Eh   ::
         :: zero point energy           0.735658619644 Eh   ::
         :: G(RRHO) w/o ZPVE           -0.099834176247 Eh   ::
         :: G(RRHO) contrib.            0.635824443397 Eh   ::
         :::::::::::::::::::::::::::::::::::::::::::::::::::::

optimized geometry written to: xtbopt.xyz


           -------------------------------------------------
          | TOTAL ENERGY             -147.739284770711 Eh   |
          | TOTAL ENTHALPY           -146.930416985901 Eh   |
          | TOTAL FREE ENERGY        -147.103460327314 Eh   |
          | GRADIENT NORM               0.000492822326 Eh/α |
          | HOMO-LUMO GAP               6.131348679083 eV   |
           -------------------------------------------------

------------------------------------------------------------------------
 * finished run on 2022/10/12 at 03:16:08.967     
------------------------------------------------------------------------
 total:
 * wall-time:     0 d,  0 h,  0 min, 10.451 sec
 *  cpu-time:     0 d,  0 h,  1 min, 41.497 sec
 * ratio c/w:     9.712 speedup
 SCF:
 * wall-time:     0 d,  0 h,  0 min,  0.109 sec
 *  cpu-time:     0 d,  0 h,  0 min,  1.055 sec
 * ratio c/w:     9.660 speedup
 ANC optimizer:
 * wall-time:     0 d,  0 h,  0 min,  0.325 sec
 *  cpu-time:     0 d,  0 h,  0 min,  3.078 sec
 * ratio c/w:     9.455 speedup
 analytical hessian:
 * wall-time:     0 d,  0 h,  0 min,  9.852 sec
 *  cpu-time:     0 d,  0 h,  1 min, 35.847 sec
 * ratio c/w:     9.729 speedup

