91
 energy: -147.739284770710 gnorm: 0.000492826292 xtb: 6.5.1 (579679a)
C            1.11007640760000       -0.57897580480000        0.24300206050000
C           -1.24317380170000       -0.09592471280000        0.46048650300000
C           -1.73071937490000        0.85118831810000       -0.62998679470000
C            1.54951045990000        0.61528994650000       -0.48141456430000
H            1.68903663870000       -1.44775649690000       -0.07157116370000
H           -2.06711534970000       -0.71233666090000        0.82275431370000
H           -2.32204217890000        0.31154856890000       -1.36010571120000
H            1.83433569130000        0.56323380610000       -1.51271143240000
H            1.20925082460000       -0.43018373970000        1.32180341500000
H           -0.83826842500000        0.47169381320000        1.30127595020000
H           -2.34105361290000        1.63567315510000       -0.19766292610000
H           -0.88104792060000        1.29857994830000       -1.13298476350000
O           -0.25903247090000       -1.00254876460000       -0.00872866720000
N            1.52612756400000        1.88273118240000        0.09706725840000
H            2.32966874000000        2.44922970730000       -0.15066948750000
H            1.34298638050000        1.88263507070000        1.09572123270000
O            1.09469495180000       -3.90843497470000       -0.25113883810000
H            0.18554599330000       -3.58502931960000       -0.17457615750000
H            1.56000456520000       -3.61637098810000        0.55045389450000
O           -3.18895507660000        2.08438607160000        2.16644936960000
H           -2.64393468760000        1.67285385140000        2.85004188090000
H           -2.65004891160000        2.79012581820000        1.77909934860000
O           -0.30462519530000       -1.17042855850000       -2.72892377950000
H           -0.30598421500000       -1.11147419230000       -1.74719152990000
H           -1.24051262700000       -1.23389055500000       -2.98165234650000
O           -3.03082179720000       -1.09982857910000       -3.25426540800000
H           -3.39134294200000       -1.54012374410000       -4.02441496440000
H           -3.23761544030000       -0.13555991670000       -3.36411516180000
O           -3.55237433510000        1.47206553370000       -3.47735986970000
H           -4.07393463820000        1.88999659490000       -2.79066292680000
H           -2.70654921400000        1.98608534630000       -3.52236800790000
O            1.97772031520000       -2.73291427780000       -2.53909794080000
H            1.73797088010000       -3.26347757850000       -1.75100403080000
H            1.17437942560000       -2.23522771280000       -2.75835299550000
O           -1.30584284810000       -3.04523600430000        2.59883208410000
H           -1.40081595080000       -3.17914149410000        1.62898130500000
H           -1.16794952830000       -3.91112906240000        2.98451183530000
O            4.26335458710000        1.10688085470000        1.53430441420000
H            3.54768484380000        1.04298099500000        2.21405519550000
H            5.05040141230000        1.37386427210000        2.01075778030000
O            0.23271094460000        2.47833336470000        2.71479513260000
H           -0.30399188390000        3.12743973460000        2.23513024210000
H           -0.39326808590000        1.90276621950000        3.18339721650000
O           -1.44403924670000        4.08011820500000        1.14151484360000
H           -0.99752746540000        4.01565583760000        0.27221576860000
H           -1.60159144380000        5.01155374040000        1.29938801980000
O           -3.77977627110000       -2.11706403740000       -0.77170766300000
H           -3.55268475980000       -1.73285702200000       -1.63566842800000
H           -4.00994958760000       -1.38303322090000       -0.18395017520000
O            4.36096531330000       -1.51156323610000        0.70351320700000
H            4.33992694720000       -0.59396941460000        1.02970142660000
H            4.23107999540000       -1.43765591490000       -0.26100348840000
O           -1.72835639730000       -3.59966102060000        0.01774101900000
H           -2.45646189460000       -3.00323834390000       -0.28671507950000
H           -1.97343820350000       -4.48203545510000       -0.26374584850000
O            2.60842376120000       -3.02437080760000        1.94485788610000
H            3.26056975120000       -2.43805841930000        1.47409576610000
H            3.13035177700000       -3.71973503890000        2.34637150710000
O           -0.01146345920000        3.74646818600000       -1.13699799610000
H            0.70788360300000        4.10364190670000       -1.67817597220000
H            0.41994338580000        2.96610903100000       -0.70776578820000
O           -3.28092760730000       -1.28460779390000        3.40962552440000
H           -3.73095220770000       -0.99359672440000        2.60028838390000
H           -2.66254123130000       -1.98503228700000        3.14436812120000
O            4.31698562180000        1.61837804320000       -1.30753868710000
H            4.19337372290000        0.71664149370000       -1.63958735490000
H            4.36459472600000        1.52383116730000       -0.34677285300000
O            0.84520715470000       -1.45644259440000        3.40087699830000
H            1.54402507930000       -1.99551110810000        2.99017023370000
H            0.02730710780000       -1.91030335560000        3.13610545630000
O            2.32250144370000        3.21040077180000       -2.54236540510000
H            3.12511015770000        2.78747628770000       -2.19731067680000
H            1.85801194590000        2.51439207400000       -3.02573933550000
O            2.39681776770000        0.91668262640000        3.40969724200000
H            1.72412135510000        1.60565295680000        3.30243519110000
H            1.91126306760000        0.08381978880000        3.51356589050000
O           -1.27086382020000        2.80756390630000       -3.43416378940000
H           -0.98897175760000        3.22319825000000       -2.60133578950000
H           -0.53918227780000        2.21308281630000       -3.67530686400000
O           -1.36262973680000        0.53100935340000        3.84532131090000
H           -0.59345691800000       -0.03962361010000        3.95796142840000
H           -2.12404819160000       -0.09272230510000        3.80786310600000
O           -4.43806610180000       -0.07696437040000        1.14588493870000
H           -5.36644618270000        0.05721573770000        1.34205068140000
H           -3.98117389060000        0.74985012180000        1.41929067740000
O            0.80054206440000        1.02515326480000       -3.78445745930000
H            1.11765440930000        0.75534635250000       -4.64660366250000
H            0.41272051190000        0.21788832550000       -3.36650480680000
O            3.98749961390000       -1.14143217070000       -1.98356117570000
H            4.71282117320000       -1.48909519360000       -2.50360756930000
H            3.20081040650000       -1.71201509890000       -2.20499918260000
