      -----------------------------------------------------------      
     |                   =====================                   |     
     |                           x T B                           |     
     |                   =====================                   |     
     |                         S. Grimme                         |     
     |          Mulliken Center for Theoretical Chemistry        |     
     |                    University of Bonn                     |     
      -----------------------------------------------------------      

   * xtb version 6.5.1 (579679a) compiled by 'ehlert@majestix' on 2022-07-11

   xtb is free software: you can redistribute it and/or modify it under
   the terms of the GNU Lesser General Public License as published by
   the Free Software Foundation, either version 3 of the License, or
   (at your option) any later version.
   
   xtb is distributed in the hope that it will be useful,
   but WITHOUT ANY WARRANTY; without even the implied warranty of
   MERCHANTABILITY or FITNESS FOR A PARTICULAR PURPOSE.  See the
   GNU Lesser General Public License for more details.
   
   Cite this work as:
   * C. Bannwarth, E. Caldeweyher, S. Ehlert, A. Hansen, P. Pracht,
     J. Seibert, S. Spicher, S. Grimme, WIREs Comput. Mol. Sci., 2020, 11,
     e01493. DOI: 10.1002/wcms.1493
   
   for GFN2-xTB:
   * C. Bannwarth, S. Ehlert and S. Grimme., J. Chem. Theory Comput., 2019,
     15, 1652-1671. DOI: 10.1021/acs.jctc.8b01176
   for GFN1-xTB:
   * S. Grimme, C. Bannwarth, P. Shushkov, J. Chem. Theory Comput., 2017,
     13, 1989-2009. DOI: 10.1021/acs.jctc.7b00118
   for GFN0-xTB:
   * P. Pracht, E. Caldeweyher, S. Ehlert, S. Grimme, ChemRxiv, 2019, preprint.
     DOI: 10.26434/chemrxiv.8326202.v1
   for GFN-FF:
   * S. Spicher and S. Grimme, Angew. Chem. Int. Ed., 2020, 59, 15665-15673.
     DOI: 10.1002/anie.202004239
   
   for ALPB and GBSA implicit solvation:
   * S. Ehlert, M. Stahn, S. Spicher, S. Grimme, J. Chem. Theory Comput.,
     2021, 17, 4250-4261. DOI: 10.1021/acs.jctc.1c00471
   
   for DFT-D4:
   * E. Caldeweyher, C. Bannwarth and S. Grimme, J. Chem. Phys., 2017,
     147, 034112. DOI: 10.1063/1.4993215
   * E. Caldeweyher, S. Ehlert, A. Hansen, H. Neugebauer, S. Spicher,
     C. Bannwarth and S. Grimme, J. Chem. Phys., 2019, 150, 154122.
     DOI: 10.1063/1.5090222
   * E. Caldeweyher, J.-M. Mewes, S. Ehlert and S. Grimme, Phys. Chem. Chem. Phys.
     2020, 22, 8499-8512. DOI: 10.1039/D0CP00502A
   
   for sTDA-xTB:
   * S. Grimme and C. Bannwarth, J. Chem. Phys., 2016, 145, 054103.
     DOI: 10.1063/1.4959605
   
   in the mass-spec context:
   * V. Asgeirsson, C. Bauer and S. Grimme, Chem. Sci., 2017, 8, 4879.
     DOI: 10.1039/c7sc00601b
   * J. Koopman and S. Grimme, ACS Omega 2019, 4, 12, 15120-15133.
     DOI: 10.1021/acsomega.9b02011
   
   for metadynamics refer to:
   * S. Grimme, J. Chem. Theory Comput., 2019, 155, 2847-2862
     DOI: 10.1021/acs.jctc.9b00143
   
   for SPH calculations refer to:
   * S. Spicher and S. Grimme, J. Chem. Theory Comput., 2021, 17, 1701-1714
     DOI: 10.1021/acs.jctc.0c01306
   
   with help from (in alphabetical order)
   P. Atkinson, C. Bannwarth, F. Bohle, G. Brandenburg, E. Caldeweyher
   M. Checinski, S. Dohm, S. Ehlert, S. Ehrlich, I. Gerasimov, C. Hölzer
   A. Katbashev, J. Koopman, C. Lavigne, S. Lehtola, F. März, M. Müller,
   F. Musil, H. Neugebauer, J. Pisarek, C. Plett, P. Pracht, F. Pultar,
   J. Seibert, P. Shushkov, S. Spicher, M. Stahn, M. Steiner, T. Strunk,
   J. Stückrath, T. Rose, and J. Unsleber
   
 * started run on 2022/11/17 at 06:48:47.984     

           -------------------------------------------------
          |                Calculation Setup                |
           -------------------------------------------------

          program call               : xtb solvent_cluster.coord --gfn2 --input xcontrol --opt 1
          hostname                   : cn0363
          coordinate file            : solvent_cluster.coord
          omp threads                :                     2

   ID    Z sym.   atoms
    1    8 o      1, 4, 7, 10, 13, 16, 19, 22, 25, 28, 31, 34, 37, 40, 43,
                  46, 49, 52, 55, 58, 61, 64, 67, 70, 73, 76, 79, 82, 85, 88,
                  91, 94, 97, 100, 103, 106, 109, 112, 115, 118, 121, 124,
                  127, 130, 133, 136, 139, 142, 145, 148, 151, 154, 157, 160,
                  163, 166, 169, 172, 175, 178, 181, 184, 187, 190, 193, 196,
                  199, 202, 205, 208, 211, 214, 217, 220, 223, 226, 229, 232,
                  235, 238, 241, 244, 247, 250, 253, 256, 259, 262, 265, 268,
                  271, 274, 277, 280, 283, 286, 289, 292, 295, 298, 301, 304,
                  307, 310, 313, 316, 319, 322, 325, 328, 331, 334, 337, 340,
                  343, 346, 349, 352, 355, 358, 361, 364, 367, 370, 373, 376,
                  379, 382, 385, 388, 391, 394, 397, 400, 403, 406, 409, 412,
                  415, 418, 421, 424, 427, 430, 433, 436, 439, 442, 445, 448,
                  451, 454, 457, 460, 463, 466, 469, 472, 475, 478, 481, 484,
                  487, 490, 493, 496, 499, 502, 505, 508, 511, 514, 517, 520,
                  523, 526, 529
    2    1 h      2, 3, 5, 6, 8, 9, 11, 12, 14, 15, 17, 18, 20, 21, 23, 24,
                  26, 27, 29, 30, 32, 33, 35, 36, 38, 39, 41, 42, 44, 45, 47,
                  48, 50, 51, 53, 54, 56, 57, 59, 60, 62, 63, 65, 66, 68, 69,
                  71, 72, 74, 75, 77, 78, 80, 81, 83, 84, 86, 87, 89, 90, 92,
                  93, 95, 96, 98, 99, 101, 102, 104, 105, 107, 108, 110, 111,
                  113, 114, 116, 117, 119, 120, 122, 123, 125, 126, 128, 129,
                  131, 132, 134, 135, 137, 138, 140, 141, 143, 144, 146, 147,
                  149, 150, 152, 153, 155, 156, 158, 159, 161, 162, 164, 165,
                  167, 168, 170, 171, 173, 174, 176, 177, 179, 180, 182, 183,
                  185, 186, 188, 189, 191, 192, 194, 195, 197, 198, 200, 201,
                  203, 204, 206, 207, 209, 210, 212, 213, 215, 216, 218, 219,
                  221, 222, 224, 225, 227, 228, 230, 231, 233, 234, 236, 237,
                  239, 240, 242, 243, 245, 246, 248, 249, 251, 252, 254, 255,
                  257, 258, 260, 261, 263, 264, 266, 267, 269, 270, 272, 273,
                  275, 276, 278, 279, 281, 282, 284, 285, 287, 288, 290, 291,
                  293, 294, 296, 297, 299, 300, 302, 303, 305, 306, 308, 309,
                  311, 312, 314, 315, 317, 318, 320, 321, 323, 324, 326, 327,
                  329, 330, 332, 333, 335, 336, 338, 339, 341, 342, 344, 345,
                  347, 348, 350, 351, 353, 354, 356, 357, 359, 360, 362, 363,
                  365, 366, 368, 369, 371, 372, 374, 375, 377, 378, 380, 381,
                  383, 384, 386, 387, 389, 390, 392, 393, 395, 396, 398, 399,
                  401, 402, 404, 405, 407, 408, 410, 411, 413, 414, 416, 417,
                  419, 420, 422, 423, 425, 426, 428, 429, 431, 432, 434, 435,
                  437, 438, 440, 441, 443, 444, 446, 447, 449, 450, 452, 453,
                  455, 456, 458, 459, 461, 462, 464, 465, 467, 468, 470, 471,
                  473, 474, 476, 477, 479, 480, 482, 483, 485, 486, 488, 489,
                  491, 492, 494, 495, 497, 498, 500, 501, 503, 504, 506, 507,
                  509, 510, 512, 513, 515, 516, 518, 519, 521, 522, 524, 525,
                  527, 528, 530, 531

molecular fragmentation (1/2 indicates fragments):
111222222222222222222222222222222222222222222222222222222222222222222222
222222222222222222222222222222222222222222222222222222222222222222222222
222222222222222222222222222222222222222222222222222222222222222222222222
222222222222222222222222222222222222222222222222222222222222222222222222
222222222222222222222222222222222222222222222222222222222222222222222222
222222222222222222222222222222222222222222222222222222222222222222222222
222222222222222222222222222222222222222222222222222222222222222222222222
222222222222222222222222222
# atoms in fragment 1/2:     3   528
 fragment masses (1/2) :       18.02     3170.69
CMA distance (Bohr)    :   7.712
constraining FC (au)   :  0.0500

           -------------------------------------------------
          |                 G F N 2 - x T B                 |
           -------------------------------------------------

        Reference                      10.1021/acs.jctc.8b01176
      * Hamiltonian:
        H0-scaling (s, p, d)           1.850000    2.230000    2.230000
        zeta-weighting                 0.500000
      * Dispersion:
        s8                             2.700000
        a1                             0.520000
        a2                             5.000000
        s9                             5.000000
      * Repulsion:
        kExp                           1.500000    1.000000
        rExp                           1.000000
      * Coulomb:
        alpha                          2.000000
        third order                    shell-resolved
        anisotropic                    true
        a3                             3.000000
        a5                             4.000000
        cn-shift                       1.200000
        cn-exp                         4.000000
        max-rad                        5.000000


          ...................................................
          :                      SETUP                      :
          :.................................................:
          :  # basis functions                1062          :
          :  # atomic orbitals                1062          :
          :  # shells                          708          :
          :  # electrons                      1416          :
          :  max. iterations                   250          :
          :  Hamiltonian                  GFN2-xTB          :
          :  restarted?                      false          :
          :  GBSA solvation                  false          :
          :  PC potential                    false          :
          :  electronic temp.          300.0000000     K    :
          :  accuracy                    1.0000000          :
          :  -> integral cutoff          0.2500000E+02      :
          :  -> integral neglect         0.1000000E-07      :
          :  -> SCF convergence          0.1000000E-05 Eh   :
          :  -> wf. convergence          0.1000000E-03 e    :
          :  Broyden damping             0.4000000          :
          ...................................................

 iter      E             dE          RMSdq      gap      omega  full diag
   1   -906.5917831 -0.906592E+03  0.406E+00    8.64       0.0  T
   2   -906.6431049 -0.513218E-01  0.241E+00    7.94       1.0  T
   3   -906.6653639 -0.222590E-01  0.210E-01    6.89       1.0  T
   4   -906.6689670 -0.360311E-02  0.453E-02    7.18       1.0  T
   5   -906.6690348 -0.678107E-04  0.313E-02    7.13       1.0  T
   6   -906.6690637 -0.289085E-04  0.359E-03    7.16       1.2  T
   7   -906.6690649 -0.121183E-05  0.740E-04    7.16       5.9  T
   8   -906.6690649 -0.203170E-07  0.386E-04    7.16      11.3  T
   9   -906.6690650 -0.100999E-07  0.519E-05    7.16      83.6  T

   *** convergence criteria satisfied after 9 iterations ***

         #    Occupation            Energy/Eh            Energy/eV
      -------------------------------------------------------------
         1        2.0000           -0.6962655             -18.9463
       ...           ...                  ...                  ...
       702        2.0000           -0.3633419              -9.8870
       703        2.0000           -0.3588718              -9.7654
       704        2.0000           -0.3549502              -9.6587
       705        2.0000           -0.3484243              -9.4811
       706        2.0000           -0.3476789              -9.4608
       707        2.0000           -0.3441904              -9.3659
       708        2.0000           -0.3400262              -9.2526 (HOMO)
       709                         -0.0769914              -2.0950 (LUMO)
       710                         -0.0685468              -1.8653
       711                         -0.0517227              -1.4074
       712                         -0.0424574              -1.1553
       713                         -0.0378113              -1.0289
       ...                                ...                  ...
      1062                          0.5268951              14.3375
      -------------------------------------------------------------
                  HL-Gap            0.2630349 Eh            7.1575 eV
             Fermi-level           -0.2085088 Eh           -5.6738 eV

 SCC (total)                   0 d,  0 h,  0 min,  8.237 sec
 SCC setup                      ...        0 min,  0.021 sec (  0.261%)
 Dispersion                     ...        0 min,  0.058 sec (  0.705%)
 classical contributions        ...        0 min,  0.018 sec (  0.216%)
 integral evaluation            ...        0 min,  0.422 sec (  5.125%)
 iterations                     ...        0 min,  2.907 sec ( 35.291%)
 molecular gradient             ...        0 min,  4.782 sec ( 58.054%)
 printout                       ...        0 min,  0.029 sec (  0.348%)

         :::::::::::::::::::::::::::::::::::::::::::::::::::::
         ::                     SUMMARY                     ::
         :::::::::::::::::::::::::::::::::::::::::::::::::::::
         :: total energy            -901.201844684707 Eh    ::
         :: gradient norm              0.097696177589 Eh/a0 ::
         :: HOMO-LUMO gap              7.157542747365 eV    ::
         ::.................................................::
         :: SCC energy              -906.669064956841 Eh    ::
         :: -> isotropic ES            5.092114367203 Eh    ::
         :: -> anisotropic ES         -1.113710068433 Eh    ::
         :: -> anisotropic XC         -0.093220049503 Eh    ::
         :: -> dispersion             -0.532826641584 Eh    ::
         :: repulsion energy           5.373256603023 Eh    ::
         :: add. restraining           0.000000000000 Eh    ::
         :: total charge               0.000000000000 e     ::
         :::::::::::::::::::::::::::::::::::::::::::::::::::::

      ----------------------------------------------------------- 
     |                       L-ANC optimizer                     |
      ----------------------------------------------------------- 
          low memory version by Sebastian Ehlert

          ...................................................
          :                      SETUP                      :
          :.................................................:
          :   energy convergence        0.1000000E-05 Eh    :
          :   grad. convergence         0.8000000E-03 Eh/a0 :
          :   optimization log               true           :
          :   writing optlog all                1     steps :
          :   Hessian reset                    20     steps :
          :   maximium step len.        1.0000000     a0    :
          :   LBFGS images                     20           :
          ...................................................
 * calculating model hessian...
Using Lindh-Hessian (1995)
 Shifting diagonal of input Hessian by   1.000008907674243E-002
 Lowest  eigenvalues of input Hessian
    0.010000    0.010000   -0.000000   -0.000000   -0.000000   -0.000000
   -0.000000   -0.000000   -0.000000   -0.000000   -0.000000   -0.000000
   -0.000000   -0.000000   -0.000000   -0.000000   -0.000000   -0.000000
 Highest eigenvalues
    0.323525    0.342062    1.239029    1.274390    1.433673    1.480054
 

........................................................................
.............................. CYCLE    1 ..............................
........................................................................
   1   -906.6678952 -0.906668E+03  0.182E-02    7.14       0.0  T
   2   -906.6679089 -0.136655E-04  0.107E-02    7.17       1.0  T
   3   -906.6679116 -0.265773E-05  0.257E-03    7.18       1.7  T
   4   -906.6679119 -0.286034E-06  0.490E-04    7.17       8.8  T
   5   -906.6679119 -0.677210E-08  0.946E-05    7.17      45.9  T
     SCC iter.                  ...        0 min,  1.427 sec
     gradient                   ...        0 min,  4.789 sec
 * total energy  :  -901.2042436 Eh     change       -0.2398937E-02 Eh
   gradient norm :     0.0101296 Eh/a0  converged?    E=F G=F D=F
   step length   :     0.3284402 a0

........................................................................
.............................. CYCLE    2 ..............................
........................................................................
   1   -906.6653246 -0.906665E+03  0.234E-02    7.15       0.0  T
   2   -906.6653359 -0.112278E-04  0.141E-02    7.15       1.0  T
   3   -906.6653386 -0.274434E-05  0.230E-03    7.15       1.9  T
   4   -906.6653389 -0.334614E-06  0.472E-04    7.15       9.2  T
   5   -906.6653389 -0.400416E-08  0.774E-05    7.15      56.0  T
     SCC iter.                  ...        0 min,  1.427 sec
     gradient                   ...        0 min,  4.799 sec
 * total energy  :  -901.2052823 Eh     change       -0.1038697E-02 Eh
   gradient norm :     0.0188410 Eh/a0  converged?    E=F G=F D=F
   step length   :     0.3744946 a0

........................................................................
.............................. CYCLE    3 ..............................
........................................................................
   1   -906.6679089 -0.906668E+03  0.784E-03    7.13       0.0  T
   2   -906.6679106 -0.167056E-05  0.463E-03    7.13       1.0  T
   3   -906.6679109 -0.307353E-06  0.922E-04    7.13       4.7  T
   4   -906.6679109 -0.468683E-07  0.176E-04    7.13      24.7  T
     SCC iter.                  ...        0 min,  1.132 sec
     gradient                   ...        0 min,  4.793 sec
 * total energy  :  -901.2056576 Eh     change       -0.3753254E-03 Eh
   gradient norm :     0.0093584 Eh/a0  converged?    E=F G=F D=F
   step length   :     0.1831926 a0

........................................................................
.............................. CYCLE    4 ..............................
........................................................................
   1   -906.6702545 -0.906670E+03  0.775E-03    7.11       0.0  T
   2   -906.6702553 -0.822838E-06  0.469E-03    7.11       1.0  T
   3   -906.6702555 -0.206050E-06  0.601E-04    7.12       7.2  T
   4   -906.6702555 -0.270350E-07  0.133E-04    7.12      32.6  T
     SCC iter.                  ...        0 min,  1.119 sec
     gradient                   ...        0 min,  4.784 sec
 * total energy  :  -901.2058964 Eh     change       -0.2387474E-03 Eh
   gradient norm :     0.0033085 Eh/a0  converged?    E=F G=F D=F
   step length   :     0.2337839 a0

........................................................................
.............................. CYCLE    5 ..............................
........................................................................
   1   -906.6706591 -0.906671E+03  0.543E-03    7.10       0.0  T
   2   -906.6706594 -0.373574E-06  0.326E-03    7.11       1.3  T
   3   -906.6706595 -0.685036E-07  0.378E-04    7.11      11.5  T
   4   -906.6706595 -0.135879E-07  0.728E-05    7.11      59.6  T
     SCC iter.                  ...        0 min,  1.116 sec
     gradient                   ...        0 min,  4.784 sec
 * total energy  :  -901.2059885 Eh     change       -0.9210401E-04 Eh
   gradient norm :     0.0029263 Eh/a0  converged?    E=F G=F D=F
   step length   :     0.1457030 a0

........................................................................
.............................. CYCLE    6 ..............................
........................................................................
   1   -906.6708186 -0.906671E+03  0.783E-03    7.09       0.0  T
   2   -906.6708203 -0.170607E-05  0.462E-03    7.10       1.0  T
   3   -906.6708205 -0.234002E-06  0.862E-04    7.11       5.0  T
   4   -906.6708205 -0.476183E-07  0.111E-04    7.11      39.3  T
     SCC iter.                  ...        0 min,  1.082 sec
     gradient                   ...        0 min,  4.788 sec
 * total energy  :  -901.2060801 Eh     change       -0.9164529E-04 Eh
   gradient norm :     0.0031551 Eh/a0  converged?    E=F G=F D=F
   step length   :     0.1957565 a0

........................................................................
.............................. CYCLE    7 ..............................
........................................................................
   1   -906.6704840 -0.906670E+03  0.512E-03    7.10       0.0  T
   2   -906.6704848 -0.815305E-06  0.302E-03    7.11       1.4  T
   3   -906.6704849 -0.119224E-06  0.609E-04    7.11       7.1  T
   4   -906.6704850 -0.220606E-07  0.860E-05    7.11      50.4  T
     SCC iter.                  ...        0 min,  1.070 sec
     gradient                   ...        0 min,  4.813 sec
 * total energy  :  -901.2061131 Eh     change       -0.3297857E-04 Eh
   gradient norm :     0.0030715 Eh/a0  converged?    E=F G=F D=F
   step length   :     0.1095876 a0

........................................................................
.............................. CYCLE    8 ..............................
........................................................................
   1   -906.6707053 -0.906671E+03  0.298E-03    7.11       0.0  T
   2   -906.6707056 -0.328272E-06  0.175E-03    7.11       2.5  T
   3   -906.6707056 -0.419383E-07  0.386E-04    7.12      11.3  T
   4   -906.6707056 -0.761304E-08  0.417E-05    7.12     104.1  T
     SCC iter.                  ...        0 min,  1.038 sec
     gradient                   ...        0 min,  4.796 sec
 * total energy  :  -901.2061305 Eh     change       -0.1736394E-04 Eh
   gradient norm :     0.0017900 Eh/a0  converged?    E=F G=F D=F
   step length   :     0.0660038 a0

........................................................................
.............................. CYCLE    9 ..............................
........................................................................
   1   -906.6690211 -0.906669E+03  0.105E-02    7.10       0.0  T
   2   -906.6690226 -0.146823E-05  0.630E-03    7.11       1.0  T
   3   -906.6690229 -0.367888E-06  0.805E-04    7.11       5.4  T
   4   -906.6690230 -0.521806E-07  0.201E-04    7.11      21.6  T
     SCC iter.                  ...        0 min,  1.084 sec
     gradient                   ...        0 min,  4.896 sec
 * total energy  :  -901.2061197 Eh     change        0.1082260E-04 Eh
   gradient norm :     0.0090454 Eh/a0  converged?    E=F G=F D=F
   step length   :     0.1621841 a0

........................................................................
.............................. CYCLE   10 ..............................
........................................................................
   1   -906.6699415 -0.906670E+03  0.382E-03    7.12       0.0  T
   2   -906.6699419 -0.383670E-06  0.224E-03    7.11       1.9  T
   3   -906.6699420 -0.788008E-07  0.427E-04    7.11      10.2  T
   4   -906.6699420 -0.116025E-07  0.938E-05    7.11      46.3  T
     SCC iter.                  ...        0 min,  1.092 sec
     gradient                   ...        0 min,  4.903 sec
 * total energy  :  -901.2061628 Eh     change       -0.4311059E-04 Eh
   gradient norm :     0.0037959 Eh/a0  converged?    E=F G=F D=F
   step length   :     0.0644066 a0

........................................................................
.............................. CYCLE   11 ..............................
........................................................................
   1   -906.6704515 -0.906670E+03  0.178E-03    7.12       0.0  T
   2   -906.6704517 -0.137580E-06  0.102E-03    7.11       4.3  T
   3   -906.6704517 -0.228389E-07  0.255E-04    7.11      17.0  T
   4   -906.6704517 -0.300952E-08  0.441E-05    7.11      98.4  T
     SCC iter.                  ...        0 min,  1.096 sec
     gradient                   ...        0 min,  4.898 sec
 * total energy  :  -901.2061804 Eh     change       -0.1765540E-04 Eh
   gradient norm :     0.0011298 Eh/a0  converged?    E=F G=F D=F
   step length   :     0.0359556 a0

........................................................................
.............................. CYCLE   12 ..............................
........................................................................
   1   -906.6706400 -0.906671E+03  0.406E-03    7.11       0.0  T
   2   -906.6706402 -0.164738E-06  0.245E-03    7.11       1.8  T
   3   -906.6706402 -0.339822E-07  0.252E-04    7.11      17.2  T
   4   -906.6706402 -0.606315E-08  0.508E-05    7.11      85.5  T
     SCC iter.                  ...        0 min,  1.086 sec
     gradient                   ...        0 min,  4.891 sec
 * total energy  :  -901.2061944 Eh     change       -0.1396594E-04 Eh
   gradient norm :     0.0012085 Eh/a0  converged?    E=F G=F D=F
   step length   :     0.0650626 a0

........................................................................
.............................. CYCLE   13 ..............................
........................................................................
   1   -906.6703213 -0.906670E+03  0.530E-03    7.10       0.0  T
   2   -906.6703215 -0.216116E-06  0.322E-03    7.11       1.3  T
   3   -906.6703215 -0.715453E-07  0.295E-04    7.11      14.7  T
   4   -906.6703215 -0.706655E-08  0.844E-05    7.11      51.4  T
     SCC iter.                  ...        0 min,  1.089 sec
     gradient                   ...        0 min,  4.884 sec
 * total energy  :  -901.2062018 Eh     change       -0.7388199E-05 Eh
   gradient norm :     0.0017773 Eh/a0  converged?    E=F G=F D=F
   step length   :     0.0744730 a0

........................................................................
.............................. CYCLE   14 ..............................
........................................................................
   1   -906.6702582 -0.906670E+03  0.164E-03    7.11       0.0  T
   2   -906.6702582 -0.378543E-07  0.990E-04    7.11       4.4  T
   3   -906.6702582 -0.736861E-08  0.122E-04    7.11      35.5  T
     SCC iter.                  ...        0 min,  0.822 sec
     gradient                   ...        0 min,  4.917 sec
 * total energy  :  -901.2062046 Eh     change       -0.2857963E-05 Eh
   gradient norm :     0.0010489 Eh/a0  converged?    E=F G=F D=F
   step length   :     0.0262366 a0

........................................................................
.............................. CYCLE   15 ..............................
........................................................................
   1   -906.6706173 -0.906671E+03  0.177E-03    7.11       0.0  T
   2   -906.6706174 -0.586659E-07  0.107E-03    7.11       4.1  T
   3   -906.6706174 -0.138173E-07  0.160E-04    7.11      27.1  T
   4   -906.6706174 -0.199782E-08  0.349E-05    7.11     124.2  T
     SCC iter.                  ...        0 min,  1.075 sec
     gradient                   ...        0 min,  4.920 sec
 * total energy  :  -901.2062055 Eh     change       -0.9069283E-06 Eh
   gradient norm :     0.0007734 Eh/a0  converged?    E=T G=T D=F
   step length   :     0.0243709 a0

   *** GEOMETRY OPTIMIZATION CONVERGED AFTER 15 CYCLES ***

------------------------------------------------------------------------
 total energy gain   :        -0.0043609 Eh       -2.7365 kcal/mol
 total RMSD          :         0.0620332 a0        0.0328 Å
 total power (kW/mol):        -0.7632958 (step)   -0.1134 (real)
------------------------------------------------------------------------

 L-ANCopt (total)              0 d,  0 h,  1 min, 40.942 sec
 setup                          ...        0 min,  0.020 sec (  0.020%)
 model hessian                  ...        0 min,  3.943 sec (  3.906%)
 ANC generation                 ...        0 min,  1.002 sec (  0.993%)
 coordinate transformation      ...        0 min,  0.001 sec (  0.001%)
 Rational function              ...        0 min,  0.000 sec (  0.000%)
 singlepoint calculation        ...        1 min, 35.897 sec ( 95.002%)
 optimization log               ...        0 min,  0.075 sec (  0.074%)
 hessian update                 ...        0 min,  0.000 sec (  0.000%)

================
 final structure:
================
$coord
        0.88337185199500       -7.42284896973800       -1.35203219220000      o
       -0.79656519273000       -7.36103380236000       -0.62211126060100      h
        0.85037362527600       -8.83072994973400       -2.55175760935000      h
       -1.47767258290700      -12.07523942563200        1.03318728321800      o
       -0.52353304543000      -11.03700637400800        2.19722573226200      h
       -0.36372883710100      -13.51186049396800        0.71181895079900      h
        2.25665733255400        3.76698620137200       -1.58295713292700      o
        2.93157015628400        5.45005928372700       -1.87553359870400      h
        1.14626586807600        3.92082803482500       -0.10427865475500      h
        8.31236223831700       -1.76659380885000       -0.98215862148000      o
        7.35909962684300       -0.91654740927500       -2.32287461936700      h
        9.42861539949800       -2.96743012710000       -1.79385467905400      h
      -10.02366761716100        1.78650582226500       12.72795686685400      o
       -9.21124764809400        3.42010057782900       12.61818896771900      h
       -8.89955838068300        0.58286335584400       11.88361102213700      h
        0.72701568638800      -11.41318948777200       -4.45015456786600      o
        0.84380228526800      -10.90225234829600       -6.23063314474200      h
        2.39490556378000      -12.05338051015300       -3.94163265065500      h
       -6.85032783910600      -11.29911285001200        3.75377115203300      o
       -5.84790859966300      -10.35646407217100        4.97185753786900      h
       -8.51943481981800      -11.53706215909600        4.47243355449600      h
       11.61029665050200       -5.85137816768600        8.73346440944900      o
       12.34645346268300       -6.96813837843300        7.45966384855600      h
        9.97302199285700       -6.56648948539500        9.18574683084500      h
       -3.59090344755200       -7.29974460505000        1.62087296476000      o
       -3.78875442040000       -9.09871418775600        1.43080482124300      h
       -3.70706311454100       -7.04203392829100        3.43572912505700      h
        0.31524872289500        4.22282975972900        2.97239589528100      o
       -1.24851685236800        5.21521086242400        3.03282370580300      h
        1.61661599102000        5.22239845567100        3.80092699807200      h
       -2.37369464137600       -0.80126632293300       -3.85027418166100      o
       -3.62756760220600       -1.84139975402600       -2.96859554376900      h
       -2.53848399910500        0.91158680514700       -3.16515195532000      h
        4.50609140064000        5.68997895846800        5.40673740402200      o
        4.41404159468200        7.31250749833800        6.26294472026300      h
        6.25145456439300        5.14312882246700        5.59963892382700      h
       -1.42498738154400        8.06364328542800       -1.90864709870600      o
       -0.91920785012600        8.52520898441500       -0.18295860275600      h
       -2.28908743565400        6.43558970882500       -1.79637898007900      h
       -9.22349438881800        8.86666860854900        3.54164982883100      o
       -9.18284276501200        7.32299716582700        2.52726038775700      h
       -9.52466369775600       10.19947227853300        2.30462192725400      h
        1.43011455008500       -0.06829709897200       -9.06880544073300      o
        0.80693289976200        1.33558763522800       -8.01330133025700      h
        0.43224182214500       -0.15311163030700      -10.61585747146400      h
       -1.80144292878300       11.08306570562000       -5.98682769134900      o
       -1.92332057163600        9.91454264720300       -4.55758279730300      h
       -1.24624438132500       12.65088259442600       -5.26498935007100      h
       -4.48540804871300        0.13013660923400       -8.21630244787900      o
       -3.30577845295200       -0.33832279527700       -6.87114569945800      h
       -5.85353054664500        0.91196746814100       -7.27451685395600      h
       -2.46147424097600       -5.84021247738400       -5.25972181930100      o
       -2.75693464964800       -7.44693823030100       -4.41636699354800      h
       -4.09230409711900       -5.39444522597200       -5.95677736454500      h
        5.97282932887200        2.36712350186800        1.42754317504100      o
        5.19505487820800        3.09357536678700        2.90260691323000      h
        4.76630575660000        2.56746038066700        0.05148977943600      h
        7.31682433595100       -2.58485110717000        3.80640740684900      o
        8.07695469491600       -4.26617136930600        3.88267448435000      h
        7.51812438161100       -2.04900136978700        2.04497232855400      h
       -6.90104604986200       11.60574197500500       -6.57890034125800      o
       -5.09048879802600       11.56497366496800       -6.89198574840500      h
       -7.16842581727700       10.15763420125000       -5.46280738272800      h
        6.41543289823100        0.46649145751300       -9.40757239757400      o
        6.76637143969500        2.26844220857100       -9.60777739013200      h
        4.58028540001900        0.28046766163000       -9.59904483594000      h
        9.41692195900500        3.99323605250900        5.27959794436400      o
        9.86939358883300        3.41379678238600        3.57378938524300      h
       10.00235362872500        2.67365712767000        6.38575007134700      h
       15.19479440991100       -0.49662101258800       -2.58314709989600      o
       15.20852199582400        1.23906443050900       -1.91332093616400      h
       16.08507590840200       -1.53621958868800       -1.34421433623200      h
       -8.74773208036200        0.12827129230800        0.09529477665000      o
      -10.40298111411700       -0.29142030649600        0.77616452679800      h
       -7.77188672223000       -1.42749259236900       -0.07817063492100      h
        5.48308954885900        0.25414460062000       -4.49603827005000      o
        6.03335030382800       -0.08931822580600       -6.22528310097800      h
        5.45796199670400        2.10017140683600       -4.42652651306300      h
      -12.88474051795000       -5.21977650589100        9.84162377706900      o
      -12.44200647321800       -3.89137086767500        8.64000603389500      h
      -13.30286046739800       -4.34344811226400       11.40978736236700      h
       -4.94153712066200       -3.77537596626900      -11.38839276823800      o
       -4.67464259934400       -5.41040581638000      -10.63065738898200      h
       -4.88500888379100       -2.52200751540200      -10.01807829799800      h
      -10.78119385761200        5.37918064336300       -6.07241717227200      o
      -11.94378854053600        4.64927279679400       -4.81146379646000      h
      -11.25397834763300        4.77025960034600       -7.72915552947200      h
       17.64169986990700       -5.95845839917600        7.67656853206400      o
       16.91145283756100       -5.21550575737100        9.16698754270000      h
       16.35018635041100       -6.96220416330800        6.85893085012800      h
       10.96401035033100       -8.55032274289300       -6.75262204426500      o
       10.40983072628600       -6.78696413787700       -6.90044090915800      h
        9.52022423299100       -9.53128113158200       -7.30536596300500      h
      -16.66153628956000       -7.55306677388200       -1.35184353575600      o
      -15.31149870461200       -8.71789952576600       -0.76192261096000      h
      -18.09017513262000       -7.78093520269600       -0.25734263392200      h
       -3.54002417224100        3.52084189520900       -1.59036315014700      o
       -5.14828564723300        3.19316361213300       -2.45116568425500      h
       -3.48168482731100        2.58491081003700       -0.02327056684200      h
       -2.29499948675000      -15.37306432385200       -3.44922045025100      o
       -1.27275960327500      -16.56089066223300       -2.53961107947100      h
       -1.17344335733500      -13.93771182061000       -3.82033027685300      h
        2.96686196814300       -4.39185421270700        6.12949076345400      o
        4.60565669601900       -3.88400212775600        5.46657136022800      h
        2.12353121050600       -2.85564638472900        6.62565810726600      h
       10.85506109049400       -9.78391152503400       -1.72792348730200      o
       12.52376924737800       -9.29451559709900       -1.11525150683900      h
       10.87847898282700       -9.46741713485600       -3.54578426045700      h
        5.52940257655800        0.62656288896500        7.26695137372300      o
        3.74635332742800        0.98095824847000        6.91265036124200      h
        6.25371489300200       -0.08238517807800        5.74215604729500      h
      -11.45749889177000       -4.88488980705600       -0.68768571064400      o
      -10.04148816693300       -5.98923423070000       -0.25700366055000      h
      -12.56209735013900       -4.88697760066300        0.76918519117800      h
       10.96524869303700        4.28916757042800       -3.47702108344600      o
       11.25941056254000        2.83651383602500       -4.58187734729900      h
       11.13152738233700        3.63353447085000       -1.75695178152600      h
       -4.58276457212100        5.60882371192600       -6.85966542194200      o
       -2.99861009560400        4.83991676116200       -6.32975525119900      h
       -5.32267624727500        6.43486151502400       -5.39750535463300      h
        7.60513077111400       -7.48554440566900        4.25232709243800      o
        6.63059402344700       -7.66271963009100        2.69301840918100      h
        8.77225776973100       -8.90822963670100        4.17302421101800      h
        5.51676150294100       -2.88250746016600       10.87646920863500      o
        6.99414002597200       -2.35889989188100       11.84663047784800      h
        5.45956796877500       -1.63521254730400        9.49709836794600      h
        9.84640799077400       -0.46247215592700       12.09162754215900      o
        9.12471938382200        1.20238329893500       12.29352802064900      h
       10.32285093940000       -0.54403029638900       10.30825578332700      h
       -2.88491212283000       -2.50725671356300        7.94974583979700      o
       -1.87022484942000       -1.14069239898900        7.24077652184100      h
       -1.90498631214800       -3.14817816245500        9.36200210379400      h
        0.10233270265600        3.70967174043000       -6.12912637194600      o
        0.87717473989700        5.22007110963200       -6.86140949083900      h
        0.81927778548200        3.53499851788800       -4.43421655684900      h
       -1.15633705178500       14.55477595314700        3.83118256347600      o
       -0.59298988168900       14.03123744300700        5.50972473514800      h
       -2.93690538006100       14.97837606702900        3.97998846057700      h
       -8.36735004259300       -8.74210535993200       -0.36689954780000      o
       -6.94555532337100       -9.15232970366100       -1.46947314742900      h
       -7.88774437756500       -9.34453379270300        1.31323223601900      h
      -11.35902393443700       -1.36441057425600        6.65236593405400      o
      -11.80077370199200       -1.13050407381500        4.88733168995200      h
      -12.24287012503100       -0.01864587246200        7.54626892584200      h
       17.31798918154600        5.95626987202700       -5.59845447194800      o
       15.96995807832000        7.15537133681800       -5.90161845503300      h
       17.15782355840500        4.65263083357000       -6.89193456196500      h
       -1.14597863086600       -1.02576051132700      -13.41168319496600      o
       -2.39380393802300       -2.28746544305400      -12.89850491553600      h
       -2.05536493178100        0.56174581632600      -13.48296934414800      h
      -13.41882112942600       -0.32826624787300        1.99112561545100      o
      -14.56004058923500       -1.13865394272600        0.79553254348100      h
      -14.31087448693500        1.12259915930600        2.64990471850600      h
        2.67223925155100        5.93640289834100       11.09292138044600      o
        1.47406658158400        6.31570741853100        9.74020150563500      h
        1.90776802540600        4.52701882522300       11.96023098195900      h
      -13.48881471172800        3.25369164540400       -2.45499890962800      o
      -15.18820619843000        3.50824824369800       -3.13672373828000      h
      -13.00183953331600        1.51247521350400       -2.80545046304500      h
       -7.06761339480100        2.49764968320800        4.66949327584500      o
       -8.87188042623000        2.93335506480400        4.82118454825500      h
       -7.01909245249900        0.69850040362700        4.26737095732300      h
       14.64112681939500       -3.13578456300300       11.67255230279500      o
       13.55361376828600       -2.16187457129200       12.76022150517200      h
       13.48595606659300       -4.28426358079000       10.79739743616300      h
       15.83565727881100        4.19492815091900       -1.13393650872300      o
       16.49443332069900        4.85724601223400       -2.74165924476800      h
       17.17837242325900        4.39733248552700        0.11690229716200      h
      -16.45102790244600        5.85594133183300        7.82168894407900      o
      -16.75249972211600        4.87132788944900        6.29008442275100      h
      -18.06922023312200        6.27461597669600        8.50826096968000      h
        3.95424233460100       -0.21861194677900      -14.21154465575500      o
        2.25169883490500       -0.83359209483000      -14.45500682285600      h
        3.73213052749100        1.49587757134500      -13.61677236395200      h
       -8.06882221639700       -6.65046359966400        9.50071515714800      o
       -9.83272741292800       -6.74757450197300       10.01199431925700      h
       -7.60959644052000       -4.90523047059900        9.91695031944500      h
        5.23585567509100       10.45590269411800        2.59373383410300      o
        6.37939605964900       11.21850010127000        3.77651840198100      h
        6.17501903369800        9.05161155110900        1.78298069667600      h
       -7.43597417583700        1.92469718067600       -4.40089810397400      o
       -8.42800551860400        3.33948941419000       -5.03235088333200      h
       -8.29568322191300        1.19090701006300       -2.94635643243600      h
      -11.43469187905000        7.97984861726700        7.98022651370200      o
      -10.78625480127400        8.67893862087000        6.38914407754400      h
      -13.21160659775900        8.34678742771400        8.04511396238000      h
      -10.45582287889700       12.12243927337300       -0.21325471525400      o
      -11.05949852266900       11.24553516509800       -1.71903036045000      h
       -9.08973416620400       13.19971456558800       -0.82314616240300      h
       -9.49388804178800        5.08191071211200        0.21644683994900      o
       -8.86794762590500        3.37686029138900        0.49849873329800      h
      -11.22157161931000        4.88687014177400       -0.36217914976200      h
       11.15570531186500        1.94290883776800        1.01577278585300      o
       10.05686453193400        0.58119947746800        0.40829879046600      h
       12.68475536628300        1.18228879581900        1.68011215145600      h
        5.08046261681800        9.88211271153300        8.35411132292400      o
        4.76851770860300        8.96964397034000        9.89611286735900      h
        6.89840628639300        9.74243603910700        7.99207073202700      h
        6.25575685603000       -8.27772310473100       -0.47923376979600      o
        5.65231382882900       -7.21083510806900       -1.85098915040300      h
        8.04643804459800       -8.58385634635900       -0.84492561887500      h
        0.18437319509900        9.62492660909100        2.62842597544700      o
       -0.39316428487500       11.33299869631600        2.97638967706200      h
        2.01574243118500        9.72473766673200        2.69504980316000      h
       -0.41330245464400        1.68556328686500       11.55817823785500      o
       -0.23928373925200       -0.04841668593200       12.09759847787100      h
       -2.18241534207300        1.94639446487200       11.16099591297600      h
       -6.38652388256400       -2.54649572697100        4.13174331584100      o
       -7.61348728798400       -3.93433513639600        4.04769835026500      h
       -5.22833183515900       -2.97599071963100        5.47818098721800      h
       12.43705997098200       -4.37048159968200      -11.65353080875000      o
       11.28417869619000       -5.71464246082700      -11.26646035602500      h
       11.43413649615300       -3.04341728970000      -12.44485248667000      h
       -9.55839030271300       -6.40333527105800        4.49995207050300      o
      -11.33848760224500       -6.03490412777800        4.46364543140000      h
       -9.10889036180400       -6.72217467772500        6.25527017903200      h
        5.16826912025700       -5.86938961077100       -4.73991748095900      o
        6.64082528810900       -4.99089267195600       -5.45164558393900      h
        3.73323026900300       -5.39516979679000       -5.82496643695500      h
        9.34516732786300       -0.60056790403300      -13.35345978056600      o
        8.26951752065100       -0.64380268985900      -14.81115263267400      h
        8.18283212302100       -0.44249868673500      -11.90221736984700      h
      -15.29844961025000        0.61205056392600       -8.12509554964600      o
      -14.21925584349600       -0.32224721183200       -6.98486317684900      h
      -14.16906495566300        1.44880863909400       -9.30327058630600      h
       11.35681485670800        0.34780143500500       -6.61109345703900      o
       12.94923738521900       -0.57919473202600       -6.54932363457900      h
       11.42623192689700        1.35095570414300       -8.16667681184900      h
       12.18523390933300       -4.42073345687600       -2.75754471573500      o
       13.20639129523400       -5.60847739148900       -3.69477538377200      h
       13.08035930814600       -2.80881330237100       -2.91697616579400      h
      -19.88197443650500       -2.06349448462700       -7.63664308723300      o
      -18.43897215405700       -1.10956593070500       -8.23176304117800      h
      -19.23850688066200       -3.72977680881400       -7.22601304485400      h
        0.62716149972100        0.86448659887600        6.63543746664400      o
        0.25504591864000        2.06227297654500        5.25362179319600      h
        0.33413113216500        1.68824023239400        8.26178600267100      h
        8.84207809723300       -3.96228054187400       -7.40095203146100      o
        9.62931700183000       -2.30236967023100       -7.15088604884500      h
        7.85828377149100       -3.90205734369600       -8.96454446077300      h
       -4.00783822664600        9.96064978907100       11.03831732527600      o
       -2.77881028145500       11.22897239272900       11.44560415540200      h
       -4.75011577595000       10.48385659693700        9.40846918932200      h
        7.18655313136500        5.46389765463500      -10.08014008746300      o
        5.64699408530900        5.76184929129400      -10.99650668284600      h
        6.78772884099400        5.62074083493300       -8.25712777170400      h
        2.17500503423000       -8.86103339380100        3.26605881212700      o
        2.35710191628400       -7.35292620756200        4.27299265429500      h
        2.14763493843300       -8.31132029936400        1.49917384072800      h
      -16.34529858425900       -2.46128170360200       -1.66208064004900      o
      -16.52325538005900       -4.28533756722700       -1.46048734520500      h
      -15.06260356161200       -2.22654423642500       -2.94798637095600      h
      -16.39457691322600        8.50745070980600       -2.71173448364000      o
      -14.99389680803700        9.27967725994100       -3.60481110034800      h
      -17.06452351221600        7.19659069552600       -3.79265425918000      h
       -1.06795069255200       13.89943020340700       -1.29526723975300      o
        0.72301124296200       13.71964360430000       -1.63675848297000      h
       -1.09194535910300       14.60081556301200        0.39690818913900      h
       15.27149848049000       -0.02158629000800        3.44662721466900      o
       16.89920637425000        0.19792620586200        2.62846544955500      h
       15.56169294973100       -0.10237041780700        5.26878491301800      h
       19.66862319839700        0.17437970917300       -4.81057960635000      o
       17.85926551265600       -0.05366018127800       -4.44101623055400      h
       19.75534953391600        1.22764722996600       -6.28308578925000      h
        9.74772747245400        9.02508186689700        6.70440459195100      o
       10.18060853427500       10.08290618742800        5.27832057484900      h
        9.81597454716800        7.28080569769800        6.12094625022200      h
       12.67624296799900        7.29485295116400        1.30623801635000      o
       13.15519408071300        6.70178834706500        2.98420283649400      h
       13.72593675000300        6.28149258038800        0.16902343819500      h
        2.26786423116500      -15.47656207203600        0.44562106504700      o
        3.37820481288300      -14.88459315920000       -0.88286895226800      h
        3.17534975577000      -15.06129655647000        1.98474403907700      h
       12.34086616496000       -4.36079219409400        2.40710431434600      o
       13.47459922881000       -2.96808289230000        2.78062920844300      h
       12.33774012190200       -4.55802518158100        0.57565037583100      h
        5.07777068273900      -12.93915819228500        4.17993993392700      o
        4.15244331530800      -11.41004314187700        3.68498034155900      h
        4.83760478520900      -13.00864739388100        5.99169736413100      h
      -19.75112999016600       -4.87100505660400        2.39546010064800      o
      -20.13932187826800       -3.09521488565100        2.10397513982400      h
      -20.22206262737000       -5.19496839660100        4.11588809485100      h
      -13.78868793058100       -2.05237827169700       13.73785734557100      o
      -12.25361080028300       -1.16741759972800       14.16258029455000      h
      -14.78497060890300       -0.84568734737400       12.80545741194500      h
      -13.07171468460300      -10.67014761877700        0.15439769785300      o
      -11.38821334083800      -10.00822160158600       -0.23196657335600      h
      -12.91751620619500      -11.23796320575100        1.89316326310000      h
        0.98715082995100       -9.68605290163100       -9.18793607892400      o
       -0.77728223809200       -9.71393389239700       -9.69420750184900      h
        1.33369183229800       -7.89963983921000       -8.92577585514500      h
       15.62531815936300       -8.73868034503200       -0.22724293292600      o
       16.18968394257900       -6.97479124216300        0.04314132073600      h
       15.91821440324200       -9.59174749742600        1.34580263105000      h
       -7.88341941828700        0.65432376024600      -12.86124370726000      o
       -7.20094816527100       -0.97966267465800      -13.28852473725000      h
       -6.40462147447500        1.76944196241500      -12.69640655855100      h
       -9.93306605786500      -12.83847782555900       -3.88135940176300      o
       -8.75219423733400      -13.30708292586100       -2.49976723829700      h
      -11.54210856320600      -13.48639206756500       -3.36112889185800      h
       20.21214385157100       -3.19180606740400        4.44227633232000      o
       21.84374545761800       -3.96914321053800        4.37657308290200      h
       19.23662919056700       -4.13541770823600        5.72467442837600      h
        4.17436130966800      -11.76753341139400        9.27012204700600      o
        4.48126480737300      -12.75970290843600       10.74865648346300      h
        5.27411030663000      -10.26482122587800        9.38900411348000      h
      -11.87300413097900      -12.05794429753100        5.06599374924000      o
      -12.27249642284300      -13.70995691727200        5.67876889116500      h
      -13.02406775321400      -10.86611103772700        5.95385888274900      h
       -5.87034013366300       -3.68729217786100       -1.39610416366000      o
       -5.35049210788100       -5.11046510577600       -0.35923439661800      h
       -6.52668106165400       -4.35445372728200       -2.98685360535000      h
      -15.07366374322300       -8.85456492839500        7.02647483000300      o
      -15.15497676922100       -7.65215189518900        5.62932778952000      h
      -14.45369691188200       -7.84096844297500        8.43041074214000      h
       15.79797907415700       -7.40747319886700       -5.32182910202900      o
       16.09368395157400       -8.32699240118500       -3.76773900734100      h
       14.48437634224900       -8.29690821767400       -6.23454766915000      h
       12.47323735245200        4.70624906822300       10.05401969937300      o
       12.92900371191300        6.18179481030600       10.99428184518000      h
       10.62720674165000        4.58651552846400       10.15370530547700      h
      -14.14001056791400        1.62326253323900        9.84897487601800      o
      -12.66245995188800        1.90154375303300       10.94670840296500      h
      -14.73354215901100        3.27218225647100        9.30868890397900      h
       -5.00166583858900       10.84585715550200        0.69767508925100      o
       -4.58920007088000        9.41939984080200        1.79618026424600      h
       -3.44260899854200       11.48078288246900       -0.02478676030000      h
      -20.38531933269400        0.09853707791600       -3.15423702749400      o
      -18.88649201347000       -0.84409855121100       -2.58279460270100      h
      -20.76035972974300       -0.66194768346600       -4.80547835596700      h
      -14.78384771560300       -5.09662217817100        3.57493666583500      o
      -15.10112350557200       -3.70952331946400        4.76545429106300      h
      -16.40467007501400       -5.24199311436800        2.71426330734600      h
      -17.71861057427100        3.94557356017200       -5.04932959949900      o
      -17.04982299315000        2.99180761660100       -6.47687537820500      h
      -18.99774086267400        2.83878994857000       -4.30144076145700      h
       15.25406985817900       -2.69478270627100       -7.79017395872200      o
       14.34890670245400       -3.30954107249400       -9.28765139662300      h
       15.73849646203600       -4.19159235432800       -6.87028940850600      h
       -4.00099150178900       -8.03803229866700        6.63175434484800      o
       -2.40933603344900       -8.14813708680500        7.55258921027700      h
       -5.28167956669200       -7.57475246347500        7.85251409064700      h
       -4.15667732831100       -9.97062184285800       -2.92070026875300      o
       -4.60007592389700      -11.05142792020200       -4.34051120696300      h
       -3.10131065949400      -10.95920617752900       -1.77908355718100      h
       -6.63942952461700       14.78550130423200       -2.52861308193800      o
       -6.83879339921000       13.87718644032400       -4.12879633225400      h
       -4.85032826542800       14.79614417822900       -2.19506416734500      h
        6.36308886251100        5.14925568589200       -5.20564708279400      o
        8.04439337302600        5.07867493550300       -4.41691078883500      h
        5.45581455030800        6.59095558206700       -4.51104205989500      h
        5.59689537018300       -4.45952884388900      -11.33335022880600      o
        5.15489363280700       -3.08324682942700      -12.46078781937800      h
        4.08295933974900       -4.82409573627600      -10.39019736902500      h
       -6.65979189638600      -14.41775684956700       -0.49407684015000      o
       -6.37870521004600      -13.52054946257500        1.07783179685400      h
       -5.02100751116900      -14.79479868787300       -1.21984889354500      h
       11.78878026240200        3.13144730312100      -10.84537079125400      o
       11.24413419692300        1.91509422835000      -12.11326011495700      h
       10.42803770101500        4.34862921452800      -10.70556097251800      h
       20.46736098996400       -4.78855624710700       -3.79552606304400      o
       19.42844423643600       -5.74439990543100       -4.94011944957700      h
       20.50186851793300       -3.05563993207100       -4.42174904983600      h
      -11.31030307084600       -7.97619022442500       -5.01250443943900      o
      -11.74511939628700       -7.12440246733200       -3.44475294497700      h
      -10.80262954118600       -9.69100478013700       -4.57024958725600      h
      -14.57452566612600        6.67327845304600        1.57313753202500      o
      -14.43239588224200        8.26410170044000        2.50004338187200      h
      -15.21410127714100        7.19795278296700       -0.09304602110100      h
      -11.87481757020300        3.42938938532600      -10.89812112542400      o
      -10.48082976090100        2.47607900649400      -11.62920969242000      h
      -12.43625312244100        4.58607891144100      -12.17027289154500      h
       -7.47213065731500       -1.62277730717300        9.92187431353300      o
       -5.75256624330400       -1.49852629287200        9.26736792790400      h
       -8.61434110396200       -1.45342165610100        8.48172848394900      h
      -21.36366528977500        0.16944021007300        1.74565266542300      o
      -21.28624960433900        0.23254137640000       -0.10730544865100      h
      -23.10182396802200        0.37190400793100        2.20152909405100      h
        6.22656431136100       10.41996296174900       -7.41143538159600      o
        7.06375688101200       10.71220255326200       -5.78585941580300      h
        7.51913620494600        9.93291106783400       -8.58148510727800      h
       14.58262202914800        5.14752103444500        5.39626106817200      o
       14.61451916225600        3.40392873212300        4.84286911761900      h
       13.76579994971800        5.17000080842500        7.04321182055300      h
        3.36796670741300        8.51783603588700       -3.02289564275700      o
        3.81155766746300       10.25593670257100       -2.62778565995100      h
        1.52246844979700        8.46893457742300       -3.02536441777600      h
       -1.47562456009500        6.67168344176400        8.04346560262200      o
       -2.44929531420200        5.11367350724800        8.30485769399800      h
       -2.21051606885000        7.83997448208600        9.26890332664700      h
       19.68673601583000        0.73133792653900        0.44505735715100      o
       20.02171149210000        0.67041777456600       -1.35543973148100      h
       21.16749521757600        1.37682242222600        1.25490490804500      h
      -12.08048254454500       -1.31970850977200       -4.15719265185400      o
      -10.85830075408000       -1.22111631327500       -5.52809581726900      h
      -11.44567110045500       -2.55622893300400       -2.93644226813500      h
      -13.17779236205300       -5.33086460669200       -9.05843391947700      o
      -14.93357293187500       -5.31345161279200       -8.56880584475600      h
      -12.40437831191000       -6.48493029802500       -7.85828554405400      h
       -7.35371438334300       -5.04933191705900       -6.03503283493300      o
       -8.05731065862500       -3.69535622581400       -7.07231370089500      h
       -8.69183599272600       -6.30223577596700       -5.81215944275500      h
        1.49337263547600       -4.78668090329500       -7.82269364106800      o
       -0.06894635155000       -5.14918757506700       -6.84906760354700      h
        1.42235404030800       -2.96004106355600       -8.19556592265500      h
        6.11116411861700      -10.22219430347400       -7.20206133385200      o
        5.69854316377800       -8.65657412678700       -6.27669065636000      h
        4.80573708760700      -10.42819891353600       -8.44826324113000      h
       -5.62731307256100       10.87835761536700        6.46149117405400      o
       -6.88190794649800        9.94124932144700        5.47784912299500      h
       -5.87410247768400       12.61495266746700        5.98535007154300      h
      -11.85644211828000        3.78707825219100        5.12732339764600      o
      -12.49659703121000        4.68246391899000        3.66836197836600      h
      -11.76250409172900        5.05190321632500        6.46008403120000      h
       13.74297300587000       -8.40702278325400        4.91247233375100      o
       13.21396393639400       -6.96202430297200        3.83280658205200      h
       12.68587001867800       -9.82368339202600        4.45105460975400      h
       10.01285472414300      -11.79412891457200        3.15965203304500      o
       10.18768639963900      -11.67240489151000        1.34436622730200      h
        8.36019561932800      -12.56598582259600        3.47078255554700      h
       -4.15861962190100       -9.15382021631100      -10.02489173514400      o
       -4.80077065764300       -9.68684078053500      -11.63023004654400      h
       -4.78391339680800      -10.36771030769500       -8.79309451146900      h
       10.50591910922200       11.80259297083200        2.17480162715200      o
        9.80439945851000       12.22219947754400        0.54494534704700      h
       11.80211869572800       10.55934341887600        1.79734076025900      h
       -3.59576385840900        3.29856614492500      -12.11994220159800      o
       -3.67682769834100        5.13582073991600      -11.91655661469700      h
       -3.68845103699300        2.59899974689000      -10.40579788708200      h
        2.01458195747100        4.53021820363200      -12.09673400232700      o
        0.32755763862600        4.24163601701300      -12.70938520884300      h
        1.81224788929900        5.86854620283600      -10.84564809455300      h
      -17.28526449379200        3.01933452507000        3.53322497380200      o
      -18.78309309247300        2.43806878662900        2.66121746350200      h
      -16.49508479748400        4.39262658811200        2.54372703033400      h
       17.48913038345600       -4.15139703206400        0.17172426305700      o
       18.45026570567300       -3.66427112741000        1.66641684395100      h
       18.74255196396800       -4.40802711363700       -1.18330872135400      h
       16.66357200666600        2.19271271463900       -9.02601773515400      o
       16.40180225374800        0.40448342111300       -8.70914403464700      h
       15.19075182350100        2.74730867932600       -9.95445710894700      h
        1.79945157507300        7.96703940282700       -8.27128042633600      o
        3.34296678262400        8.88990046038600       -7.85145346154900      h
        0.40894675273800        9.13001259502300       -7.99799465457000      h
        6.80010356416300       -7.49390207186900        9.20218783947700      o
        6.80136426572800       -7.38833939897600        7.35175950814700      h
        6.11678603819800       -5.88611249980800        9.82736441887200      h
        0.30957218173000       11.90215169166600        7.90883366794700      o
        2.11230098700800       11.65494903409100        8.09520234637400      h
       -0.29446515899000       10.35261010063100        7.15628408163300      h
       -4.70494396433400        2.97054969992500        9.00529403115300      o
       -5.55489142333900        2.65717847928700        7.37607608384400      h
       -5.85974763352500        4.06347164010800        9.94305861782500      h
       -3.62608068664900        8.21555731476400      -10.91597662605500      o
       -3.97277644583600        7.47996572963100       -9.22675190766900      h
       -4.81738808920100        9.55519233252800      -11.13657863264900      h
       15.95940073105200        0.66410902634000        8.51907164775000      o
       14.81772557346900        1.93677594139200        9.15803305550200      h
       15.71846763256600       -0.79285688126500        9.62965005110000      h
       13.07966679199300        8.86687924307300       -4.26835931536400      o
       12.42569493235600        7.17010109882700       -3.91186513475700      h
       14.30953494241200        9.24884871696900       -2.95787853998100      h
       -9.88796297444800       -1.55440027770700       -8.61924247406200      o
       -9.10756783879900       -0.78174895327100      -10.08877201204800      h
      -11.13523052105500       -2.79326816443300       -9.19840601635100      h
       -5.67258510333600      -12.97632098835800       -6.78546183655000      o
       -7.38212498246800      -13.12937222907100       -6.13063622556300      h
       -4.71846891021000      -14.37817585717900       -6.10421472324800      h
        4.14388253720500       13.27950859434100       -1.42593516698000      o
        4.53780070179100       12.51570894240600        0.22542532005200      h
        5.73797264531000       13.65865959073900       -2.20734062155300      h
      -14.26965256065600       11.47344456902800        3.27302530176800      o
      -15.75085589070900       12.35472207290200        2.72569725350600      h
      -12.92166929640900       11.97260610801800        2.12120212043900      h
       -6.28478179202200       14.98335321022700        3.29268711660100      o
       -6.08779332222300       13.48829662918600        2.19925172143600      h
       -7.05146170717900       16.25440560389900        2.25957469506500      h
        8.68509816370400       10.91828617030900       -2.93862936362800      o
        8.12342850409000        9.43621019089100       -1.99785798335300      h
       10.38303356289300       10.45741365303600       -3.53937926055300      h
       -7.78706397682300        6.29905420520100       11.26636701546900      o
       -9.07861858274100        7.02182115422000       10.17466407570100      h
       -6.62544786694000        7.65218674457000       11.66458074275500      h
        7.83186287067600        6.93086437198800        0.22420937702400      o
        9.63112903150800        7.03174009499200        0.68136353364800      h
        7.33814542333100        5.18366932263900        0.57427951684800      h
       20.34205202544000        1.90651893072700        5.77970557805100      o
       19.04241478422600        1.88612018683500        7.06543887203300      h
       20.48362336129100        0.15646354550500        5.24907742313000      h
       -6.92903650735100        8.01115935631900       -2.99329466500500      o
       -6.18430605786000        9.14190192734300       -1.73314629525100      h
       -7.98886357191500        6.87121329703400       -2.00954245785200      h
      -11.89763499493500       10.16141213040800       -4.80260086006000      o
      -10.97807299448200       11.32472523422500       -5.85001622934400      h
      -11.25251537074700        8.47794989036400       -5.24311741192400      h
       17.34429456303500        9.45681303123300       -1.19629673504900      o
       18.48519442653300        9.07350668923300       -2.55377707273400      h
       17.97421827687800        8.56786314476200        0.26824191859600      h
       11.01223031711500       -0.98321842968100        7.03726836183400      o
        9.81818471243500       -1.34370318255900        5.68801316103400      h
       11.60074285731800       -2.65248674083200        7.52518924320400      h
      -16.86219526307700       -1.46480811495900        6.49234196174600      o
      -17.19791494725200       -0.03536635285500        5.40970944254100      h
      -16.08325827663100       -0.75809638210800        7.98376792570400      h
        0.51593093777300       -8.02626646636300        9.08453476005400      o
        1.48778669759900       -6.85515687200900        8.05984510955700      h
        1.47580313220600       -9.58743433306300        9.10232260811800      h
      -17.56679647439900       -6.59274859033100       -6.34047366245500      o
      -18.27678727672500       -8.09403500728700       -7.05589764212500      h
      -17.15152754012900       -6.99125333787000       -4.58488668655200      h
        0.48868316148000       -3.56423838488400       11.77761010327600      o
        2.30460365946200       -3.26716587538200       11.63600567567900      h
        0.29344571949300       -5.37089461686200       11.58353924883300      h
       18.86127038848900        5.83729682431900        2.68495843245400      o
       17.42562271931300        6.17995471271800        3.77257118739400      h
       19.79336698425000        4.56356385041900        3.62919585093300      h
        5.26692809532300      -12.70007681962800       -2.79440554078200      o
        5.57246414405600      -11.23349132217100       -1.69520852502200      h
        6.09119329787500      -12.29953963157800       -4.38406938593700      h
       -4.09586897498200        6.54474563287200        3.43548833485400      o
       -5.28680417295300        5.17315810490400        3.72731810773600      h
       -3.56473153343700        7.18190583472900        5.07064399725000      h
        7.44028635735400        3.98630166969000       10.57777831855400      o
        6.88167374576900        2.83643092826800        9.24645213326100      h
        5.91946049174500        4.92529598342900       10.99331947805200      h
        1.58156624945140       -1.75827415355262       -0.04074782303354      o
        3.25866664152199       -1.20923881117350       -0.44278188946114      h
        0.79443360763877       -2.16007237075268       -1.63466796892776      h
       -2.73271238292534        0.18644826449667        1.89041476630368      o
       -3.90048405401014       -1.20253499485033        1.78544795030352      h
       -1.10578680256799       -0.47080915367823        1.33071952783861      h
$end
 
 Bond Distances (Angstroems)
 ---------------------------
O1-H2=0.9698         O1-H3=0.9790         H2-O1=0.9698         H3-O1=0.9790         O4-H5=0.9676         O4-H6=0.9769         
H5-O4=0.9676         H6-O4=0.9769         O7-H8=0.9720         O7-H9=0.9819         H8-O7=0.9720         H9-O7=0.9819         
O10-H11=0.9799       O10-H12=0.9681       H11-O10=0.9799       H12-O10=0.9681       O13-H14=0.9672       O13-H15=0.9794       
H14-O13=0.9672       H15-O13=0.9794       O16-H17=0.9822       O16-H18=0.9829       H17-O16=0.9822       H18-O16=0.9829       
O19-H20=0.9725       O19-H21=0.9699       H20-O19=0.9725       H21-O19=0.9699       O22-H23=0.9774       O22-H24=0.9753       
H23-O22=0.9774       H24-O22=0.9753       O25-H26=0.9630       O25-H27=0.9720       H26-O25=0.9630       H27-O25=0.9720       
O28-H29=0.9806       O28-H30=0.9728       H29-O28=0.9806       H30-O28=0.9728       O31-H32=0.9803       O31-H33=0.9801       
H32-O31=0.9803       H33-O31=0.9801       O34-H35=0.9720       O34-H36=0.9732       H35-O34=0.9720       H36-O34=0.9732       
O37-H38=0.9825       O37-H39=0.9772       H38-O37=0.9825       H39-O37=0.9772       O40-H41=0.9777       O40-H42=0.9754       
H41-O40=0.9777       H42-O40=0.9754       O43-H44=0.9862       O43-H45=0.9752       H44-O43=0.9862       H45-O43=0.9752       
O46-H47=0.9791       O46-H48=0.9595       H47-O46=0.9791       H48-O46=0.9595       O49-H50=0.9787       O49-H51=0.9714       
H50-O49=0.9787       H51-O49=0.9714       O52-H53=0.9729       O52-H54=0.9677       H53-O52=0.9729       H54-O52=0.9677       
O55-H56=0.9625       O55-H57=0.9742       H56-O55=0.9625       H57-O55=0.9742       O58-H59=0.9773       O58-H60=0.9801       
H59-O58=0.9773       H60-O58=0.9801       O61-H62=0.9726       O61-H63=0.9778       H62-O61=0.9726       H63-O61=0.9778       
O64-H65=0.9772       O64-H66=0.9813       H65-O64=0.9772       H66-O64=0.9813       O67-H68=0.9829       O67-H69=0.9624       
H68-O67=0.9829       H69-O67=0.9624       O70-H71=0.9845       O70-H72=0.9769       H71-O70=0.9845       H72-O70=0.9769       
O73-H74=0.9728       O73-H75=0.9762       H74-O73=0.9728       H75-O73=0.9762       O76-H77=0.9773       O76-H78=0.9777       
H77-O76=0.9773       H78-O76=0.9777       O79-H80=0.9764       O79-H81=0.9760       H80-O79=0.9764       H81-O79=0.9760       
O82-H83=0.9640       O82-H84=0.9832       H83-O82=0.9640       H84-O82=0.9832       O85-H86=0.9864       O85-H87=0.9670       
H86-O85=0.9864       H87-O85=0.9670       O88-H89=0.9623       O88-H90=0.9677       H89-O88=0.9623       H90-O88=0.9677       
O91-H92=0.9812       O91-H93=0.9689       H92-O91=0.9812       H93-O91=0.9689       O94-H95=0.9939       O94-H96=0.9600       
H95-O94=0.9939       H96-O94=0.9600       O97-H98=0.9807       O97-H99=0.9664       H98-O97=0.9807       H99-O97=0.9664       
O100-H101=0.9589     O100-H102=0.9837     H101-O100=0.9589     H102-O100=0.9837     O103-H104=0.9733     O103-H105=0.9638     
H104-O103=0.9733     H105-O103=0.9638     O106-H107=0.9757     O106-H108=0.9765     H107-O106=0.9757     H108-O106=0.9765     
O109-H110=0.9801     O109-H111=0.9689     H110-O109=0.9801     H111-O109=0.9689     O112-H113=0.9772     O112-H114=0.9675     
H113-O112=0.9772     H114-O112=0.9675     O115-H116=0.9783     O115-H117=0.9781     H116-O115=0.9783     H117-O115=0.9781     
O118-H119=0.9731     O118-H120=0.9711     H119-O118=0.9731     H120-O118=0.9711     O121-H122=0.9776     O121-H123=0.9747     
H122-O121=0.9776     H123-O121=0.9747     O124-H125=0.9755     O124-H126=0.9846     H125-O124=0.9755     H126-O124=0.9846     
O127-H128=0.9661     O127-H129=0.9778     H128-O127=0.9661     H129-O127=0.9778     O130-H131=0.9757     O130-H132=0.9708     
H131-O130=0.9757     H132-O130=0.9708     O133-H134=0.9783     O133-H135=0.9782     H134-O133=0.9783     H135-O133=0.9782     
O136-H137=0.9770     O136-H138=0.9717     H137-O136=0.9770     H138-O136=0.9717     O139-H140=0.9765     O139-H141=0.9780     
H140-O139=0.9765     H141-O139=0.9780     O142-H143=0.9707     O142-H144=0.9745     H143-O142=0.9707     H144-O142=0.9745     
O145-H146=0.9681     O145-H147=0.9755     H146-O145=0.9681     H147-O145=0.9755     O148-H149=0.9775     O148-H150=0.9689     
H149-O148=0.9775     H150-O148=0.9689     O151-H152=0.9741     O151-H153=0.9663     H152-O151=0.9741     H153-O151=0.9663     
O154-H155=0.9771     O154-H156=0.9646     H155-O154=0.9771     H156-O154=0.9646     O157-H158=0.9783     O157-H159=0.9746     
H158-O157=0.9783     H159-O157=0.9746     O160-H161=0.9855     O160-H162=0.9759     H161-O160=0.9855     H162-O160=0.9759     
O163-H164=0.9634     O163-H165=0.9785     H164-O163=0.9634     H165-O163=0.9785     O166-H167=0.9840     O166-H168=0.9770     
H167-O166=0.9840     H168-O166=0.9770     O169-H170=0.9766     O169-H171=0.9562     H170-O169=0.9766     H171-O169=0.9562     
O172-H173=0.9665     O172-H174=0.9675     H173-O172=0.9665     H174-O172=0.9675     O175-H176=0.9732     O175-H177=0.9800     
H176-O175=0.9732     H177-O175=0.9800     O178-H179=0.9596     O178-H180=0.9916     H179-O178=0.9596     H180-O178=0.9916     
O181-H182=0.9735     O181-H183=0.9748     H182-O181=0.9735     H183-O181=0.9748     O184-H185=0.9816     O184-H186=0.9608     
H185-O184=0.9816     H186-O184=0.9608     O187-H188=0.9759     O187-H189=0.9756     H188-O187=0.9759     H189-O187=0.9756     
O190-H191=0.9727     O190-H192=0.9697     H191-O190=0.9727     H192-O190=0.9697     O193-H194=0.9802     O193-H195=0.9697     
H194-O193=0.9802     H195-O193=0.9697     O196-H197=0.9624     O196-H198=0.9837     H197-O196=0.9624     H198-O196=0.9837     
O199-H200=0.9735     O199-H201=0.9806     H200-O199=0.9735     H201-O199=0.9806     O202-H203=0.9717     O202-H204=0.9712     
H203-O202=0.9717     H204-O202=0.9712     O205-H206=0.9654     O205-H207=0.9694     H206-O205=0.9654     H207-O205=0.9694     
O208-H209=0.9813     O208-H210=0.9669     H209-O208=0.9813     H210-O208=0.9669     O211-H212=0.9592     O211-H213=0.9748     
H212-O211=0.9592     H213-O211=0.9748     O214-H215=0.9621     O214-H216=0.9736     H215-O214=0.9621     H216-O214=0.9736     
O217-H218=0.9824     O217-H219=0.9845     H218-O217=0.9824     H219-O217=0.9845     O220-H221=0.9589     O220-H222=0.9875     
H221-O220=0.9589     H222-O220=0.9875     O223-H224=0.9668     O223-H225=0.9705     H224-O223=0.9668     H225-O223=0.9705     
O226-H227=0.9756     O226-H228=0.9802     H227-O226=0.9756     H228-O226=0.9802     O229-H230=0.9659     O229-H231=0.9793     
H230-O229=0.9659     H231-O229=0.9793     O232-H233=0.9680     O232-H234=0.9699     H233-O232=0.9680     H234-O232=0.9699     
O235-H236=0.9875     O235-H237=0.9771     H236-O235=0.9875     H237-O235=0.9771     O238-H239=0.9811     O238-H240=0.9781     
H239-O238=0.9811     H240-O238=0.9781     O241-H242=0.9591     O241-H243=0.9873     H242-O241=0.9591     H243-O241=0.9873     
O244-H245=0.9611     O244-H246=0.9910     H245-O244=0.9611     H246-O244=0.9910     O247-H248=0.9644     O247-H249=0.9793     
H248-O247=0.9644     H249-O247=0.9793     O250-H251=0.9757     O250-H252=0.9691     H251-O250=0.9757     H252-O250=0.9691     
O253-H254=0.9694     O253-H255=0.9665     H254-O253=0.9694     H255-O253=0.9665     O256-H257=0.9695     O256-H258=0.9694     
H257-O256=0.9695     H258-O256=0.9694     O259-H260=0.9710     O259-H261=0.9773     H260-O259=0.9710     H261-O259=0.9773     
O262-H263=0.9847     O262-H264=0.9591     H263-O262=0.9847     H264-O262=0.9591     O265-H266=0.9671     O265-H267=0.9740     
H266-O265=0.9671     H267-O265=0.9740     O268-H269=0.9753     O268-H270=0.9789     H269-O268=0.9753     H270-O268=0.9789     
O271-H272=0.9683     O271-H273=0.9707     H272-O271=0.9683     H273-O271=0.9707     O274-H275=0.9706     O274-H276=0.9748     
H275-O274=0.9706     H276-O274=0.9748     O277-H278=0.9814     O277-H279=0.9678     H278-O277=0.9814     H279-O277=0.9678     
O280-H281=0.9742     O280-H282=0.9593     H281-O280=0.9742     H282-O280=0.9593     O283-H284=0.9642     O283-H285=0.9639     
H284-O283=0.9642     H285-O283=0.9639     O286-H287=0.9788     O286-H288=0.9714     H287-O286=0.9788     H288-O286=0.9714     
O289-H290=0.9715     O289-H291=0.9729     H290-O289=0.9715     H291-O289=0.9729     O292-H293=0.9904     O292-H294=0.9595     
H293-O292=0.9904     H294-O292=0.9595     O295-H296=0.9640     O295-H297=0.9840     H296-O295=0.9640     H297-O295=0.9840     
O298-H299=0.9932     O298-H300=0.9583     H299-O298=0.9932     H300-O298=0.9583     O301-H302=0.9570     O301-H303=0.9881     
H302-O301=0.9570     H303-O301=0.9881     O304-H305=0.9561     O304-H306=0.9874     H305-O304=0.9561     H306-O304=0.9874     
O307-H308=0.9561     O307-H309=0.9948     H308-O307=0.9561     H309-O307=0.9948     O310-H311=0.9716     O310-H312=0.9767     
[...]
   160   8 o      162   1 h                                       0.9758974
   163   8 o      164   1 h                                       0.9633657
   163   8 o      165   1 h                                       0.9785230
   166   8 o      167   1 h                                       0.9839600
   166   8 o      168   1 h                                       0.9769663
   169   8 o      170   1 h                                       0.9766384
   169   8 o      171   1 h                                       0.9562185
   172   8 o      173   1 h                                       0.9665461
   172   8 o      174   1 h                                       0.9674776
   175   8 o      176   1 h                                       0.9731969
   175   8 o      177   1 h                                       0.9800470
   178   8 o      179   1 h                                       0.9595807
   178   8 o      180   1 h                                       0.9916084
   181   8 o      182   1 h                                       0.9735274
   181   8 o      183   1 h                                       0.9747840
   184   8 o      185   1 h                                       0.9815833
   184   8 o      186   1 h                                       0.9607563
   187   8 o      188   1 h                                       0.9758616
   187   8 o      189   1 h                                       0.9755664
   190   8 o      191   1 h                                       0.9726721
   190   8 o      192   1 h                                       0.9696716
   193   8 o      194   1 h                                       0.9801540
   193   8 o      195   1 h                                       0.9696924
   196   8 o      197   1 h                                       0.9624158
   196   8 o      198   1 h                                       0.9836866
   199   8 o      200   1 h                                       0.9734713
   199   8 o      201   1 h                                       0.9806195
   202   8 o      203   1 h                                       0.9717485
   202   8 o      204   1 h                                       0.9711973
   205   8 o      206   1 h                                       0.9653596
   205   8 o      207   1 h                                       0.9693550
   208   8 o      209   1 h                                       0.9812780
   208   8 o      210   1 h                                       0.9669285
   211   8 o      212   1 h                                       0.9592171
   211   8 o      213   1 h                                       0.9747705
   214   8 o      215   1 h                                       0.9621435
   214   8 o      216   1 h                                       0.9735784
   217   8 o      218   1 h                                       0.9824380
   217   8 o      219   1 h                                       0.9845474
   220   8 o      221   1 h                                       0.9589300
   220   8 o      222   1 h                                       0.9874671
   223   8 o      224   1 h                                       0.9667739
   223   8 o      225   1 h                                       0.9705420
   226   8 o      227   1 h                                       0.9756035
   226   8 o      228   1 h                                       0.9801895
   229   8 o      230   1 h                                       0.9659332
   229   8 o      231   1 h                                       0.9793289
   232   8 o      233   1 h                                       0.9680333
   232   8 o      234   1 h                                       0.9698773
   235   8 o      236   1 h                                       0.9875328
   235   8 o      237   1 h                                       0.9771092
   238   8 o      239   1 h                                       0.9811326
   238   8 o      240   1 h                                       0.9780907
   241   8 o      242   1 h                                       0.9591160
   241   8 o      243   1 h                                       0.9873271
   244   8 o      245   1 h                                       0.9611154
   244   8 o      246   1 h                                       0.9909944
   247   8 o      248   1 h                                       0.9644192
   247   8 o      249   1 h                                       0.9793091
   250   8 o      251   1 h                                       0.9756812
   250   8 o      252   1 h                                       0.9691260
   253   8 o      254   1 h                                       0.9693950
   253   8 o      255   1 h                                       0.9664652
   256   8 o      257   1 h                                       0.9694903
   256   8 o      258   1 h                                       0.9694168
   259   8 o      260   1 h                                       0.9710089
   259   8 o      261   1 h                                       0.9773315
   262   8 o      263   1 h                                       0.9846615
   262   8 o      264   1 h                                       0.9591356
   265   8 o      266   1 h                                       0.9671203
   265   8 o      267   1 h                                       0.9739709
   268   8 o      269   1 h                                       0.9752790
   268   8 o      270   1 h                                       0.9789083
   271   8 o      272   1 h                                       0.9682887
   271   8 o      273   1 h                                       0.9707014
   274   8 o      275   1 h                                       0.9706488
   274   8 o      276   1 h                                       0.9747690
   277   8 o      278   1 h                                       0.9813932
   277   8 o      279   1 h                                       0.9678265
   280   8 o      281   1 h                                       0.9741875
   280   8 o      282   1 h                                       0.9593449
   283   8 o      284   1 h                                       0.9642078
   283   8 o      285   1 h                                       0.9639239
   286   8 o      287   1 h                                       0.9788492
   286   8 o      288   1 h                                       0.9713679
   289   8 o      290   1 h                                       0.9714853
   289   8 o      291   1 h                                       0.9728935
   292   8 o      293   1 h                                       0.9904130
   292   8 o      294   1 h                                       0.9595465
   295   8 o      296   1 h                                       0.9639524
   295   8 o      297   1 h                                       0.9839714
   298   8 o      299   1 h                                       0.9932258
   298   8 o      300   1 h                                       0.9583005
   301   8 o      302   1 h                                       0.9570202
   301   8 o      303   1 h                                       0.9880997
   304   8 o      305   1 h                                       0.9561362
   304   8 o      306   1 h                                       0.9874120
   307   8 o      308   1 h                                       0.9560746
   307   8 o      309   1 h                                       0.9947573 (max)
   310   8 o      311   1 h                                       0.9715501
   310   8 o      312   1 h                                       0.9766685
   313   8 o      314   1 h                                       0.9763899
   313   8 o      315   1 h                                       0.9732795
   316   8 o      317   1 h                                       0.9682864
   316   8 o      318   1 h                                       0.9685103
   319   8 o      320   1 h                                       0.9567799
   319   8 o      321   1 h                                       0.9803503
   322   8 o      323   1 h                                       0.9851250
   322   8 o      324   1 h                                       0.9704489
   325   8 o      326   1 h                                       0.9774209
   325   8 o      327   1 h                                       0.9693828
   328   8 o      329   1 h                                       0.9845530
   328   8 o      330   1 h                                       0.9822748
   331   8 o      332   1 h                                       0.9817685
   331   8 o      333   1 h                                       0.9741687
   334   8 o      335   1 h                                       0.9750130
   334   8 o      336   1 h                                       0.9786893
   337   8 o      338   1 h                                       0.9814329
   337   8 o      339   1 h                                       0.9643950
   340   8 o      341   1 h                                       0.9748110
   340   8 o      342   1 h                                       0.9678368
   343   8 o      344   1 h                                       0.9729679
   343   8 o      345   1 h                                       0.9749488
   346   8 o      347   1 h                                       0.9793881
   346   8 o      348   1 h                                       0.9630810
   349   8 o      350   1 h                                       0.9834545
   349   8 o      351   1 h                                       0.9734735
   352   8 o      353   1 h                                       0.9700893
   352   8 o      354   1 h                                       0.9634004
   355   8 o      356   1 h                                       0.9692597
   355   8 o      357   1 h                                       0.9692066
   358   8 o      359   1 h                                       0.9734125
   358   8 o      360   1 h                                       0.9689435
   361   8 o      362   1 h                                       0.9617466
   361   8 o      363   1 h                                       0.9752300
   364   8 o      365   1 h                                       0.9717937
   364   8 o      366   1 h                                       0.9748805
   367   8 o      368   1 h                                       0.9771991
   367   8 o      369   1 h                                       0.9843988
   370   8 o      371   1 h                                       0.9738146
   370   8 o      372   1 h                                       0.9571397
   373   8 o      374   1 h                                       0.9758578
   373   8 o      375   1 h                                       0.9768082
   376   8 o      377   1 h                                       0.9819666
   376   8 o      378   1 h                                       0.9569203
   379   8 o      380   1 h                                       0.9798775
   379   8 o      381   1 h                                       0.9579392
   382   8 o      383   1 h                                       0.9681738
   382   8 o      384   1 h                                       0.9729022
   385   8 o      386   1 h                                       0.9719992
   385   8 o      387   1 h                                       0.9769394
   388   8 o      389   1 h                                       0.9820132
   388   8 o      390   1 h                                       0.9767109
   391   8 o      392   1 h                                       0.9696673
   391   8 o      393   1 h                                       0.9562090
   394   8 o      395   1 h                                       0.9732869
   394   8 o      396   1 h                                       0.9789350
   397   8 o      398   1 h                                       0.9646140
   397   8 o      399   1 h                                       0.9714970
   400   8 o      401   1 h                                       0.9763642
   400   8 o      402   1 h                                       0.9771900
   403   8 o      404   1 h                                       0.9928527
   403   8 o      405   1 h                                       0.9872653
   406   8 o      407   1 h                                       0.9868459
   406   8 o      408   1 h                                       0.9612395
   409   8 o      410   1 h                                       0.9785820
   409   8 o      411   1 h                                       0.9617901
   412   8 o      413   1 h                                       0.9671186
   412   8 o      414   1 h                                       0.9735794
   415   8 o      416   1 h                                       0.9947335
   415   8 o      417   1 h                                       0.9667158
   418   8 o      419   1 h                                       0.9672002
   418   8 o      420   1 h                                       0.9791706
   421   8 o      422   1 h                                       0.9574424
   421   8 o      423   1 h                                       0.9731462
   424   8 o      425   1 h                                       0.9648791
   424   8 o      426   1 h                                       0.9711923
   427   8 o      428   1 h                                       0.9791126
   427   8 o      429   1 h                                       0.9809460
   430   8 o      431   1 h                                       0.9619785
   430   8 o      432   1 h                                       0.9753638
   433   8 o      434   1 h                                       0.9673611
   433   8 o      435   1 h                                       0.9885027
   436   8 o      437   1 h                                       0.9750626
   436   8 o      438   1 h                                       0.9861796
   439   8 o      440   1 h                                       0.9709640
   439   8 o      441   1 h                                       0.9669295
   442   8 o      443   1 h                                       0.9772410
   442   8 o      444   1 h                                       0.9700983
   445   8 o      446   1 h                                       0.9807969
   445   8 o      447   1 h                                       0.9818707
   448   8 o      449   1 h                                       0.9679278
   448   8 o      450   1 h                                       0.9659871
   451   8 o      452   1 h                                       0.9864527
   451   8 o      453   1 h                                       0.9768234
   454   8 o      455   1 h                                       0.9920871
   454   8 o      456   1 h                                       0.9558208 (min)
   457   8 o      458   1 h                                       0.9658572
   457   8 o      459   1 h                                       0.9777877
   460   8 o      461   1 h                                       0.9805961
   460   8 o      462   1 h                                       0.9722811
   463   8 o      464   1 h                                       0.9707949
   463   8 o      465   1 h                                       0.9794641
   466   8 o      467   1 h                                       0.9721244
   466   8 o      468   1 h                                       0.9670535
   469   8 o      470   1 h                                       0.9851161
   469   8 o      471   1 h                                       0.9606387
   472   8 o      473   1 h                                       0.9569452
   472   8 o      474   1 h                                       0.9747379
   475   8 o      476   1 h                                       0.9856911
   475   8 o      477   1 h                                       0.9570202
   478   8 o      479   1 h                                       0.9753345
   478   8 o      480   1 h                                       0.9837985
   481   8 o      482   1 h                                       0.9732145
   481   8 o      483   1 h                                       0.9669466
   484   8 o      485   1 h                                       0.9838321
   484   8 o      486   1 h                                       0.9784767
   487   8 o      488   1 h                                       0.9674806
   487   8 o      489   1 h                                       0.9706188
   490   8 o      491   1 h                                       0.9787886
   490   8 o      492   1 h                                       0.9743875
   493   8 o      494   1 h                                       0.9607112
   493   8 o      495   1 h                                       0.9820879
   496   8 o      497   1 h                                       0.9600345
   496   8 o      498   1 h                                       0.9659347
   499   8 o      500   1 h                                       0.9723312
   499   8 o      501   1 h                                       0.9715658
   502   8 o      503   1 h                                       0.9653830
   502   8 o      504   1 h                                       0.9657356
   505   8 o      506   1 h                                       0.9708622
   505   8 o      507   1 h                                       0.9698415
   508   8 o      509   1 h                                       0.9568864
   508   8 o      510   1 h                                       0.9776670
   511   8 o      512   1 h                                       0.9765968
   511   8 o      513   1 h                                       0.9670760
   514   8 o      515   1 h                                       0.9702000
   514   8 o      516   1 h                                       0.9732811
   517   8 o      518   1 h                                       0.9832534
   517   8 o      519   1 h                                       0.9709897
   520   8 o      521   1 h                                       0.9735630
   520   8 o      522   1 h                                       0.9702598
   523   8 o      524   1 h                                       0.9767127
   523   8 o      525   1 h                                       0.9710505
   526   8 o      527   1 h                                       0.9577578
   526   8 o      528   1 h                                       0.9644393
   529   8 o      530   1 h                                       0.9618782
   529   8 o      531   1 h                                       0.9746251

 * 1 distinct bonds (by element types)

   Z      Z             #   av. dist./Å        max./Å        min./Å
   1 H    8 O         354     0.9734381     0.9947573     0.9558208


optimized geometry written to: xtbopt.coord


           -------------------------------------------------
          | TOTAL ENERGY             -901.206205545218 Eh   |
          | GRADIENT NORM               0.003367270699 Eh/α |
          | HOMO-LUMO GAP               7.110797890661 eV   |
           -------------------------------------------------

------------------------------------------------------------------------
 * finished run on 2022/11/17 at 06:50:43.842     
------------------------------------------------------------------------
 total:
 * wall-time:     0 d,  0 h,  1 min, 55.858 sec
 *  cpu-time:     0 d,  0 h,  2 min, 59.847 sec
 * ratio c/w:     1.552 speedup
 SCF:
 * wall-time:     0 d,  0 h,  0 min,  8.244 sec
 *  cpu-time:     0 d,  0 h,  0 min, 13.242 sec
 * ratio c/w:     1.606 speedup
 ANC optimizer:
 * wall-time:     0 d,  0 h,  1 min, 47.029 sec
 *  cpu-time:     0 d,  0 h,  2 min, 45.546 sec
 * ratio c/w:     1.547 speedup

