      -----------------------------------------------------------      
     |                   =====================                   |     
     |                           x T B                           |     
     |                   =====================                   |     
     |                         S. Grimme                         |     
     |          Mulliken Center for Theoretical Chemistry        |     
     |                    University of Bonn                     |     
      -----------------------------------------------------------      

   * xtb version 6.5.1 (579679a) compiled by 'ehlert@majestix' on 2022-07-11

   xtb is free software: you can redistribute it and/or modify it under
   the terms of the GNU Lesser General Public License as published by
   the Free Software Foundation, either version 3 of the License, or
   (at your option) any later version.
   
   xtb is distributed in the hope that it will be useful,
   but WITHOUT ANY WARRANTY; without even the implied warranty of
   MERCHANTABILITY or FITNESS FOR A PARTICULAR PURPOSE.  See the
   GNU Lesser General Public License for more details.
   
   Cite this work as:
   * C. Bannwarth, E. Caldeweyher, S. Ehlert, A. Hansen, P. Pracht,
     J. Seibert, S. Spicher, S. Grimme, WIREs Comput. Mol. Sci., 2020, 11,
     e01493. DOI: 10.1002/wcms.1493
   
   for GFN2-xTB:
   * C. Bannwarth, S. Ehlert and S. Grimme., J. Chem. Theory Comput., 2019,
     15, 1652-1671. DOI: 10.1021/acs.jctc.8b01176
   for GFN1-xTB:
   * S. Grimme, C. Bannwarth, P. Shushkov, J. Chem. Theory Comput., 2017,
     13, 1989-2009. DOI: 10.1021/acs.jctc.7b00118
   for GFN0-xTB:
   * P. Pracht, E. Caldeweyher, S. Ehlert, S. Grimme, ChemRxiv, 2019, preprint.
     DOI: 10.26434/chemrxiv.8326202.v1
   for GFN-FF:
   * S. Spicher and S. Grimme, Angew. Chem. Int. Ed., 2020, 59, 15665-15673.
     DOI: 10.1002/anie.202004239
   
   for ALPB and GBSA implicit solvation:
   * S. Ehlert, M. Stahn, S. Spicher, S. Grimme, J. Chem. Theory Comput.,
     2021, 17, 4250-4261. DOI: 10.1021/acs.jctc.1c00471
   
   for DFT-D4:
   * E. Caldeweyher, C. Bannwarth and S. Grimme, J. Chem. Phys., 2017,
     147, 034112. DOI: 10.1063/1.4993215
   * E. Caldeweyher, S. Ehlert, A. Hansen, H. Neugebauer, S. Spicher,
     C. Bannwarth and S. Grimme, J. Chem. Phys., 2019, 150, 154122.
     DOI: 10.1063/1.5090222
   * E. Caldeweyher, J.-M. Mewes, S. Ehlert and S. Grimme, Phys. Chem. Chem. Phys.
     2020, 22, 8499-8512. DOI: 10.1039/D0CP00502A
   
   for sTDA-xTB:
   * S. Grimme and C. Bannwarth, J. Chem. Phys., 2016, 145, 054103.
     DOI: 10.1063/1.4959605
   
   in the mass-spec context:
   * V. Asgeirsson, C. Bauer and S. Grimme, Chem. Sci., 2017, 8, 4879.
     DOI: 10.1039/c7sc00601b
   * J. Koopman and S. Grimme, ACS Omega 2019, 4, 12, 15120-15133.
     DOI: 10.1021/acsomega.9b02011
   
   for metadynamics refer to:
   * S. Grimme, J. Chem. Theory Comput., 2019, 155, 2847-2862
     DOI: 10.1021/acs.jctc.9b00143
   
   for SPH calculations refer to:
   * S. Spicher and S. Grimme, J. Chem. Theory Comput., 2021, 17, 1701-1714
     DOI: 10.1021/acs.jctc.0c01306
   
   with help from (in alphabetical order)
   P. Atkinson, C. Bannwarth, F. Bohle, G. Brandenburg, E. Caldeweyher
   M. Checinski, S. Dohm, S. Ehlert, S. Ehrlich, I. Gerasimov, C. Hölzer
   A. Katbashev, J. Koopman, C. Lavigne, S. Lehtola, F. März, M. Müller,
   F. Musil, H. Neugebauer, J. Pisarek, C. Plett, P. Pracht, F. Pultar,
   J. Seibert, P. Shushkov, S. Spicher, M. Stahn, M. Steiner, T. Strunk,
   J. Stückrath, T. Rose, and J. Unsleber
   
 * started run on 2022/11/17 at 06:54:49.175     

           -------------------------------------------------
          |                Calculation Setup                |
           -------------------------------------------------

          program call               : xtb xtbopt.coord --gfn2 --sp --gbsa water
          hostname                   : cn0363
          coordinate file            : xtbopt.coord
          omp threads                :                     2

   ID    Z sym.   atoms
    1    8 o      1, 4, 7, 10, 13, 16, 19, 22, 25, 28, 31, 34, 37, 40, 43,
                  46, 49, 52, 55, 58, 61, 64, 67, 70, 73, 76, 79, 82, 85, 88,
                  91, 94, 97, 100, 103, 106, 109, 112, 115, 118, 121, 124,
                  127, 130, 133, 136, 139, 142, 145, 148, 151, 154, 157, 160,
                  163, 166, 169, 172, 175, 178, 181, 184, 187, 190, 193, 196,
                  199, 202, 205, 208, 211, 214, 217, 220, 223, 226, 229, 232,
                  235, 238, 241, 244, 247, 250, 253, 256, 259, 262, 265, 268,
                  271, 274, 277, 280, 283, 286, 289, 292, 295, 298, 301, 304,
                  307, 310, 313, 316, 319, 322, 325, 328, 331, 334, 337, 340,
                  343, 346, 349, 352, 355, 358, 361, 364, 367, 370, 373, 376,
                  379, 382, 385, 388, 391, 394, 397, 400, 403, 406, 409, 412,
                  415, 418, 421, 424, 427, 430, 433, 436, 439, 442, 445, 448,
                  451, 454, 457, 460, 463, 466, 469, 472, 475, 478, 481, 484,
                  487, 490, 493, 496, 499, 502, 505, 508, 511, 514, 517, 520,
                  523, 526, 529
    2    1 h      2, 3, 5, 6, 8, 9, 11, 12, 14, 15, 17, 18, 20, 21, 23, 24,
                  26, 27, 29, 30, 32, 33, 35, 36, 38, 39, 41, 42, 44, 45, 47,
                  48, 50, 51, 53, 54, 56, 57, 59, 60, 62, 63, 65, 66, 68, 69,
                  71, 72, 74, 75, 77, 78, 80, 81, 83, 84, 86, 87, 89, 90, 92,
                  93, 95, 96, 98, 99, 101, 102, 104, 105, 107, 108, 110, 111,
                  113, 114, 116, 117, 119, 120, 122, 123, 125, 126, 128, 129,
                  131, 132, 134, 135, 137, 138, 140, 141, 143, 144, 146, 147,
                  149, 150, 152, 153, 155, 156, 158, 159, 161, 162, 164, 165,
                  167, 168, 170, 171, 173, 174, 176, 177, 179, 180, 182, 183,
                  185, 186, 188, 189, 191, 192, 194, 195, 197, 198, 200, 201,
                  203, 204, 206, 207, 209, 210, 212, 213, 215, 216, 218, 219,
                  221, 222, 224, 225, 227, 228, 230, 231, 233, 234, 236, 237,
                  239, 240, 242, 243, 245, 246, 248, 249, 251, 252, 254, 255,
                  257, 258, 260, 261, 263, 264, 266, 267, 269, 270, 272, 273,
                  275, 276, 278, 279, 281, 282, 284, 285, 287, 288, 290, 291,
                  293, 294, 296, 297, 299, 300, 302, 303, 305, 306, 308, 309,
                  311, 312, 314, 315, 317, 318, 320, 321, 323, 324, 326, 327,
                  329, 330, 332, 333, 335, 336, 338, 339, 341, 342, 344, 345,
                  347, 348, 350, 351, 353, 354, 356, 357, 359, 360, 362, 363,
                  365, 366, 368, 369, 371, 372, 374, 375, 377, 378, 380, 381,
                  383, 384, 386, 387, 389, 390, 392, 393, 395, 396, 398, 399,
                  401, 402, 404, 405, 407, 408, 410, 411, 413, 414, 416, 417,
                  419, 420, 422, 423, 425, 426, 428, 429, 431, 432, 434, 435,
                  437, 438, 440, 441, 443, 444, 446, 447, 449, 450, 452, 453,
                  455, 456, 458, 459, 461, 462, 464, 465, 467, 468, 470, 471,
                  473, 474, 476, 477, 479, 480, 482, 483, 485, 486, 488, 489,
                  491, 492, 494, 495, 497, 498, 500, 501, 503, 504, 506, 507,
                  509, 510, 512, 513, 515, 516, 518, 519, 521, 522, 524, 525,
                  527, 528, 530, 531

molecular fragmentation (1/2 indicates fragments):
111222222222222222222222222222222222222222222222222222222222222222222222
222222222222222222222222222222222222222222222222222222222222222222222222
222222222222222222222222222222222222222222222222222222222222222222222222
222222222222222222222222222222222222222222222222222222222222222222222222
222222222222222222222222222222222222222222222222222222222222222222222222
222222222222222222222222222222222222222222222222222222222222222222222222
222222222222222222222222222222222222222222222222222222222222222222222222
222222222222222222222222222
# atoms in fragment 1/2:     3   528
 fragment masses (1/2) :       18.02     3170.69
CMA distance (Bohr)    :   7.708
constraining FC (au)   :  0.0500

           -------------------------------------------------
          |                 G F N 2 - x T B                 |
           -------------------------------------------------

        Reference                      10.1021/acs.jctc.8b01176
      * Hamiltonian:
        H0-scaling (s, p, d)           1.850000    2.230000    2.230000
        zeta-weighting                 0.500000
      * Dispersion:
        s8                             2.700000
        a1                             0.520000
        a2                             5.000000
        s9                             5.000000
      * Repulsion:
        kExp                           1.500000    1.000000
        rExp                           1.000000
      * Coulomb:
        alpha                          2.000000
        third order                    shell-resolved
        anisotropic                    true
        a3                             3.000000
        a5                             4.000000
        cn-shift                       1.200000
        cn-exp                         4.000000
        max-rad                        5.000000

      * Solvation model:               GBSA
        Solvent                        water
        Parameter file                 internal GFN2-xTB/GBSA
        Dielectric constant                8.0200E+01
        Reference state                gsolv [1 M gas/solution]
        Free energy shift                  1.8574E-03 Eh       1.1656E+00 kcal/mol
        Temperature                        2.9815E+02 K
        Density                            1.0000E+00 kg/L
        Solvent mass                       1.8000E+01 g/mol
        Interaction kernel             Still
        Born radius scaling (c1)           1.5524E+00
        Born radii integrator          GBOBC
        Born offset                        2.4628E-02 a0       4.6540E-02 AA
        H-bond correction              true
        Ion screening                  false
        Surface tension                    1.0000E-05 Eh       1.5569E+01 dyn/cm
        Grid points                               230 per atom

          ...................................................
          :                      SETUP                      :
          :.................................................:
          :  # basis functions                1062          :
          :  # atomic orbitals                1062          :
          :  # shells                          708          :
          :  # electrons                      1416          :
          :  max. iterations                   250          :
          :  Hamiltonian                  GFN2-xTB          :
          :  restarted?                      false          :
          :  GBSA solvation                   true          :
          :  PC potential                    false          :
          :  electronic temp.          300.0000000     K    :
          :  accuracy                    1.0000000          :
          :  -> integral cutoff          0.2500000E+02      :
          :  -> integral neglect         0.1000000E-07      :
          :  -> SCF convergence          0.1000000E-05 Eh   :
          :  -> wf. convergence          0.1000000E-03 e    :
          :  Broyden damping             0.4000000          :
          ...................................................

 iter      E             dE          RMSdq      gap      omega  full diag
   1   -906.7902208 -0.906790E+03  0.408E+00    8.59       0.0  T
   2   -906.8497595 -0.595388E-01  0.241E+00    8.27       1.0  T
   3   -906.8752270 -0.254674E-01  0.227E-01    7.51       1.0  T
   4   -906.8790474 -0.382039E-02  0.507E-02    7.69       1.0  T
   5   -906.8792007 -0.153313E-03  0.316E-02    7.64       1.0  T
   6   -906.8792343 -0.336008E-04  0.327E-03    7.65       1.3  T
   7   -906.8792351 -0.866433E-06  0.835E-04    7.65       5.2  T
   8   -906.8792352 -0.382798E-07  0.451E-04    7.65       9.6  T

   *** convergence criteria satisfied after 8 iterations ***

         #    Occupation            Energy/Eh            Energy/eV
      -------------------------------------------------------------
         1        2.0000           -0.6564070             -17.8617
       ...           ...                  ...                  ...
       702        2.0000           -0.3521809              -9.5833
       703        2.0000           -0.3464110              -9.4263
       704        2.0000           -0.3454167              -9.3993
       705        2.0000           -0.3444604              -9.3732
       706        2.0000           -0.3432606              -9.3406
       707        2.0000           -0.3344572              -9.1010
       708        2.0000           -0.3323755              -9.0444 (HOMO)
       709                         -0.0513464              -1.3972 (LUMO)
       710                         -0.0443422              -1.2066
       711                         -0.0303678              -0.8263
       712                         -0.0241920              -0.6583
       713                         -0.0180582              -0.4914
       ...                                ...                  ...
      1062                          0.4820463              13.1171
      -------------------------------------------------------------
                  HL-Gap            0.2810291 Eh            7.6472 eV
             Fermi-level           -0.1918610 Eh           -5.2208 eV

 SCC (total)                   0 d,  0 h,  0 min,  8.374 sec
 SCC setup                      ...        0 min,  0.077 sec (  0.914%)
 Dispersion                     ...        0 min,  0.073 sec (  0.869%)
 classical contributions        ...        0 min,  0.026 sec (  0.310%)
 integral evaluation            ...        0 min,  0.404 sec (  4.827%)
 iterations                     ...        0 min,  2.902 sec ( 34.654%)
 molecular gradient             ...        0 min,  4.865 sec ( 58.099%)
 printout                       ...        0 min,  0.027 sec (  0.326%)

         :::::::::::::::::::::::::::::::::::::::::::::::::::::
         ::                     SUMMARY                     ::
         :::::::::::::::::::::::::::::::::::::::::::::::::::::
         :: total energy            -901.414823295433 Eh    ::
         :: total w/o Gsasa/hb      -901.217792940552 Eh    ::
         :: gradient norm              0.103333869615 Eh/a0 ::
         :: HOMO-LUMO gap              7.647190494608 eV    ::
         ::.................................................::
         :: SCC energy              -906.879235171574 Eh    ::
         :: -> isotropic ES            5.255163255699 Eh    ::
         :: -> anisotropic ES         -1.126475840046 Eh    ::
         :: -> anisotropic XC         -0.086679296175 Eh    ::
         :: -> dispersion             -0.533548007245 Eh    ::
         :: -> Gsolv                  -0.221513508307 Eh    ::
         ::    -> Gelec               -0.024483153427 Eh    ::
         ::    -> Gsasa                0.002987019404 Eh    ::
         ::    -> Ghb                 -0.201874817411 Eh    ::
         ::    -> Gshift               0.001857443127 Eh    ::
         :: repulsion energy           5.370444165753 Eh    ::
         :: add. restraining           0.000000000000 Eh    ::
         :: total charge               0.000000000000 e     ::
         :::::::::::::::::::::::::::::::::::::::::::::::::::::

           -------------------------------------------------
          |                Property Printout                |
           -------------------------------------------------

    * Orbital Energies and Occupations

         #    Occupation            Energy/Eh            Energy/eV
      -------------------------------------------------------------
         1        2.0000           -0.6564070             -17.8617
       ...           ...                  ...                  ...
       696        2.0000           -0.3581909              -9.7469
       697        2.0000           -0.3577660              -9.7353
       698        2.0000           -0.3568025              -9.7091
       699        2.0000           -0.3547970              -9.6545
       700        2.0000           -0.3544319              -9.6446
       701        2.0000           -0.3537924              -9.6272
       702        2.0000           -0.3521809              -9.5833
       703        2.0000           -0.3464110              -9.4263
       704        2.0000           -0.3454167              -9.3993
       705        2.0000           -0.3444604              -9.3732
       706        2.0000           -0.3432606              -9.3406
       707        2.0000           -0.3344572              -9.1010
       708        2.0000           -0.3323755              -9.0444 (HOMO)
       709                         -0.0513464              -1.3972 (LUMO)
       710                         -0.0443422              -1.2066
       711                         -0.0303678              -0.8263
       712                         -0.0241920              -0.6583
       713                         -0.0180582              -0.4914
       714                         -0.0142609              -0.3881
       715                         -0.0088171              -0.2399
       716                         -0.0039227              -0.1067
       717                          0.0060592               0.1649
       718                          0.0094250               0.2565
       719                          0.0114032               0.3103
       ...                                ...                  ...
      1062                          0.4820463              13.1171
      -------------------------------------------------------------
                  HL-Gap            0.2810291 Eh            7.6472 eV
             Fermi-level           -0.1918610 Eh           -5.2208 eV

     #   Z          covCN         q      C6AA      α(0)
     1   8 o        1.607    -0.673    27.001     7.013
     2   1 h        0.804     0.332     0.633     1.249
     3   1 h        0.803     0.329     0.639     1.256
     4   8 o        1.608    -0.674    27.034     7.017
     5   1 h        0.805     0.334     0.626     1.243
     6   1 h        0.803     0.319     0.667     1.283
     7   8 o        1.607    -0.682    27.229     7.043
     8   1 h        0.804     0.345     0.600     1.217
     9   1 h        0.803     0.356     0.575     1.191
    10   8 o        1.608    -0.682    27.247     7.045
    11   1 h        0.804     0.347     0.595     1.212
    12   1 h        0.805     0.341     0.610     1.227
    13   8 o        1.608    -0.682    27.243     7.044
    14   1 h        0.805     0.331     0.636     1.253
    15   1 h        0.803     0.347     0.596     1.212
    16   8 o        1.605    -0.677    27.104     7.026
    17   1 h        0.803     0.335     0.625     1.242
    18   1 h        0.803     0.331     0.636     1.252
    19   8 o        1.608    -0.664    26.782     6.985
    20   1 h        0.804     0.341     0.610     1.226
    21   1 h        0.804     0.327     0.644     1.261
    22   8 o        1.607    -0.686    27.347     7.058
    23   1 h        0.803     0.334     0.628     1.245
    24   1 h        0.804     0.335     0.626     1.242
    25   8 o        1.609    -0.657    26.585     6.959
    26   1 h        0.805     0.332     0.633     1.249
    27   1 h        0.804     0.336     0.621     1.238
    28   8 o        1.607    -0.670    26.938     7.005
    29   1 h        0.803     0.353     0.583     1.199
    30   1 h        0.804     0.342     0.608     1.225
    31   8 o        1.606    -0.703    27.804     7.117
    32   1 h        0.803     0.337     0.621     1.238
    33   1 h        0.803     0.344     0.604     1.221
    34   8 o        1.608    -0.686    27.336     7.056
    35   1 h        0.804     0.320     0.664     1.280
    36   1 h        0.804     0.340     0.612     1.229
    37   8 o        1.606    -0.706    27.866     7.124
    38   1 h        0.803     0.350     0.590     1.206
    39   1 h        0.803     0.358     0.570     1.186
    40   8 o        1.607    -0.683    27.252     7.046
    41   1 h        0.803     0.360     0.565     1.181
    42   1 h        0.804     0.333     0.631     1.247
    43   8 o        1.608    -0.677    27.103     7.026
    44   1 h        0.802     0.358     0.569     1.185
    45   1 h        0.804     0.329     0.639     1.256
    46   8 o        1.608    -0.666    26.824     6.990
    47   1 h        0.803     0.365     0.556     1.171
    48   1 h        0.805     0.313     0.684     1.299
    49   8 o        1.607    -0.686    27.345     7.058
    50   1 h        0.803     0.349     0.590     1.207
    51   1 h        0.804     0.344     0.603     1.220
    52   8 o        1.614    -0.673    26.992     7.012
    53   1 h        0.804     0.339     0.616     1.233
    54   1 h        0.805     0.333     0.629     1.245
    55   8 o        1.609    -0.675    27.060     7.021
    56   1 h        0.805     0.336     0.621     1.238
    57   1 h        0.804     0.341     0.610     1.227
    58   8 o        1.606    -0.688    27.405     7.065
    59   1 h        0.803     0.343     0.604     1.221
    60   1 h        0.803     0.356     0.575     1.191
    61   8 o        1.607    -0.703    27.800     7.116
    62   1 h        0.804     0.323     0.655     1.271
    63   1 h        0.803     0.355     0.576     1.192
    64   8 o        1.606    -0.676    27.075     7.023
    65   1 h        0.803     0.335     0.626     1.243
    66   1 h        0.803     0.348     0.592     1.209
    67   8 o        1.608    -0.679    27.156     7.033
    68   1 h        0.803     0.359     0.568     1.184
    69   1 h        0.805     0.330     0.638     1.255
    70   8 o        1.606    -0.689    27.423     7.068
    71   1 h        0.803     0.353     0.583     1.199
    72   1 h        0.803     0.343     0.604     1.221
    73   8 o        1.607    -0.690    27.442     7.070
    74   1 h        0.804     0.341     0.611     1.228
    75   1 h        0.804     0.348     0.594     1.211
    76   8 o        1.607    -0.690    27.438     7.070
    77   1 h        0.803     0.333     0.630     1.247
    78   1 h        0.803     0.338     0.617     1.234
    79   8 o        1.607    -0.684    27.283     7.050
    80   1 h        0.803     0.353     0.581     1.197
    81   1 h        0.803     0.320     0.663     1.279
    82   8 o        1.607    -0.688    27.398     7.065
    83   1 h        0.805     0.318     0.670     1.285
    84   1 h        0.802     0.357     0.573     1.189
    85   8 o        1.607    -0.674    27.035     7.018
    86   1 h        0.802     0.350     0.588     1.204
    87   1 h        0.805     0.324     0.653     1.270
    88   8 o        1.610    -0.651    26.447     6.941
    89   1 h        0.805     0.332     0.632     1.249
    90   1 h        0.805     0.346     0.597     1.213
    91   8 o        1.607    -0.683    27.267     7.048
    92   1 h        0.803     0.354     0.579     1.196
    93   1 h        0.804     0.322     0.657     1.273
    94   8 o        1.606    -0.658    26.626     6.964
    95   1 h        0.801     0.355     0.577     1.193
    96   1 h        0.805     0.316     0.673     1.289
    97   8 o        1.608    -0.699    27.681     7.101
    98   1 h        0.803     0.347     0.596     1.213
    99   1 h        0.805     0.354     0.580     1.196
   100   8 o        1.608    -0.672    26.967     7.009
   101   1 h        0.805     0.307     0.700     1.314
   102   1 h        0.802     0.352     0.584     1.201
   103   8 o        1.609    -0.673    26.991     7.012
   104   1 h        0.804     0.348     0.592     1.209
   105   1 h        0.805     0.331     0.633     1.250
   106   8 o        1.607    -0.686    27.342     7.057
   107   1 h        0.804     0.333     0.629     1.246
   108   1 h        0.803     0.331     0.635     1.252
   109   8 o        1.608    -0.690    27.455     7.072
   110   1 h        0.803     0.347     0.594     1.211
   111   1 h        0.804     0.356     0.575     1.191
   112   8 o        1.608    -0.678    27.121     7.029
   113   1 h        0.803     0.347     0.595     1.211
   114   1 h        0.805     0.335     0.624     1.241
   115   8 o        1.607    -0.691    27.472     7.074
   116   1 h        0.803     0.341     0.610     1.227
   117   1 h        0.803     0.356     0.574     1.190
   118   8 o        1.609    -0.689    27.416     7.067
   119   1 h        0.804     0.345     0.600     1.217
   120   1 h        0.804     0.341     0.610     1.227
   121   8 o        1.607    -0.675    27.048     7.019
   122   1 h        0.803     0.352     0.583     1.200
   123   1 h        0.804     0.324     0.653     1.269
   124   8 o        1.606    -0.689    27.431     7.069
   125   1 h        0.804     0.324     0.653     1.270
   126   1 h        0.802     0.356     0.575     1.191
   127   8 o        1.608    -0.687    27.380     7.062
   128   1 h        0.805     0.322     0.659     1.275
   129   1 h        0.803     0.350     0.588     1.204
   130   8 o        1.608    -0.674    27.041     7.018
   131   1 h        0.804     0.348     0.593     1.210
   132   1 h        0.804     0.318     0.670     1.286
   133   8 o        1.607    -0.680    27.196     7.038
   134   1 h        0.803     0.336     0.623     1.240
   135   1 h        0.803     0.356     0.574     1.190
   136   8 o        1.607    -0.685    27.308     7.053
   137   1 h        0.803     0.337     0.620     1.237
   138   1 h        0.804     0.327     0.645     1.262
   139   8 o        1.607    -0.679    27.170     7.035
   140   1 h        0.803     0.343     0.606     1.223
   141   1 h        0.803     0.337     0.620     1.237
   142   8 o        1.608    -0.675    27.062     7.021
   143   1 h        0.804     0.354     0.580     1.196
   144   1 h        0.804     0.334     0.628     1.245
   145   8 o        1.608    -0.668    26.881     6.998
   146   1 h        0.804     0.329     0.639     1.256
   147   1 h        0.804     0.334     0.628     1.245
   148   8 o        1.608    -0.680    27.189     7.037
   149   1 h        0.803     0.341     0.611     1.228
   150   1 h        0.804     0.330     0.637     1.253
   151   8 o        1.608    -0.667    26.843     6.993
   152   1 h        0.804     0.341     0.610     1.227
   153   1 h        0.805     0.333     0.630     1.247
   154   8 o        1.608    -0.681    27.218     7.041
   155   1 h        0.803     0.345     0.600     1.217
   156   1 h        0.805     0.323     0.655     1.271
   157   8 o        1.607    -0.680    27.192     7.038
   158   1 h        0.803     0.324     0.653     1.270
   159   1 h        0.804     0.350     0.588     1.204
   160   8 o        1.606    -0.693    27.529     7.081
   161   1 h        0.803     0.343     0.604     1.221
   162   1 h        0.803     0.352     0.583     1.199
   163   8 o        1.608    -0.677    27.118     7.028
   164   1 h        0.805     0.327     0.645     1.262
   165   1 h        0.803     0.347     0.595     1.212
   166   8 o        1.606    -0.656    26.576     6.958
   167   1 h        0.802     0.334     0.628     1.244
   168   1 h        0.803     0.333     0.629     1.246
   169   8 o        1.609    -0.658    26.608     6.962
   170   1 h        0.803     0.349     0.591     1.208
   171   1 h        0.806     0.312     0.686     1.301
   172   8 o        1.609    -0.664    26.761     6.982
   173   1 h        0.805     0.327     0.646     1.263
   174   1 h        0.805     0.335     0.624     1.240
   175   8 o        1.607    -0.693    27.514     7.079
   176   1 h        0.804     0.327     0.644     1.261
   177   1 h        0.803     0.342     0.606     1.223
   178   8 o        1.606    -0.662    26.720     6.976
   179   1 h        0.805     0.311     0.688     1.303
   180   1 h        0.802     0.365     0.555     1.171
   181   8 o        1.607    -0.690    27.440     7.070
   182   1 h        0.804     0.330     0.638     1.254
   183   1 h        0.804     0.349     0.591     1.208
   184   8 o        1.608    -0.661    26.707     6.975
   185   1 h        0.803     0.356     0.574     1.190
   186   1 h        0.805     0.319     0.668     1.284
   187   8 o        1.607    -0.673    27.016     7.015
   188   1 h        0.803     0.337     0.620     1.237
   189   1 h        0.804     0.332     0.631     1.248
   190   8 o        1.608    -0.671    26.939     7.005
   191   1 h        0.804     0.362     0.561     1.176
   192   1 h        0.804     0.341     0.610     1.227
   193   8 o        1.607    -0.677    27.109     7.027
   194   1 h        0.803     0.353     0.582     1.199
   195   1 h        0.804     0.339     0.615     1.232
   196   8 o        1.607    -0.668    26.873     6.996
   197   1 h        0.805     0.323     0.656     1.272
   198   1 h        0.802     0.342     0.608     1.225
   199   8 o        1.607    -0.676    27.091     7.025
   200   1 h        0.804     0.352     0.585     1.201
   201   1 h        0.803     0.337     0.620     1.237
   202   8 o        1.608    -0.663    26.747     6.980
   203   1 h        0.804     0.323     0.655     1.271
   204   1 h        0.804     0.333     0.629     1.246
   205   8 o        1.609    -0.662    26.727     6.978
   206   1 h        0.805     0.330     0.637     1.253
   207   1 h        0.804     0.342     0.607     1.224
   208   8 o        1.607    -0.671    26.959     7.008
   209   1 h        0.803     0.336     0.621     1.238
   210   1 h        0.805     0.324     0.653     1.269
   211   8 o        1.609    -0.661    26.693     6.973
   212   1 h        0.805     0.325     0.651     1.268
   213   1 h        0.804     0.341     0.611     1.228
   214   8 o        1.609    -0.649    26.394     6.934
   215   1 h        0.805     0.330     0.638     1.255
   216   1 h        0.804     0.324     0.653     1.269
   217   8 o        1.605    -0.697    27.644     7.096
   218   1 h        0.803     0.340     0.612     1.229
   219   1 h        0.803     0.339     0.615     1.232
   220   8 o        1.607    -0.675    27.047     7.019
   221   1 h        0.805     0.315     0.677     1.292
   222   1 h        0.802     0.364     0.558     1.173
   223   8 o        1.609    -0.672    26.966     7.009
   224   1 h        0.805     0.350     0.589     1.205
   225   1 h        0.804     0.330     0.637     1.253
   226   8 o        1.607    -0.659    26.645     6.967
   227   1 h        0.804     0.341     0.610     1.227
   228   1 h        0.803     0.333     0.629     1.246
   229   8 o        1.608    -0.679    27.149     7.032
   230   1 h        0.805     0.324     0.653     1.269
   231   1 h        0.803     0.352     0.585     1.201
   232   8 o        1.609    -0.675    27.066     7.022
   233   1 h        0.804     0.337     0.620     1.237
   234   1 h        0.804     0.334     0.628     1.245
   235   8 o        1.605    -0.682    27.240     7.044
   236   1 h        0.802     0.362     0.561     1.176
   237   1 h        0.803     0.334     0.629     1.245
   238   8 o        1.606    -0.679    27.160     7.034
   239   1 h        0.803     0.352     0.583     1.200
   240   1 h        0.803     0.334     0.628     1.245
   241   8 o        1.607    -0.676    27.088     7.024
   242   1 h        0.805     0.317     0.672     1.287
   243   1 h        0.802     0.357     0.571     1.188
   244   8 o        1.606    -0.686    27.332     7.056
   245   1 h        0.805     0.322     0.658     1.274
   246   1 h        0.802     0.361     0.563     1.179
   247   8 o        1.608    -0.686    27.338     7.057
   248   1 h        0.805     0.333     0.630     1.247
   249   1 h        0.803     0.349     0.592     1.208
   250   8 o        1.608    -0.666    26.818     6.989
   251   1 h        0.804     0.342     0.607     1.224
   252   1 h        0.804     0.350     0.589     1.206
   253   8 o        1.609    -0.663    26.754     6.981
   254   1 h        0.804     0.338     0.616     1.233
   255   1 h        0.805     0.333     0.631     1.248
   256   8 o        1.609    -0.669    26.906     7.001
   257   1 h        0.804     0.330     0.637     1.254
   258   1 h        0.804     0.329     0.640     1.256
   259   8 o        1.607    -0.659    26.657     6.968
   260   1 h        0.804     0.340     0.611     1.228
   261   1 h        0.803     0.337     0.619     1.236
   262   8 o        1.608    -0.675    27.048     7.019
   263   1 h        0.802     0.360     0.565     1.181
   264   1 h        0.805     0.316     0.675     1.290
   265   8 o        1.608    -0.681    27.210     7.040
   266   1 h        0.805     0.326     0.647     1.263
   267   1 h        0.804     0.354     0.578     1.195
   268   8 o        1.607    -0.691    27.477     7.075
   269   1 h        0.804     0.334     0.627     1.244
   270   1 h        0.803     0.349     0.591     1.207
   271   8 o        1.609    -0.671    26.960     7.008
   272   1 h        0.804     0.336     0.621     1.238
   273   1 h        0.804     0.331     0.635     1.252
   274   8 o        1.609    -0.668    26.869     6.996
   275   1 h        0.804     0.334     0.627     1.243
   276   1 h        0.804     0.340     0.612     1.229
   277   8 o        1.607    -0.678    27.137     7.031
   278   1 h        0.803     0.354     0.580     1.196
   279   1 h        0.805     0.318     0.670     1.286
   280   8 o        1.609    -0.647    26.331     6.926
   281   1 h        0.804     0.339     0.615     1.232
   282   1 h        0.805     0.317     0.672     1.287
   283   8 o        1.610    -0.658    26.605     6.962
   284   1 h        0.805     0.338     0.617     1.234
   285   1 h        0.805     0.339     0.615     1.232
   286   8 o        1.608    -0.685    27.319     7.054
   287   1 h        0.803     0.352     0.584     1.200
   288   1 h        0.804     0.321     0.662     1.278
   289   8 o        1.608    -0.683    27.261     7.047
   290   1 h        0.804     0.330     0.639     1.255
   291   1 h        0.804     0.345     0.600     1.217
   292   8 o        1.607    -0.679    27.164     7.034
   293   1 h        0.802     0.357     0.572     1.188
   294   1 h        0.805     0.314     0.681     1.296
   295   8 o        1.607    -0.672    26.984     7.011
   296   1 h        0.805     0.331     0.635     1.251
   297   1 h        0.802     0.345     0.599     1.216
   298   8 o        1.606    -0.668    26.885     6.998
   299   1 h        0.801     0.354     0.580     1.197
   300   1 h        0.806     0.317     0.671     1.287
   301   8 o        1.607    -0.650    26.425     6.938
   302   1 h        0.806     0.316     0.675     1.291
   303   1 h        0.802     0.347     0.594     1.211
   304   8 o        1.607    -0.671    26.950     7.007
   305   1 h        0.806     0.313     0.683     1.298
   306   1 h        0.802     0.352     0.584     1.201
   307   8 o        1.606    -0.665    26.799     6.987
   308   1 h        0.806     0.309     0.694     1.308
   309   1 h        0.801     0.343     0.604     1.221
   310   8 o        1.608    -0.672    26.975     7.010
   311   1 h        0.804     0.337     0.620     1.237
   312   1 h        0.803     0.344     0.603     1.220
   313   8 o        1.608    -0.688    27.402     7.065
   314   1 h        0.803     0.342     0.607     1.224
   315   1 h        0.804     0.335     0.625     1.242
   316   8 o        1.609    -0.660    26.661     6.969
   317   1 h        0.804     0.339     0.616     1.232
   318   1 h        0.804     0.335     0.625     1.242
   319   8 o        1.609    -0.654    26.505     6.948
   320   1 h        0.806     0.313     0.682     1.297
   321   1 h        0.803     0.353     0.582     1.199
   322   8 o        1.606    -0.685    27.313     7.053
   323   1 h        0.802     0.335     0.625     1.242
   324   1 h        0.804     0.327     0.645     1.262
   325   8 o        1.608    -0.663    26.757     6.981
   326   1 h        0.803     0.364     0.556     1.171
   327   1 h        0.804     0.338     0.617     1.234
   328   8 o        1.605    -0.696    27.618     7.093
   329   1 h        0.802     0.354     0.579     1.195
   330   1 h        0.803     0.332     0.632     1.248
   331   8 o        1.606    -0.672    26.969     7.009
   332   1 h        0.803     0.347     0.595     1.211
   333   1 h        0.804     0.330     0.637     1.253
   334   8 o        1.607    -0.684    27.290     7.051
   335   1 h        0.804     0.338     0.618     1.234
   336   1 h        0.803     0.333     0.631     1.248
   337   8 o        1.608    -0.664    26.768     6.983
   338   1 h        0.803     0.336     0.623     1.240
   339   1 h        0.805     0.328     0.643     1.260
   340   8 o        1.608    -0.662    26.717     6.976
   341   1 h        0.804     0.329     0.639     1.256
   342   1 h        0.805     0.328     0.641     1.258
   343   8 o        1.608    -0.661    26.690     6.973
   344   1 h        0.804     0.329     0.640     1.257
   345   1 h        0.804     0.345     0.599     1.216
   346   8 o        1.608    -0.676    27.075     7.023
   347   1 h        0.803     0.333     0.631     1.248
   348   1 h        0.805     0.325     0.650     1.266
   349   8 o        1.607    -0.682    27.243     7.044
   350   1 h        0.803     0.346     0.598     1.215
   351   1 h        0.804     0.345     0.599     1.216
   352   8 o        1.609    -0.665    26.797     6.987
   353   1 h        0.804     0.330     0.637     1.254
   354   1 h        0.805     0.332     0.633     1.249
   355   8 o        1.609    -0.666    26.813     6.989
   356   1 h        0.804     0.341     0.609     1.226
   357   1 h        0.804     0.330     0.637     1.253
   358   8 o        1.608    -0.667    26.836     6.992
   359   1 h        0.804     0.336     0.622     1.239
   360   1 h        0.804     0.343     0.606     1.223
   361   8 o        1.609    -0.662    26.722     6.977
   362   1 h        0.805     0.329     0.640     1.257
   363   1 h        0.804     0.345     0.601     1.218
   364   8 o        1.608    -0.673    27.002     7.013
   365   1 h        0.804     0.352     0.584     1.201
   366   1 h        0.804     0.333     0.630     1.247
   367   8 o        1.606    -0.669    26.909     7.001
   368   1 h        0.803     0.326     0.647     1.264
   369   1 h        0.802     0.333     0.630     1.247
   370   8 o        1.609    -0.645    26.298     6.921
   371   1 h        0.804     0.347     0.597     1.213
   372   1 h        0.806     0.324     0.653     1.269
   373   8 o        1.607    -0.693    27.532     7.082
   374   1 h        0.803     0.343     0.605     1.222
   375   1 h        0.803     0.357     0.572     1.188
   376   8 o        1.608    -0.655    26.544     6.953
   377   1 h        0.803     0.345     0.601     1.217
   378   1 h        0.806     0.318     0.670     1.286
   379   8 o        1.608    -0.667    26.845     6.993
   380   1 h        0.803     0.340     0.612     1.229
   381   1 h        0.806     0.314     0.680     1.295
   382   8 o        1.608    -0.674    27.020     7.016
   383   1 h        0.804     0.350     0.589     1.205
   384   1 h        0.804     0.335     0.625     1.242
   385   8 o        1.607    -0.695    27.571     7.087
   386   1 h        0.804     0.325     0.650     1.267
   387   1 h        0.804     0.348     0.593     1.210
   388   8 o        1.606    -0.688    27.383     7.062
   389   1 h        0.803     0.343     0.606     1.223
   390   1 h        0.803     0.319     0.668     1.284
   391   8 o        1.610    -0.632    25.953     6.876
   392   1 h        0.804     0.333     0.631     1.247
   393   1 h        0.806     0.299     0.724     1.336
   394   8 o        1.607    -0.695    27.575     7.087
   395   1 h        0.804     0.349     0.591     1.208
   396   1 h        0.803     0.360     0.565     1.181
   397   8 o        1.609    -0.672    26.983     7.011
   398   1 h        0.805     0.321     0.661     1.277
   399   1 h        0.804     0.345     0.601     1.218
   400   8 o        1.607    -0.688    27.387     7.063
   401   1 h        0.804     0.338     0.617     1.234
   402   1 h        0.803     0.332     0.633     1.249
   403   8 o        1.604    -0.723    28.322     7.182
   404   1 h        0.806     0.355     0.575     1.191
   405   1 h        0.804     0.349     0.592     1.208
   406   8 o        1.607    -0.685    27.307     7.053
   407   1 h        0.802     0.355     0.576     1.192
   408   1 h        0.805     0.316     0.675     1.290
   409   8 o        1.609    -0.669    26.904     7.001
   410   1 h        0.803     0.355     0.578     1.194
   411   1 h        0.805     0.315     0.676     1.292
   412   8 o        1.609    -0.658    26.611     6.962
   413   1 h        0.805     0.339     0.614     1.231
   414   1 h        0.804     0.325     0.650     1.267
   415   8 o        1.605    -0.696    27.600     7.090
   416   1 h        0.801     0.363     0.559     1.175
   417   1 h        0.805     0.322     0.658     1.274
   418   8 o        1.608    -0.673    27.012     7.014
   419   1 h        0.805     0.337     0.618     1.235
   420   1 h        0.803     0.339     0.614     1.231
   421   8 o        1.609    -0.641    26.201     6.909
   422   1 h        0.806     0.317     0.672     1.288
   423   1 h        0.804     0.342     0.606     1.223
   424   8 o        1.609    -0.682    27.228     7.043
   425   1 h        0.805     0.324     0.654     1.270
   426   1 h        0.804     0.337     0.620     1.237
   427   8 o        1.606    -0.696    27.596     7.090
   428   1 h        0.803     0.336     0.623     1.240
   429   1 h        0.803     0.362     0.560     1.176
   430   8 o        1.609    -0.675    27.042     7.018
   431   1 h        0.805     0.312     0.687     1.302
   432   1 h        0.804     0.337     0.620     1.237
   433   8 o        1.606    -0.679    27.163     7.034
   434   1 h        0.805     0.322     0.659     1.275
   435   1 h        0.802     0.348     0.592     1.209
   436   8 o        1.606    -0.660    26.662     6.969
   437   1 h        0.804     0.333     0.629     1.246
   438   1 h        0.802     0.332     0.632     1.249
   439   8 o        1.609    -0.678    27.138     7.031
   440   1 h        0.804     0.343     0.604     1.221
   441   1 h        0.805     0.331     0.634     1.251
   442   8 o        1.608    -0.660    26.676     6.971
   443   1 h        0.803     0.342     0.608     1.225
   444   1 h        0.804     0.332     0.633     1.250
   445   8 o        1.606    -0.697    27.631     7.094
   446   1 h        0.803     0.357     0.573     1.189
   447   1 h        0.803     0.343     0.605     1.222
   448   8 o        1.609    -0.668    26.863     6.995
   449   1 h        0.804     0.328     0.642     1.258
   450   1 h        0.805     0.349     0.589     1.206
   451   8 o        1.605    -0.698    27.657     7.098
   452   1 h        0.802     0.356     0.574     1.191
   453   1 h        0.803     0.320     0.664     1.280
   454   8 o        1.607    -0.688    27.389     7.063
   455   1 h        0.802     0.359     0.568     1.184
   456   1 h        0.806     0.301     0.718     1.331
   457   8 o        1.608    -0.659    26.642     6.966
   458   1 h        0.805     0.328     0.643     1.259
   459   1 h        0.803     0.327     0.644     1.261
   460   8 o        1.607    -0.689    27.410     7.066
   461   1 h        0.803     0.359     0.567     1.183
   462   1 h        0.804     0.331     0.636     1.252
   463   8 o        1.607    -0.660    26.682     6.971
   464   1 h        0.804     0.330     0.637     1.254
   465   1 h        0.803     0.336     0.623     1.240
   466   8 o        1.609    -0.656    26.571     6.957
   467   1 h        0.804     0.346     0.597     1.213
   468   1 h        0.805     0.337     0.619     1.236
   469   8 o        1.607    -0.669    26.908     7.001
   470   1 h        0.802     0.354     0.580     1.196
   471   1 h        0.805     0.318     0.669     1.285
   472   8 o        1.609    -0.652    26.455     6.942
   473   1 h        0.806     0.315     0.678     1.294
   474   1 h        0.804     0.346     0.598     1.214
   475   8 o        1.608    -0.681    27.211     7.040
   476   1 h        0.802     0.364     0.558     1.173
   477   1 h        0.806     0.308     0.697     1.312
   478   8 o        1.606    -0.699    27.687     7.102
   479   1 h        0.804     0.359     0.567     1.183
   480   1 h        0.802     0.328     0.642     1.259
   481   8 o        1.609    -0.662    26.728     6.978
   482   1 h        0.804     0.347     0.596     1.212
   483   1 h        0.805     0.333     0.629     1.246
   484   8 o        1.606    -0.705    27.848     7.122
   485   1 h        0.803     0.342     0.608     1.225
   486   1 h        0.803     0.354     0.580     1.197
   487   8 o        1.609    -0.680    27.192     7.038
   488   1 h        0.805     0.332     0.632     1.249
   489   1 h        0.804     0.331     0.634     1.251
   490   8 o        1.607    -0.703    27.781     7.114
   491   1 h        0.803     0.341     0.609     1.226
   492   1 h        0.804     0.347     0.596     1.213
   493   8 o        1.608    -0.668    26.883     6.998
   494   1 h        0.805     0.320     0.665     1.281
   495   1 h        0.803     0.356     0.575     1.191
   496   8 o        1.610    -0.650    26.404     6.935
   497   1 h        0.805     0.321     0.661     1.277
   498   1 h        0.805     0.338     0.618     1.234
   499   8 o        1.608    -0.686    27.345     7.058
   500   1 h        0.804     0.345     0.601     1.218
   501   1 h        0.804     0.323     0.655     1.271
   502   8 o        1.610    -0.659    26.648     6.967
   503   1 h        0.805     0.335     0.624     1.241
   504   1 h        0.805     0.325     0.650     1.267
   505   8 o        1.608    -0.672    26.975     7.010
   506   1 h        0.804     0.352     0.583     1.199
   507   1 h        0.804     0.324     0.653     1.270
   508   8 o        1.609    -0.655    26.533     6.952
   509   1 h        0.806     0.315     0.678     1.293
   510   1 h        0.803     0.350     0.589     1.206
   511   8 o        1.608    -0.679    27.146     7.032
   512   1 h        0.803     0.340     0.612     1.228
   513   1 h        0.805     0.327     0.645     1.261
   514   8 o        1.608    -0.677    27.097     7.026
   515   1 h        0.804     0.339     0.615     1.232
   516   1 h        0.804     0.329     0.639     1.256
   517   8 o        1.607    -0.687    27.372     7.061
   518   1 h        0.802     0.354     0.580     1.196
   519   1 h        0.804     0.330     0.637     1.253
   520   8 o        1.608    -0.654    26.515     6.950
   521   1 h        0.804     0.355     0.578     1.194
   522   1 h        0.804     0.332     0.631     1.248
   523   8 o        1.608    -0.695    27.582     7.088
   524   1 h        0.803     0.357     0.571     1.187
   525   1 h        0.804     0.323     0.655     1.271
   526   8 o        1.611    -0.634    26.004     6.882
   527   1 h        0.806     0.324     0.653     1.269
   528   1 h        0.805     0.327     0.646     1.262
   529   8 o        1.609    -0.664    26.768     6.983
   530   1 h        0.805     0.329     0.641     1.257
   531   1 h        0.804     0.338     0.617     1.234

 Mol. C6AA /au·bohr⁶  :    1428590.397434
 Mol. C8AA /au·bohr⁸  :   25906132.348846
 Mol. α(0) /au        :       1680.131674


Wiberg/Mayer (AO) data.
largest (>0.10) Wiberg bond orders for each atom

 ---------------------------------------------------------------------------
     #   Z sym  total        # sym  WBO       # sym  WBO       # sym  WBO
 ---------------------------------------------------------------------------
     1   8 o    1.841 --     2 h    0.853     3 h    0.826
     2   1 h    0.890 --     1 o    0.853
     3   1 h    0.892 --     1 o    0.826
     4   8 o    1.813 --     5 h    0.850     6 h    0.835
     5   1 h    0.888 --     4 o    0.850
     6   1 h    0.898 --     4 o    0.835
     7   8 o    1.884 --     8 h    0.832     9 h    0.800
     8   1 h    0.881 --     7 o    0.832
     9   1 h    0.873 --     7 o    0.800
    10   8 o    1.866 --    12 h    0.833    11 h    0.791
    11   1 h    0.879 --    10 o    0.791
    12   1 h    0.884 --    10 o    0.833
    13   8 o    1.836 --    14 h    0.854    15 h    0.819
    14   1 h    0.891 --    13 o    0.854
    15   1 h    0.880 --    13 o    0.819
    16   8 o    1.885 --    17 h    0.814    18 h    0.812
    17   1 h    0.888 --    16 o    0.814
    18   1 h    0.891 --    16 o    0.812
    19   8 o    1.852 --    21 h    0.852    20 h    0.829
    20   1 h    0.884 --    19 o    0.829
    21   1 h    0.893 --    19 o    0.852
    22   8 o    1.843 --    24 h    0.822    23 h    0.816
    23   1 h    0.889 --    22 o    0.816
    24   1 h    0.888 --    22 o    0.822
    25   8 o    1.844 --    26 h    0.858    27 h    0.838
    26   1 h    0.890 --    25 o    0.858
    27   1 h    0.887 --    25 o    0.838
    28   8 o    1.901 --    30 h    0.837    29 h    0.797
    29   1 h    0.876 --    28 o    0.797
    30   1 h    0.883 --    28 o    0.837
    31   8 o    1.831 --    32 h    0.828    33 h    0.810
    32   1 h    0.887 --    31 o    0.828
    33   1 h    0.882 --    31 o    0.810
    34   8 o    1.802 --    35 h    0.841    36 h    0.823
    35   1 h    0.898 --    34 o    0.841
    36   1 h    0.884 --    34 o    0.823
    37   8 o    1.851 --    38 h    0.801    39 h    0.794
    38   1 h    0.878 --    37 o    0.801
    39   1 h    0.872 --    37 o    0.794
    40   8 o    1.866 --    42 h    0.830    41 h    0.797
    41   1 h    0.870 --    40 o    0.797
    42   1 h    0.889 --    40 o    0.830
    43   8 o    1.895 --    45 h    0.831    44 h    0.781
    44   1 h    0.871 --    43 o    0.781
    45   1 h    0.891 --    43 o    0.831
    46   8 o    1.846 --    48 h    0.891    47 h    0.806
    47   1 h    0.867 --    46 o    0.806
    48   1 h    0.902 --    46 o    0.891
    49   8 o    1.864 --    51 h    0.835    50 h    0.798
    50   1 h    0.878 --    49 o    0.798
    51   1 h    0.882 --    49 o    0.835
    52   8 o    1.848 --    54 h    0.835    53 h    0.818
    53   1 h    0.885 --    52 o    0.818
    54   1 h    0.889 --    52 o    0.835
    55   8 o    1.848 --    56 h    0.858    57 h    0.814
    56   1 h    0.887 --    55 o    0.858
    57   1 h    0.884 --    55 o    0.814
    58   8 o    1.866 --    59 h    0.818    60 h    0.799
    59   1 h    0.882 --    58 o    0.818
    60   1 h    0.873 --    58 o    0.799
    61   8 o    1.810 --    62 h    0.846    63 h    0.812
    62   1 h    0.895 --    61 o    0.846
    63   1 h    0.874 --    61 o    0.812
    64   8 o    1.890 --    65 h    0.822    66 h    0.804
    65   1 h    0.888 --    64 o    0.822
    66   1 h    0.879 --    64 o    0.804
    67   8 o    1.844 --    69 h    0.863    68 h    0.792
    68   1 h    0.871 --    67 o    0.792
    69   1 h    0.891 --    67 o    0.863
    70   8 o    1.873 --    72 h    0.824    71 h    0.789
    71   1 h    0.876 --    70 o    0.789
    72   1 h    0.882 --    70 o    0.824
    73   8 o    1.846 --    74 h    0.822    75 h    0.806
    74   1 h    0.884 --    73 o    0.822
    75   1 h    0.879 --    73 o    0.806
    76   8 o    1.832 --    78 h    0.826    77 h    0.826
    77   1 h    0.889 --    76 o    0.826
    78   1 h    0.886 --    76 o    0.826
    79   8 o    1.841 --    81 h    0.839    80 h    0.818
    80   1 h    0.875 --    79 o    0.818
    81   1 h    0.897 --    79 o    0.839
    82   8 o    1.818 --    83 h    0.874    84 h    0.801
    83   1 h    0.899 --    82 o    0.874
    84   1 h    0.873 --    82 o    0.801
    85   8 o    1.874 --    87 h    0.857    86 h    0.791
    86   1 h    0.877 --    85 o    0.791
    87   1 h    0.895 --    85 o    0.857
    88   8 o    1.849 --    89 h    0.874    90 h    0.848
    89   1 h    0.890 --    88 o    0.874
    90   1 h    0.880 --    88 o    0.848
    91   8 o    1.833 --    93 h    0.854    92 h    0.810
    92   1 h    0.875 --    91 o    0.810
    93   1 h    0.896 --    91 o    0.854
    94   8 o    1.864 --    96 h    0.888    95 h    0.785
    95   1 h    0.874 --    94 o    0.785
    96   1 h    0.900 --    94 o    0.888
    97   8 o    1.861 --    98 h    0.808    99 h    0.799
    98   1 h    0.880 --    97 o    0.808
    99   1 h    0.875 --    97 o    0.799
   100   8 o    1.815 --   101 h    0.896   102 h    0.800
   101   1 h    0.906 --   100 o    0.896
   102   1 h    0.876 --   100 o    0.800
   103   8 o    1.824 --   105 h    0.865   104 h    0.824
   104   1 h    0.879 --   103 o    0.824
   105   1 h    0.890 --   103 o    0.865
   106   8 o    1.826 --   108 h    0.828   107 h    0.825
   107   1 h    0.889 --   106 o    0.825
   108   1 h    0.890 --   106 o    0.828
   109   8 o    1.875 --   111 h    0.818   110 h    0.795
   110   1 h    0.879 --   109 o    0.795
   111   1 h    0.873 --   109 o    0.818
   112   8 o    1.843 --   114 h    0.844   113 h    0.811
   113   1 h    0.879 --   112 o    0.811
   114   1 h    0.888 --   112 o    0.844
   115   8 o    1.870 --   116 h    0.815   117 h    0.802
   116   1 h    0.884 --   115 o    0.815
   117   1 h    0.873 --   115 o    0.802
   118   8 o    1.849 --   120 h    0.823   119 h    0.820
   119   1 h    0.881 --   118 o    0.820
   120   1 h    0.884 --   118 o    0.823
   121   8 o    1.862 --   123 h    0.831   122 h    0.807
   122   1 h    0.876 --   121 o    0.807
   123   1 h    0.895 --   121 o    0.831
   124   8 o    1.853 --   125 h    0.843   126 h    0.790
   125   1 h    0.895 --   124 o    0.843
   126   1 h    0.873 --   124 o    0.790
   127   8 o    1.816 --   128 h    0.866   129 h    0.820
   128   1 h    0.896 --   127 o    0.866
   129   1 h    0.877 --   127 o    0.820
   130   8 o    1.842 --   132 h    0.850   131 h    0.813
   131   1 h    0.879 --   130 o    0.813
   132   1 h    0.899 --   130 o    0.850
   133   8 o    1.885 --   134 h    0.827   135 h    0.799
   134   1 h    0.887 --   133 o    0.827
   135   1 h    0.873 --   133 o    0.799
   136   8 o    1.820 --   138 h    0.845   137 h    0.823
   137   1 h    0.886 --   136 o    0.823
   138   1 h    0.893 --   136 o    0.845
   139   8 o    1.864 --   141 h    0.821   140 h    0.808
   140   1 h    0.883 --   139 o    0.808
   141   1 h    0.886 --   139 o    0.821
   142   8 o    1.857 --   144 h    0.836   143 h    0.819
   143   1 h    0.875 --   142 o    0.819
   144   1 h    0.889 --   142 o    0.836
   145   8 o    1.841 --   146 h    0.861   147 h    0.832
   146   1 h    0.891 --   145 o    0.861
   147   1 h    0.889 --   145 o    0.832
   148   8 o    1.834 --   150 h    0.851   149 h    0.821
   149   1 h    0.884 --   148 o    0.821
   150   1 h    0.891 --   148 o    0.851
   151   8 o    1.855 --   153 h    0.848   152 h    0.819
   152   1 h    0.884 --   151 o    0.819
   153   1 h    0.889 --   151 o    0.848
   154   8 o    1.807 --   156 h    0.869   155 h    0.822
   155   1 h    0.881 --   154 o    0.822
   156   1 h    0.895 --   154 o    0.869
   157   8 o    1.865 --   158 h    0.823   159 h    0.814
   158   1 h    0.895 --   157 o    0.823
   159   1 h    0.877 --   157 o    0.814
   160   8 o    1.868 --   162 h    0.812   161 h    0.800
   161   1 h    0.882 --   160 o    0.800
   162   1 h    0.876 --   160 o    0.812
   163   8 o    1.825 --   164 h    0.877   165 h    0.812
   164   1 h    0.893 --   163 o    0.877
   165   1 h    0.879 --   163 o    0.812
   166   8 o    1.907 --   168 h    0.830   167 h    0.813
   167   1 h    0.888 --   166 o    0.813
   168   1 h    0.889 --   166 o    0.830
   169   8 o    1.829 --   171 h    0.899   170 h    0.827
   170   1 h    0.878 --   169 o    0.827
   171   1 h    0.903 --   169 o    0.899
   172   8 o    1.814 --   173 h    0.863   174 h    0.862
   173   1 h    0.893 --   172 o    0.863
   174   1 h    0.887 --   172 o    0.862
   175   8 o    1.821 --   176 h    0.837   177 h    0.817
   176   1 h    0.893 --   175 o    0.837
   177   1 h    0.883 --   175 o    0.817
   178   8 o    1.873 --   179 h    0.885   180 h    0.775
   179   1 h    0.903 --   178 o    0.885
   180   1 h    0.867 --   178 o    0.775
   181   8 o    1.847 --   182 h    0.832   183 h    0.806
   182   1 h    0.891 --   181 o    0.832
   183   1 h    0.878 --   181 o    0.806
   184   8 o    1.855 --   186 h    0.881   185 h    0.807
   185   1 h    0.873 --   184 o    0.807
   186   1 h    0.898 --   184 o    0.881
   187   8 o    1.842 --   188 h    0.833   189 h    0.833
   188   1 h    0.886 --   187 o    0.833
   189   1 h    0.889 --   187 o    0.833
   190   8 o    1.881 --   192 h    0.841   191 h    0.809
   191   1 h    0.869 --   190 o    0.809
   192   1 h    0.884 --   190 o    0.841
   193   8 o    1.879 --   195 h    0.835   194 h    0.803
   194   1 h    0.876 --   193 o    0.803
   195   1 h    0.885 --   193 o    0.835
   196   8 o    1.839 --   197 h    0.879   198 h    0.807
   197   1 h    0.896 --   196 o    0.879
   198   1 h    0.883 --   196 o    0.807
   199   8 o    1.878 --   201 h    0.822   200 h    0.816
   200   1 h    0.876 --   199 o    0.816
   201   1 h    0.886 --   199 o    0.822
   202   8 o    1.845 --   203 h    0.844   204 h    0.839
   203   1 h    0.895 --   202 o    0.844
   204   1 h    0.889 --   202 o    0.839
   205   8 o    1.841 --   206 h    0.863   207 h    0.843
   206   1 h    0.891 --   205 o    0.863
   207   1 h    0.883 --   205 o    0.843
   208   8 o    1.838 --   210 h    0.857   209 h    0.812
   209   1 h    0.887 --   208 o    0.812
   210   1 h    0.895 --   208 o    0.857
   211   8 o    1.830 --   212 h    0.886   213 h    0.832
   212   1 h    0.895 --   211 o    0.886
   213   1 h    0.884 --   211 o    0.832
   214   8 o    1.856 --   215 h    0.862   216 h    0.844
   215   1 h    0.891 --   214 o    0.862
   216   1 h    0.895 --   214 o    0.844
   217   8 o    1.860 --   218 h    0.807   219 h    0.792
   218   1 h    0.884 --   217 o    0.807
   219   1 h    0.885 --   217 o    0.792
   220   8 o    1.844 --   221 h    0.886   222 h    0.783
   221   1 h    0.901 --   220 o    0.886
   222   1 h    0.868 --   220 o    0.783
   223   8 o    1.840 --   224 h    0.846   225 h    0.845
   224   1 h    0.878 --   223 o    0.846
   225   1 h    0.891 --   223 o    0.845
   226   8 o    1.899 --   227 h    0.828   228 h    0.823
   227   1 h    0.884 --   226 o    0.828
   228   1 h    0.889 --   226 o    0.823
   229   8 o    1.842 --   230 h    0.841   231 h    0.808
   230   1 h    0.895 --   229 o    0.841
   231   1 h    0.876 --   229 o    0.808
   232   8 o    1.827 --   233 h    0.856   234 h    0.847
   233   1 h    0.887 --   232 o    0.856
   234   1 h    0.889 --   232 o    0.847
   235   8 o    1.892 --   237 h    0.835   236 h    0.783
   236   1 h    0.869 --   235 o    0.783
   237   1 h    0.889 --   235 o    0.835
   238   8 o    1.877 --   240 h    0.829   239 h    0.795
   239   1 h    0.876 --   238 o    0.795
   240   1 h    0.889 --   238 o    0.829
   241   8 o    1.832 --   242 h    0.888   243 h    0.794
   242   1 h    0.899 --   241 o    0.888
   243   1 h    0.872 --   241 o    0.794
   244   8 o    1.839 --   245 h    0.878   246 h    0.776
   245   1 h    0.896 --   244 o    0.878
   246   1 h    0.870 --   244 o    0.776
   247   8 o    1.838 --   248 h    0.848   249 h    0.804
   248   1 h    0.889 --   247 o    0.848
   249   1 h    0.878 --   247 o    0.804
   250   8 o    1.890 --   252 h    0.830   251 h    0.821
   251   1 h    0.883 --   250 o    0.821
   252   1 h    0.878 --   250 o    0.830
   253   8 o    1.843 --   255 h    0.858   254 h    0.849
   254   1 h    0.886 --   253 o    0.849
   255   1 h    0.889 --   253 o    0.858
   256   8 o    1.808 --   258 h    0.853   257 h    0.851
   257   1 h    0.891 --   256 o    0.851
   258   1 h    0.892 --   256 o    0.853
   259   8 o    1.868 --   260 h    0.846   261 h    0.828
   260   1 h    0.884 --   259 o    0.846
   261   1 h    0.886 --   259 o    0.828
   262   8 o    1.834 --   264 h    0.883   263 h    0.795
   263   1 h    0.870 --   262 o    0.795
   264   1 h    0.900 --   262 o    0.883
   265   8 o    1.829 --   266 h    0.862   267 h    0.822
   266   1 h    0.893 --   265 o    0.862
   267   1 h    0.874 --   265 o    0.822
   268   8 o    1.851 --   269 h    0.820   270 h    0.800
   269   1 h    0.888 --   268 o    0.820
   270   1 h    0.878 --   268 o    0.800
   271   8 o    1.825 --   273 h    0.856   272 h    0.852
   272   1 h    0.887 --   271 o    0.852
   273   1 h    0.890 --   271 o    0.856
   274   8 o    1.862 --   275 h    0.846   276 h    0.825
   275   1 h    0.888 --   274 o    0.846
   276   1 h    0.884 --   274 o    0.825
   277   8 o    1.842 --   279 h    0.865   278 h    0.807
   278   1 h    0.875 --   277 o    0.807
   279   1 h    0.899 --   277 o    0.865
   280   8 o    1.838 --   282 h    0.897   281 h    0.843
   281   1 h    0.885 --   280 o    0.843
   282   1 h    0.899 --   280 o    0.897
   283   8 o    1.834 --   284 h    0.871   285 h    0.866
   284   1 h    0.886 --   283 o    0.871
   285   1 h    0.885 --   283 o    0.866
   286   8 o    1.831 --   288 h    0.851   287 h    0.808
   287   1 h    0.876 --   286 o    0.808
   288   1 h    0.897 --   286 o    0.851
   289   8 o    1.835 --   290 h    0.844   291 h    0.828
   290   1 h    0.891 --   289 o    0.844
   291   1 h    0.881 --   289 o    0.828
   292   8 o    1.828 --   294 h    0.885   293 h    0.784
   293   1 h    0.872 --   292 o    0.784
   294   1 h    0.901 --   292 o    0.885
   295   8 o    1.837 --   296 h    0.870   297 h    0.811
   296   1 h    0.890 --   295 o    0.870
   297   1 h    0.881 --   295 o    0.811
   298   8 o    1.840 --   300 h    0.888   299 h    0.790
   299   1 h    0.875 --   298 o    0.790
   300   1 h    0.899 --   298 o    0.888
   301   8 o    1.867 --   302 h    0.897   303 h    0.804
   302   1 h    0.900 --   301 o    0.897
   303   1 h    0.879 --   301 o    0.804
   304   8 o    1.829 --   305 h    0.897   306 h    0.800
   305   1 h    0.902 --   304 o    0.897
   306   1 h    0.876 --   304 o    0.800
   307   8 o    1.838 --   308 h    0.900   309 h    0.788
   308   1 h    0.904 --   307 o    0.900
   309   1 h    0.882 --   307 o    0.788
   310   8 o    1.869 --   311 h    0.836   312 h    0.815
   311   1 h    0.886 --   310 o    0.836
   312   1 h    0.882 --   310 o    0.815
   313   8 o    1.843 --   315 h    0.841   314 h    0.817
   314   1 h    0.883 --   313 o    0.817
   315   1 h    0.888 --   313 o    0.841
   316   8 o    1.838 --   318 h    0.856   317 h    0.852
   317   1 h    0.885 --   316 o    0.852
   318   1 h    0.888 --   316 o    0.856
   319   8 o    1.843 --   320 h    0.898   321 h    0.813
   320   1 h    0.902 --   319 o    0.898
   321   1 h    0.876 --   319 o    0.813
   322   8 o    1.831 --   324 h    0.844   323 h    0.809
   323   1 h    0.888 --   322 o    0.809
   324   1 h    0.893 --   322 o    0.844
   325   8 o    1.903 --   327 h    0.842   326 h    0.806
   326   1 h    0.867 --   325 o    0.806
   327   1 h    0.886 --   325 o    0.842
   328   8 o    1.851 --   330 h    0.821   329 h    0.797
   329   1 h    0.874 --   328 o    0.797
   330   1 h    0.889 --   328 o    0.821
   331   8 o    1.869 --   333 h    0.832   332 h    0.816
   332   1 h    0.879 --   331 o    0.816
   333   1 h    0.891 --   331 o    0.832
   334   8 o    1.843 --   335 h    0.831   336 h    0.825
   335   1 h    0.886 --   334 o    0.831
   336   1 h    0.889 --   334 o    0.825
   337   8 o    1.845 --   339 h    0.854   338 h    0.826
   338   1 h    0.887 --   337 o    0.826
   339   1 h    0.893 --   337 o    0.854
   340   8 o    1.846 --   342 h    0.850   341 h    0.831
   341   1 h    0.891 --   340 o    0.831
   342   1 h    0.892 --   340 o    0.850
   343   8 o    1.886 --   344 h    0.830   345 h    0.823
   344   1 h    0.892 --   343 o    0.830
   345   1 h    0.881 --   343 o    0.823
   346   8 o    1.810 --   348 h    0.874   347 h    0.829
   347   1 h    0.889 --   346 o    0.829
   348   1 h    0.894 --   346 o    0.874
   349   8 o    1.887 --   351 h    0.814   350 h    0.804
   350   1 h    0.880 --   349 o    0.804
   351   1 h    0.881 --   349 o    0.814
   352   8 o    1.825 --   354 h    0.862   353 h    0.851
   353   1 h    0.891 --   352 o    0.851
   354   1 h    0.890 --   352 o    0.862
   355   8 o    1.842 --   357 h    0.850   356 h    0.844
   356   1 h    0.883 --   355 o    0.844
   357   1 h    0.891 --   355 o    0.850
   358   8 o    1.854 --   360 h    0.844   359 h    0.841
   359   1 h    0.887 --   358 o    0.841
   360   1 h    0.883 --   358 o    0.844
   361   8 o    1.848 --   362 h    0.878   363 h    0.833
   362   1 h    0.892 --   361 o    0.878
   363   1 h    0.881 --   361 o    0.833
   364   8 o    1.860 --   366 h    0.832   365 h    0.832
   365   1 h    0.876 --   364 o    0.832
   366   1 h    0.889 --   364 o    0.832
   367   8 o    1.862 --   368 h    0.835   369 h    0.811
   368   1 h    0.893 --   367 o    0.835
   369   1 h    0.889 --   367 o    0.811
   370   8 o    1.851 --   372 h    0.890   371 h    0.837
   371   1 h    0.880 --   370 o    0.837
   372   1 h    0.895 --   370 o    0.890
   373   8 o    1.864 --   375 h    0.816   374 h    0.814
   374   1 h    0.882 --   373 o    0.814
   375   1 h    0.873 --   373 o    0.816
   376   8 o    1.846 --   378 h    0.895   377 h    0.819
   377   1 h    0.881 --   376 o    0.819
   378   1 h    0.899 --   376 o    0.895
   379   8 o    1.816 --   381 h    0.893   380 h    0.814
   380   1 h    0.884 --   379 o    0.814
   381   1 h    0.901 --   379 o    0.893
   382   8 o    1.854 --   383 h    0.842   384 h    0.822
   383   1 h    0.878 --   382 o    0.842
   384   1 h    0.888 --   382 o    0.822
   385   8 o    1.825 --   386 h    0.824   387 h    0.799
   386   1 h    0.894 --   385 o    0.824
   387   1 h    0.879 --   385 o    0.799
   388   8 o    1.840 --   390 h    0.839   389 h    0.802
   389   1 h    0.883 --   388 o    0.802
   390   1 h    0.898 --   388 o    0.839
   391   8 o    1.828 --   393 h    0.900   392 h    0.847
   392   1 h    0.889 --   391 o    0.847
   393   1 h    0.910 --   391 o    0.900
   394   8 o    1.845 --   395 h    0.815   396 h    0.802
   395   1 h    0.878 --   394 o    0.815
   396   1 h    0.870 --   394 o    0.802
   397   8 o    1.818 --   398 h    0.866   399 h    0.839
   398   1 h    0.897 --   397 o    0.866
   399   1 h    0.881 --   397 o    0.839
   400   8 o    1.847 --   402 h    0.818   401 h    0.813
   401   1 h    0.886 --   400 o    0.813
   402   1 h    0.890 --   400 o    0.818
   403   8 o    1.849 --   405 h    0.779   404 h    0.770
   404   1 h    0.874 --   403 o    0.770
   405   1 h    0.878 --   403 o    0.779
   406   8 o    1.824 --   408 h    0.881   407 h    0.790
   407   1 h    0.874 --   406 o    0.790
   408   1 h    0.900 --   406 o    0.881
   409   8 o    1.837 --   411 h    0.874   410 h    0.800
   410   1 h    0.874 --   409 o    0.800
   411   1 h    0.900 --   409 o    0.874
   412   8 o    1.862 --   413 h    0.846   414 h    0.837
   413   1 h    0.885 --   412 o    0.846
   414   1 h    0.894 --   412 o    0.837
   415   8 o    1.836 --   417 h    0.861   416 h    0.774
   416   1 h    0.868 --   415 o    0.774
   417   1 h    0.896 --   415 o    0.861
   418   8 o    1.838 --   419 h    0.860   420 h    0.827
   419   1 h    0.886 --   418 o    0.860
   420   1 h    0.885 --   418 o    0.827
   421   8 o    1.847 --   422 h    0.897   423 h    0.843
   422   1 h    0.900 --   421 o    0.897
   423   1 h    0.883 --   421 o    0.843
   424   8 o    1.791 --   425 h    0.865   426 h    0.843
   425   1 h    0.895 --   424 o    0.865
   426   1 h    0.886 --   424 o    0.843
   427   8 o    1.849 --   428 h    0.820   429 h    0.811
   428   1 h    0.887 --   427 o    0.820
   429   1 h    0.869 --   427 o    0.811
   430   8 o    1.786 --   431 h    0.882   432 h    0.829
   431   1 h    0.903 --   430 o    0.882
   432   1 h    0.887 --   430 o    0.829
   433   8 o    1.843 --   434 h    0.859   435 h    0.793
   434   1 h    0.896 --   433 o    0.859
   435   1 h    0.879 --   433 o    0.793
   436   8 o    1.898 --   437 h    0.829   438 h    0.815
   437   1 h    0.889 --   436 o    0.829
   438   1 h    0.890 --   436 o    0.815
   439   8 o    1.815 --   441 h    0.858   440 h    0.836
   440   1 h    0.882 --   439 o    0.836
   441   1 h    0.890 --   439 o    0.858
   442   8 o    1.866 --   444 h    0.850   443 h    0.822
   443   1 h    0.883 --   442 o    0.822
   444   1 h    0.890 --   442 o    0.850
   445   8 o    1.868 --   447 h    0.811   446 h    0.805
   446   1 h    0.873 --   445 o    0.805
   447   1 h    0.882 --   445 o    0.811
   448   8 o    1.832 --   449 h    0.858   450 h    0.855
   449   1 h    0.892 --   448 o    0.858
   450   1 h    0.878 --   448 o    0.855
   451   8 o    1.846 --   453 h    0.838   452 h    0.778
   452   1 h    0.873 --   451 o    0.778
   453   1 h    0.898 --   451 o    0.838
   454   8 o    1.803 --   456 h    0.901   455 h    0.774
   455   1 h    0.871 --   454 o    0.774
   456   1 h    0.909 --   454 o    0.901
   457   8 o    1.844 --   458 h    0.864   459 h    0.830
   458   1 h    0.892 --   457 o    0.864
   459   1 h    0.893 --   457 o    0.830
   460   8 o    1.847 --   462 h    0.853   461 h    0.805
   461   1 h    0.871 --   460 o    0.805
   462   1 h    0.891 --   460 o    0.853
   463   8 o    1.873 --   465 h    0.830   464 h    0.827
   464   1 h    0.891 --   463 o    0.827
   465   1 h    0.887 --   463 o    0.830
   466   8 o    1.861 --   468 h    0.861   467 h    0.838
   467   1 h    0.880 --   466 o    0.838
   468   1 h    0.886 --   466 o    0.861
   469   8 o    1.844 --   471 h    0.881   470 h    0.801
   470   1 h    0.875 --   469 o    0.801
   471   1 h    0.899 --   469 o    0.881
   472   8 o    1.835 --   473 h    0.898   474 h    0.836
   473   1 h    0.901 --   472 o    0.898
   474   1 h    0.880 --   472 o    0.836
   475   8 o    1.814 --   477 h    0.894   476 h    0.790
   476   1 h    0.868 --   475 o    0.790
   477   1 h    0.905 --   475 o    0.894
   478   8 o    1.838 --   480 h    0.821   479 h    0.819
   479   1 h    0.871 --   478 o    0.819
   480   1 h    0.892 --   478 o    0.821
   481   8 o    1.852 --   483 h    0.857   482 h    0.835
   482   1 h    0.880 --   481 o    0.835
   483   1 h    0.889 --   481 o    0.857
   484   8 o    1.851 --   485 h    0.804   486 h    0.790
   485   1 h    0.883 --   484 o    0.804
   486   1 h    0.875 --   484 o    0.790
   487   8 o    1.804 --   488 h    0.859   489 h    0.843
   488   1 h    0.890 --   487 o    0.859
   489   1 h    0.890 --   487 o    0.843
   490   8 o    1.834 --   491 h    0.809   492 h    0.806
   491   1 h    0.883 --   490 o    0.809
   492   1 h    0.880 --   490 o    0.806
   493   8 o    1.841 --   494 h    0.881   495 h    0.803
   494   1 h    0.898 --   493 o    0.881
   495   1 h    0.873 --   493 o    0.803
   496   8 o    1.818 --   497 h    0.891   498 h    0.861
   497   1 h    0.897 --   496 o    0.891
   498   1 h    0.886 --   496 o    0.861
   499   8 o    1.816 --   501 h    0.846   500 h    0.819
   500   1 h    0.881 --   499 o    0.819
   501   1 h    0.895 --   499 o    0.846
   502   8 o    1.829 --   504 h    0.862   503 h    0.857
   503   1 h    0.888 --   502 o    0.857
   504   1 h    0.894 --   502 o    0.862
   505   8 o    1.844 --   507 h    0.852   506 h    0.832
   506   1 h    0.876 --   505 o    0.832
   507   1 h    0.895 --   505 o    0.852
   508   8 o    1.838 --   509 h    0.898   510 h    0.821
   509   1 h    0.901 --   508 o    0.898
   510   1 h    0.878 --   508 o    0.821
   511   8 o    1.813 --   513 h    0.858   512 h    0.830
   512   1 h    0.884 --   511 o    0.830
   513   1 h    0.893 --   511 o    0.858
   514   8 o    1.823 --   515 h    0.845   516 h    0.843
   515   1 h    0.885 --   514 o    0.845
   516   1 h    0.892 --   514 o    0.843
   517   8 o    1.850 --   519 h    0.844   518 h    0.802
   518   1 h    0.875 --   517 o    0.802
   519   1 h    0.891 --   517 o    0.844
   520   8 o    1.893 --   522 h    0.852   521 h    0.821
   521   1 h    0.874 --   520 o    0.821
   522   1 h    0.890 --   520 o    0.852
   523   8 o    1.816 --   525 h    0.842   524 h    0.808
   524   1 h    0.872 --   523 o    0.808
   525   1 h    0.895 --   523 o    0.842
   526   8 o    1.837 --   527 h    0.879   528 h    0.876
   527   1 h    0.895 --   526 o    0.879
   528   1 h    0.893 --   526 o    0.876
   529   8 o    1.845 --   530 h    0.860   531 h    0.834
   530   1 h    0.892 --   529 o    0.860
   531   1 h    0.886 --   529 o    0.834
 ---------------------------------------------------------------------------

Topologies differ in total number of bonds
Writing topology from bond orders to xtbtopo.mol

molecular dipole:
                 x           y           z       tot (Debye)
 q only:       -5.119      -0.100      -0.069
   full:       -6.536       0.022       0.246      16.625
molecular quadrupole (traceless):
                xx          xy          yy          xz          yz          zz
 q only:      126.898     -16.991     -59.249      22.575      21.056     -67.649
  q+dip:      138.242     -22.218     -58.870      32.340      20.408     -79.372
   full:      138.206     -22.792     -58.914      33.715      19.924     -79.291


           -------------------------------------------------
          | TOTAL ENERGY             -901.414823295433 Eh   |
          | GRADIENT NORM               0.103333869615 Eh/α |
          | HOMO-LUMO GAP               7.647190494608 eV   |
           -------------------------------------------------

------------------------------------------------------------------------
 * finished run on 2022/11/17 at 06:54:58.118     
------------------------------------------------------------------------
 total:
 * wall-time:     0 d,  0 h,  0 min,  8.943 sec
 *  cpu-time:     0 d,  0 h,  0 min, 13.843 sec
 * ratio c/w:     1.548 speedup
 SCF:
 * wall-time:     0 d,  0 h,  0 min,  8.383 sec
 *  cpu-time:     0 d,  0 h,  0 min, 12.807 sec
 * ratio c/w:     1.528 speedup

