      -----------------------------------------------------------      
     |                   =====================                   |     
     |                           x T B                           |     
     |                   =====================                   |     
     |                         S. Grimme                         |     
     |          Mulliken Center for Theoretical Chemistry        |     
     |                    University of Bonn                     |     
      -----------------------------------------------------------      

   * xtb version 6.5.1 (579679a) compiled by 'ehlert@majestix' on 2022-07-11

   xtb is free software: you can redistribute it and/or modify it under
   the terms of the GNU Lesser General Public License as published by
   the Free Software Foundation, either version 3 of the License, or
   (at your option) any later version.
   
   xtb is distributed in the hope that it will be useful,
   but WITHOUT ANY WARRANTY; without even the implied warranty of
   MERCHANTABILITY or FITNESS FOR A PARTICULAR PURPOSE.  See the
   GNU Lesser General Public License for more details.
   
   Cite this work as:
   * C. Bannwarth, E. Caldeweyher, S. Ehlert, A. Hansen, P. Pracht,
     J. Seibert, S. Spicher, S. Grimme, WIREs Comput. Mol. Sci., 2020, 11,
     e01493. DOI: 10.1002/wcms.1493
   
   for GFN2-xTB:
   * C. Bannwarth, S. Ehlert and S. Grimme., J. Chem. Theory Comput., 2019,
     15, 1652-1671. DOI: 10.1021/acs.jctc.8b01176
   for GFN1-xTB:
   * S. Grimme, C. Bannwarth, P. Shushkov, J. Chem. Theory Comput., 2017,
     13, 1989-2009. DOI: 10.1021/acs.jctc.7b00118
   for GFN0-xTB:
   * P. Pracht, E. Caldeweyher, S. Ehlert, S. Grimme, ChemRxiv, 2019, preprint.
     DOI: 10.26434/chemrxiv.8326202.v1
   for GFN-FF:
   * S. Spicher and S. Grimme, Angew. Chem. Int. Ed., 2020, 59, 15665-15673.
     DOI: 10.1002/anie.202004239
   
   for ALPB and GBSA implicit solvation:
   * S. Ehlert, M. Stahn, S. Spicher, S. Grimme, J. Chem. Theory Comput.,
     2021, 17, 4250-4261. DOI: 10.1021/acs.jctc.1c00471
   
   for DFT-D4:
   * E. Caldeweyher, C. Bannwarth and S. Grimme, J. Chem. Phys., 2017,
     147, 034112. DOI: 10.1063/1.4993215
   * E. Caldeweyher, S. Ehlert, A. Hansen, H. Neugebauer, S. Spicher,
     C. Bannwarth and S. Grimme, J. Chem. Phys., 2019, 150, 154122.
     DOI: 10.1063/1.5090222
   * E. Caldeweyher, J.-M. Mewes, S. Ehlert and S. Grimme, Phys. Chem. Chem. Phys.
     2020, 22, 8499-8512. DOI: 10.1039/D0CP00502A
   
   for sTDA-xTB:
   * S. Grimme and C. Bannwarth, J. Chem. Phys., 2016, 145, 054103.
     DOI: 10.1063/1.4959605
   
   in the mass-spec context:
   * V. Asgeirsson, C. Bauer and S. Grimme, Chem. Sci., 2017, 8, 4879.
     DOI: 10.1039/c7sc00601b
   * J. Koopman and S. Grimme, ACS Omega 2019, 4, 12, 15120-15133.
     DOI: 10.1021/acsomega.9b02011
   
   for metadynamics refer to:
   * S. Grimme, J. Chem. Theory Comput., 2019, 155, 2847-2862
     DOI: 10.1021/acs.jctc.9b00143
   
   for SPH calculations refer to:
   * S. Spicher and S. Grimme, J. Chem. Theory Comput., 2021, 17, 1701-1714
     DOI: 10.1021/acs.jctc.0c01306
   
   with help from (in alphabetical order)
   P. Atkinson, C. Bannwarth, F. Bohle, G. Brandenburg, E. Caldeweyher
   M. Checinski, S. Dohm, S. Ehlert, S. Ehrlich, I. Gerasimov, C. Hölzer
   A. Katbashev, J. Koopman, C. Lavigne, S. Lehtola, F. März, M. Müller,
   F. Musil, H. Neugebauer, J. Pisarek, C. Plett, P. Pracht, F. Pultar,
   J. Seibert, P. Shushkov, S. Spicher, M. Stahn, M. Steiner, T. Strunk,
   J. Stückrath, T. Rose, and J. Unsleber
   
 * started run on 2022/11/17 at 06:54:59.738     

           -------------------------------------------------
          |                Calculation Setup                |
           -------------------------------------------------

          program call               : xtb solvent_cluster.coord --gfn2 --sp --lmo --chrg 0
          hostname                   : cn0363
          coordinate file            : solvent_cluster.coord
          omp threads                :                     2

   ID    Z sym.   atoms
    1    8 o      1, 4, 7, 10, 13, 16, 19, 22, 25, 28, 31, 34, 37, 40, 43,
                  46, 49, 52, 55, 58, 61, 64, 67, 70, 73, 76, 79, 82, 85, 88,
                  91, 94, 97, 100, 103, 106, 109, 112, 115, 118, 121, 124,
                  127, 130, 133, 136, 139, 142, 145, 148, 151, 154, 157, 160,
                  163, 166, 169, 172, 175, 178, 181, 184, 187, 190, 193, 196,
                  199, 202, 205, 208, 211, 214, 217, 220, 223, 226, 229, 232,
                  235, 238, 241, 244, 247, 250, 253, 256, 259, 262, 265, 268,
                  271, 274, 277, 280, 283, 286, 289, 292, 295, 298, 301, 304,
                  307, 310, 313, 316, 319, 322, 325, 328, 331, 334, 337, 340,
                  343, 346, 349, 352, 355, 358, 361, 364, 367, 370, 373, 376,
                  379, 382, 385, 388, 391, 394, 397, 400, 403, 406, 409, 412,
                  415, 418, 421, 424, 427, 430, 433, 436, 439, 442, 445, 448,
                  451, 454, 457, 460, 463, 466, 469, 472, 475, 478, 481, 484,
                  487, 490, 493, 496, 499, 502, 505, 508, 511, 514, 517, 520,
                  523, 526, 529
    2    1 h      2, 3, 5, 6, 8, 9, 11, 12, 14, 15, 17, 18, 20, 21, 23, 24,
                  26, 27, 29, 30, 32, 33, 35, 36, 38, 39, 41, 42, 44, 45, 47,
                  48, 50, 51, 53, 54, 56, 57, 59, 60, 62, 63, 65, 66, 68, 69,
                  71, 72, 74, 75, 77, 78, 80, 81, 83, 84, 86, 87, 89, 90, 92,
                  93, 95, 96, 98, 99, 101, 102, 104, 105, 107, 108, 110, 111,
                  113, 114, 116, 117, 119, 120, 122, 123, 125, 126, 128, 129,
                  131, 132, 134, 135, 137, 138, 140, 141, 143, 144, 146, 147,
                  149, 150, 152, 153, 155, 156, 158, 159, 161, 162, 164, 165,
                  167, 168, 170, 171, 173, 174, 176, 177, 179, 180, 182, 183,
                  185, 186, 188, 189, 191, 192, 194, 195, 197, 198, 200, 201,
                  203, 204, 206, 207, 209, 210, 212, 213, 215, 216, 218, 219,
                  221, 222, 224, 225, 227, 228, 230, 231, 233, 234, 236, 237,
                  239, 240, 242, 243, 245, 246, 248, 249, 251, 252, 254, 255,
                  257, 258, 260, 261, 263, 264, 266, 267, 269, 270, 272, 273,
                  275, 276, 278, 279, 281, 282, 284, 285, 287, 288, 290, 291,
                  293, 294, 296, 297, 299, 300, 302, 303, 305, 306, 308, 309,
                  311, 312, 314, 315, 317, 318, 320, 321, 323, 324, 326, 327,
                  329, 330, 332, 333, 335, 336, 338, 339, 341, 342, 344, 345,
                  347, 348, 350, 351, 353, 354, 356, 357, 359, 360, 362, 363,
                  365, 366, 368, 369, 371, 372, 374, 375, 377, 378, 380, 381,
                  383, 384, 386, 387, 389, 390, 392, 393, 395, 396, 398, 399,
                  401, 402, 404, 405, 407, 408, 410, 411, 413, 414, 416, 417,
                  419, 420, 422, 423, 425, 426, 428, 429, 431, 432, 434, 435,
                  437, 438, 440, 441, 443, 444, 446, 447, 449, 450, 452, 453,
                  455, 456, 458, 459, 461, 462, 464, 465, 467, 468, 470, 471,
                  473, 474, 476, 477, 479, 480, 482, 483, 485, 486, 488, 489,
                  491, 492, 494, 495, 497, 498, 500, 501, 503, 504, 506, 507,
                  509, 510, 512, 513, 515, 516, 518, 519, 521, 522, 524, 525,
                  527, 528, 530, 531

molecular fragmentation (1/2 indicates fragments):
111222222222222222222222222222222222222222222222222222222222222222222222
222222222222222222222222222222222222222222222222222222222222222222222222
222222222222222222222222222222222222222222222222222222222222222222222222
222222222222222222222222222222222222222222222222222222222222222222222222
222222222222222222222222222222222222222222222222222222222222222222222222
222222222222222222222222222222222222222222222222222222222222222222222222
222222222222222222222222222222222222222222222222222222222222222222222222
222222222222222222222222222
# atoms in fragment 1/2:     3   528
 fragment masses (1/2) :       18.02     3170.69
CMA distance (Bohr)    :   7.708
constraining FC (au)   :  0.0500

           -------------------------------------------------
          |                 G F N 2 - x T B                 |
           -------------------------------------------------

        Reference                      10.1021/acs.jctc.8b01176
      * Hamiltonian:
        H0-scaling (s, p, d)           1.850000    2.230000    2.230000
        zeta-weighting                 0.500000
      * Dispersion:
        s8                             2.700000
        a1                             0.520000
        a2                             5.000000
        s9                             5.000000
      * Repulsion:
        kExp                           1.500000    1.000000
        rExp                           1.000000
      * Coulomb:
        alpha                          2.000000
        third order                    shell-resolved
        anisotropic                    true
        a3                             3.000000
        a5                             4.000000
        cn-shift                       1.200000
        cn-exp                         4.000000
        max-rad                        5.000000


          ...................................................
          :                      SETUP                      :
          :.................................................:
          :  # basis functions                1062          :
          :  # atomic orbitals                1062          :
          :  # shells                          708          :
          :  # electrons                      1416          :
          :  max. iterations                   250          :
          :  Hamiltonian                  GFN2-xTB          :
          :  restarted?                      false          :
          :  GBSA solvation                  false          :
          :  PC potential                    false          :
          :  electronic temp.          300.0000000     K    :
          :  accuracy                    1.0000000          :
          :  -> integral cutoff          0.2500000E+02      :
          :  -> integral neglect         0.1000000E-07      :
          :  -> SCF convergence          0.1000000E-05 Eh   :
          :  -> wf. convergence          0.1000000E-03 e    :
          :  Broyden damping             0.4000000          :
          ...................................................

 iter      E             dE          RMSdq      gap      omega  full diag
   1   -906.5926399 -0.906593E+03  0.406E+00    8.66       0.0  T
   2   -906.6445407 -0.519008E-01  0.241E+00    7.97       1.0  T
   3   -906.6668819 -0.223412E-01  0.210E-01    6.80       1.0  T
   4   -906.6705181 -0.363615E-02  0.455E-02    7.14       1.0  T
   5   -906.6705871 -0.689815E-04  0.313E-02    7.08       1.0  T
   6   -906.6706161 -0.290818E-04  0.366E-03    7.11       1.2  T
   7   -906.6706174 -0.125291E-05  0.742E-04    7.11       5.8  T
   8   -906.6706174 -0.203755E-07  0.387E-04    7.11      11.2  T
   9   -906.6706174 -0.102243E-07  0.534E-05    7.11      81.2  T

   *** convergence criteria satisfied after 9 iterations ***

         #    Occupation            Energy/Eh            Energy/eV
      -------------------------------------------------------------
         1        2.0000           -0.6965561             -18.9543
       ...           ...                  ...                  ...
       702        2.0000           -0.3622582              -9.8575
       703        2.0000           -0.3580361              -9.7427
       704        2.0000           -0.3564055              -9.6983
       705        2.0000           -0.3434350              -9.3453
       706        2.0000           -0.3415409              -9.2938
       707        2.0000           -0.3400261              -9.2526
       708        2.0000           -0.3387464              -9.2178 (HOMO)
       709                         -0.0774323              -2.1070 (LUMO)
       710                         -0.0686886              -1.8691
       711                         -0.0521265              -1.4184
       712                         -0.0426334              -1.1601
       713                         -0.0378063              -1.0288
       ...                                ...                  ...
      1062                          0.4664728              12.6934
      -------------------------------------------------------------
                  HL-Gap            0.2613141 Eh            7.1107 eV
             Fermi-level           -0.2080894 Eh           -5.6624 eV
 
 localization/xTB-IFF output generation
 averaging CT terms over            4  occ. levels
 averaging CT terms over            2  virt. levels
 dipole moment from electron density (au)
     X       Y       Z   
  -6.0580  -0.0219   0.2956  total (Debye):   15.417
cpu  time for init local    0.42 s
wall time for init local    0.21 s
 doing rotations ...
 initialization of trafo matrix to unity

 converged in     16 iterations, threshold :   0.99999072D-06
 doing transformations ...
 lmo centers(Z=2) and atoms on file <lmocent.coord>
 LMO Fii/eV  ncent    charge center   contributions...
    1 LP   *******   0.00   7.58102  -4.37466  -5.83369  217O : 14.43  403O : 10.64  175O :  6.90  340O :  6.36   82O :  6.01   52O :  5.48  469O :  5.37  499O :  5.32  322O :  5.03  271O :  5.00  505O :  4.89  163O :  4.84
  394O :  4.80  406O :  4.80  247O :  4.71   10O :  4.47  349O :  4.27   73O :  4.20  187O :  4.14  400O :  4.09  478O :  4.08  373O :  4.06  430O :  4.03  238O :  4.02
  310O :  3.95  181O :  3.90  218H :  3.88  289O :  3.88  445O :  3.81  193O :  3.73   31O :  3.36  208O :  3.31   28O :  3.17  103O :  3.16   61O :  3.15    1O :  3.06
  409O :  3.03   34O :  2.99  214O :  2.86  133O :  2.85  334O :  2.57  487O :  2.56  454O :  2.54   58O :  2.41  145O :  2.38  517O :  2.37   19O :  2.36  169O :  2.27
  148O :  2.19   55O :  2.16  511O :  2.10  118O :  2.09  475O :  2.08  427O :  2.07   91O :  2.03  160O :  2.01  484O :  2.01  319O :  1.98  139O :  1.97  412O :  1.94
  127O :  1.87  259O :  1.87   85O :  1.76  463O :  1.74  514O :  1.69  526O :  1.65  451O :  1.61  418O :  1.57   88O :  1.56   37O :  1.56  355O :  1.56  130O :  1.52
  277O :  1.50  520O :  1.49  286O :  1.48  226O :  1.47   22O :  1.46   76O :  1.45  331O :  1.45   13O :  1.43  496O :  1.43   67O :  1.43  184O :  1.40  229O :  1.38
   97O :  1.35  364O :  1.30  211O :  1.29  385O :  1.28  388O :  1.22  232O :  1.20  292O :  1.18  375H :  1.18  376O :  1.13  436O :  1.13   25O :  1.12  490O :  1.11
   70O :  1.11  190O :  1.11  100O :  1.09  205O :  1.07  415O :  1.05  121O :  1.05  301O :  1.04   79O :  1.04    7O :  1.03   94O :  1.03  220O :  0.99  460O :  0.98
  382O :  0.97  352O :  0.96  316O :  0.96  379O :  0.95  397O :  0.95  136O :  0.93  307O :  0.93  328O :  0.93  199O :  0.93  358O :  0.92  481O :  0.91  223O :  0.91
   74H :  0.88  202O :  0.86  196O :  0.86    4O :  0.84  508O :  0.83  421O :  0.82  157O :  0.82  304O :  0.81  346O :  0.81  448O :  0.79  256O :  0.78  402H :  0.77
  154O :  0.75  151O :  0.75  325O :  0.74  466O :  0.74  239H :  0.74  283O :  0.72  290H :  0.72  262O :  0.70  529O :  0.70  361O :  0.67  124O :  0.67  109O :  0.66
  343O :  0.64  106O :  0.64  446H :  0.62  337O :  0.61  248H :  0.59   56H :  0.58  162H :  0.58  367O :  0.56  235O :  0.55  182H :  0.55  413H :  0.54  268O :  0.52
   53H :  0.49   40O :  0.46  464H :  0.45  528H :  0.45   46O :  0.45   20H :  0.44  253O :  0.42  166O :  0.42   64O :  0.41   43O :  0.41  240H :  0.41  439O :  0.40
  327H :  0.40  132H :  0.39   36H :  0.39  453H :  0.38  104H :  0.37  493O :  0.37  140H :  0.36  141H :  0.35  112O :  0.35  102H :  0.34  265O :  0.34  298O :  0.33
   32H :  0.31  507H :  0.30  391O :  0.30  142O :  0.29  457O :  0.29  295O :  0.29  317H :  0.27  489H :  0.27  170H :  0.27  291H :  0.27   30H :  0.26   59H :  0.26
  279H :  0.26  155H :  0.25  357H :  0.25  344H :  0.25  222H :  0.24  485H :  0.24   16O :  0.24   83H :  0.24  442O :  0.23  138H :  0.22   33H :  0.22  424O :  0.22
  274O :  0.22   84H :  0.21   14H :  0.21  419H :  0.21  332H :  0.21  313O :  0.20   49O :  0.20   72H :  0.20  230H :  0.20  462H :  0.20  447H :  0.20  147H :  0.19
  176H :  0.19  241O :  0.19  395H :  0.19  370O :  0.19  306H :  0.19  244O :  0.19   75H :  0.19  186H :  0.19  185H :  0.18  320H :  0.18  119H :  0.18  336H :  0.18
  471H :  0.18  433O :  0.17  250O :  0.16  122H :  0.16  303H :  0.16   26H :  0.16  191H :  0.15  212H :  0.15  437H :  0.15  280O :  0.15  480H :  0.15  363H :  0.15
  444H :  0.15   15H :  0.15   35H :  0.15  383H :  0.15  513H :  0.14  479H :  0.14  366H :  0.14  311H :  0.14  329H :  0.14  249H :  0.14   68H :  0.14  491H :  0.13
  530H :  0.13  237H :  0.13  216H :  0.12   12H :  0.12  188H :  0.12   23H :  0.12  411H :  0.12  498H :  0.12  168H :  0.12  183H :  0.12   65H :  0.12  440H :  0.11
  472O :  0.11  293H :  0.11   17H :  0.11  321H :  0.11  399H :  0.11  380H :  0.11  115O :  0.11   48H :  0.11   98H :  0.11  302H :  0.11  272H :  0.11  285H :  0.11
    5H :  0.11  408H :  0.10  502O :  0.10  197H :  0.10  246H :  0.10   69H :  0.10  113H :  0.09  159H :  0.09  390H :  0.09  523O :  0.09   60H :  0.09  315H :  0.09
  201H :  0.08   54H :  0.08  369H :  0.08  501H :  0.08   77H :  0.08  164H :  0.08  468H :  0.08   78H :  0.07  396H :  0.07  356H :  0.07   39H :  0.07  494H :  0.07
    2 LP   *******   0.00   1.59041  -5.83331  -9.30392  403O : 12.66  217O :  9.26  175O :  5.86  340O :  5.41   82O :  5.10   52O :  4.64  469O :  4.56  499O :  4.52  322O :  4.27  271O :  4.25  505O :  4.15  163O :  4.11
  406O :  4.10  394O :  4.08  247O :  4.00   10O :  3.81  349O :  3.63  238O :  3.60   73O :  3.57  187O :  3.51  478O :  3.47  400O :  3.46  373O :  3.45  430O :  3.42
  310O :  3.35  289O :  3.32  181O :  3.31  445O :  3.24  193O :  3.17   31O :  2.86  208O :  2.82   28O :  2.69  103O :  2.69   61O :  2.67    1O :  2.59  409O :  2.57
   34O :  2.54  214O :  2.43  133O :  2.42  334O :  2.19  487O :  2.17  454O :  2.16   58O :  2.05  145O :  2.02   19O :  2.01  517O :  2.01  169O :  1.93  218H :  1.87
  148O :  1.87   55O :  1.83  511O :  1.78  118O :  1.77  475O :  1.77  427O :  1.76   91O :  1.73  160O :  1.71  484O :  1.71  319O :  1.68  139O :  1.67  412O :  1.65
  127O :  1.59  259O :  1.59   85O :  1.50  463O :  1.47  514O :  1.43  526O :  1.40  451O :  1.36  418O :  1.33   88O :  1.33   37O :  1.33  355O :  1.32  130O :  1.29
  277O :  1.27  520O :  1.27  286O :  1.26   22O :  1.24  226O :  1.24   76O :  1.23  331O :  1.23   13O :  1.22  496O :  1.21   67O :  1.21  184O :  1.19  229O :  1.17
   97O :  1.15  364O :  1.11  385O :  1.09  211O :  1.09  388O :  1.03  232O :  1.02  292O :  1.01  375H :  1.00  376O :  0.96  436O :  0.96   25O :  0.95  490O :  0.94
   70O :  0.94  190O :  0.94  100O :  0.92  205O :  0.91  415O :  0.90  121O :  0.89  301O :  0.88   79O :  0.88   94O :  0.87    7O :  0.87  220O :  0.84  352O :  0.83
  460O :  0.83  382O :  0.82  316O :  0.81  379O :  0.81  397O :  0.81  199O :  0.80  136O :  0.79  307O :  0.79  328O :  0.79  358O :  0.78  481O :  0.78  223O :  0.78
   74H :  0.75  202O :  0.73  196O :  0.73    4O :  0.72  508O :  0.71  421O :  0.70  157O :  0.69  304O :  0.69  346O :  0.68  448O :  0.67  256O :  0.66  402H :  0.65
  154O :  0.64  151O :  0.64  325O :  0.63  466O :  0.63  239H :  0.62  290H :  0.62  283O :  0.61  262O :  0.60  529O :  0.59  361O :  0.57  124O :  0.57  109O :  0.56
  343O :  0.55  106O :  0.54  446H :  0.52  337O :  0.52  248H :  0.50   56H :  0.50  162H :  0.49  367O :  0.47  235O :  0.47  182H :  0.46  413H :  0.46  268O :  0.44
   53H :  0.42   40O :  0.39  464H :  0.38   46O :  0.38  528H :  0.38   20H :  0.37  253O :  0.35  166O :  0.35   64O :  0.35  439O :  0.34  327H :  0.34  291H :  0.34
  240H :  0.34  132H :  0.33   36H :  0.33   43O :  0.33  453H :  0.32  104H :  0.31  493O :  0.31  140H :  0.31  141H :  0.30  112O :  0.30  102H :  0.29  265O :  0.29
  298O :  0.28   32H :  0.27  507H :  0.26  391O :  0.25  142O :  0.25  457O :  0.25  295O :  0.24  317H :  0.23  489H :  0.23  170H :  0.23   30H :  0.22   59H :  0.22
  279H :  0.22  155H :  0.21  357H :  0.21  344H :  0.21  222H :  0.21  485H :  0.21   16O :  0.20   83H :  0.20  442O :  0.20  138H :  0.19   33H :  0.18  424O :  0.18
  274O :  0.18   84H :  0.18   14H :  0.18  419H :  0.18  332H :  0.17  313O :  0.17   49O :  0.17   72H :  0.17  230H :  0.17  462H :  0.17  447H :  0.17  147H :  0.16
  176H :  0.16  241O :  0.16  395H :  0.16  370O :  0.16  306H :  0.16  244O :  0.16   75H :  0.16  186H :  0.16  185H :  0.16  320H :  0.15  119H :  0.15  336H :  0.15
  471H :  0.15  433O :  0.14  250O :  0.14  122H :  0.14  303H :  0.13   26H :  0.13  191H :  0.13  437H :  0.13  212H :  0.13  280O :  0.13  480H :  0.13  363H :  0.12
  444H :  0.12   15H :  0.12   35H :  0.12  383H :  0.12  513H :  0.12  479H :  0.12  366H :  0.12  311H :  0.12  329H :  0.12  249H :  0.12   68H :  0.12  491H :  0.11
   12H :  0.11  530H :  0.11  237H :  0.11  216H :  0.11  188H :  0.10   23H :  0.10  411H :  0.10  498H :  0.10  168H :  0.10  183H :  0.10   65H :  0.10  440H :  0.10
  472O :  0.10   17H :  0.10  293H :  0.10  321H :  0.10  399H :  0.10  380H :  0.09   48H :  0.09  115O :  0.09   98H :  0.09  302H :  0.09  272H :  0.09  285H :  0.09
    5H :  0.09  354H :  0.09  408H :  0.09  502O :  0.08  197H :  0.08  246H :  0.08   69H :  0.08  113H :  0.08  159H :  0.08  390H :  0.08  523O :  0.08   60H :  0.07
  315H :  0.07
    3 LP   *******   0.00  -3.49952  -3.37105 -12.47096   82O :  6.42  217O :  6.29  403O :  6.16  175O :  3.98  340O :  3.67   52O :  3.16  469O :  3.09  499O :  3.06  322O :  2.90  271O :  2.88  505O :  2.82  163O :  2.79
  406O :  2.78  394O :  2.77  247O :  2.71   10O :  2.59  349O :  2.46  238O :  2.45   73O :  2.42  187O :  2.38  400O :  2.36  478O :  2.35  373O :  2.34  430O :  2.32
  310O :  2.27  181O :  2.25  289O :  2.24  445O :  2.20  193O :  2.15   31O :  1.94  208O :  1.91   28O :  1.83  103O :  1.82   61O :  1.81    1O :  1.76  409O :  1.75
   34O :  1.72  214O :  1.65  133O :  1.64  334O :  1.48  487O :  1.47  454O :  1.46   58O :  1.39  145O :  1.37  517O :  1.36   19O :  1.36  169O :  1.31  218H :  1.27
  148O :  1.25   55O :  1.24  511O :  1.21  118O :  1.20  475O :  1.20  427O :  1.19   91O :  1.17  160O :  1.16  484O :  1.16  319O :  1.14  139O :  1.13  412O :  1.12
  127O :  1.08  259O :  1.08   85O :  1.02  463O :  1.01  514O :  0.97  526O :  0.95  451O :  0.92  418O :  0.90   88O :  0.90   37O :  0.90  355O :  0.90  130O :  0.87
  277O :  0.86  520O :  0.86  286O :  0.85   22O :  0.84  226O :  0.84   76O :  0.84  331O :  0.83   13O :  0.83  496O :  0.82   67O :  0.82  184O :  0.80  229O :  0.79
   97O :  0.78  364O :  0.75  385O :  0.74  211O :  0.74  388O :  0.70  232O :  0.69  292O :  0.68  375H :  0.68  376O :  0.65  436O :  0.65   25O :  0.65  490O :  0.64
   70O :  0.64  190O :  0.64  100O :  0.63  205O :  0.62  415O :  0.61  121O :  0.61  301O :  0.60   79O :  0.60    7O :  0.59   94O :  0.59  220O :  0.57  460O :  0.56
  382O :  0.56  352O :  0.56  316O :  0.55  379O :  0.55  397O :  0.55  199O :  0.54  136O :  0.54  307O :  0.54  328O :  0.53  358O :  0.53  481O :  0.53  223O :  0.53
   74H :  0.51  202O :  0.50  196O :  0.50    4O :  0.49  508O :  0.48  421O :  0.48  157O :  0.47  304O :  0.47  346O :  0.46  448O :  0.46  256O :  0.45  402H :  0.44
  154O :  0.43  151O :  0.43  325O :  0.43  466O :  0.43  239H :  0.42  290H :  0.42  283O :  0.42  262O :  0.40  529O :  0.40  361O :  0.39  124O :  0.38  109O :  0.38
  343O :  0.37  106O :  0.37  446H :  0.35  337O :  0.35  248H :  0.34   56H :  0.34  162H :  0.33  367O :  0.32  235O :  0.32  182H :  0.32  413H :  0.31  268O :  0.30
   53H :  0.28  464H :  0.27   40O :  0.26  528H :  0.26   46O :  0.26   20H :  0.25  253O :  0.24  166O :  0.24   64O :  0.24   43O :  0.24  439O :  0.23  327H :  0.23
  240H :  0.23  132H :  0.23   36H :  0.22  453H :  0.22  104H :  0.21  493O :  0.21  140H :  0.21  141H :  0.20  112O :  0.20  102H :  0.20  265O :  0.19  298O :  0.19
   32H :  0.18  507H :  0.17  391O :  0.17  142O :  0.17  457O :  0.17  295O :  0.16  317H :  0.16  489H :  0.15  170H :  0.15  291H :  0.15   30H :  0.15   59H :  0.15
  279H :  0.15  155H :  0.15  357H :  0.14  344H :  0.14  222H :  0.14  485H :  0.14   16O :  0.14  442O :  0.13  138H :  0.13   33H :  0.13  424O :  0.13  274O :  0.12
   14H :  0.12  419H :  0.12  332H :  0.12  313O :  0.12   72H :  0.12  230H :  0.12  462H :  0.11  447H :  0.11   83H :  0.11  147H :  0.11   49O :  0.11  395H :  0.11
  176H :  0.11  241O :  0.11  370O :  0.11  306H :  0.11  244O :  0.11   75H :  0.11  186H :  0.11  185H :  0.11  320H :  0.10  119H :  0.10  336H :  0.10  471H :  0.10
  433O :  0.10   84H :  0.10  250O :  0.09  122H :  0.09  303H :  0.09   26H :  0.09  191H :  0.09  437H :  0.09  212H :  0.09  280O :  0.09  480H :  0.09  363H :  0.08
  444H :  0.08   15H :  0.08   35H :  0.08  383H :  0.08  513H :  0.08  479H :  0.08  366H :  0.08  311H :  0.08  329H :  0.08  249H :  0.08   68H :  0.08  491H :  0.08
   12H :  0.08  530H :  0.07  237H :  0.07  216H :  0.07  188H :  0.07   23H :  0.07  411H :  0.07
    4 LP   *******   0.00  -3.86253  -6.77232   5.34628  340O :  5.48  217O :  5.25  403O :  5.14  175O :  3.32   82O :  2.89   52O :  2.64  469O :  2.58  499O :  2.56  322O :  2.42  271O :  2.40  505O :  2.40  163O :  2.33
  406O :  2.32  394O :  2.31  247O :  2.27   10O :  2.16  349O :  2.05  238O :  2.04   73O :  2.02  187O :  1.99  400O :  1.97  478O :  1.96  373O :  1.95  430O :  1.94
  310O :  1.89  181O :  1.87  289O :  1.87  445O :  1.83  193O :  1.80   31O :  1.62  208O :  1.59   28O :  1.52  103O :  1.52   61O :  1.51    1O :  1.47  409O :  1.46
   34O :  1.44  214O :  1.38  133O :  1.37  334O :  1.24  487O :  1.23  454O :  1.22   58O :  1.16   19O :  1.15  145O :  1.15  517O :  1.14  169O :  1.09  218H :  1.06
  148O :  1.06   55O :  1.04  511O :  1.01  475O :  1.00  118O :  1.00  427O :  0.99   91O :  0.98  160O :  0.97  484O :  0.97  319O :  0.95  139O :  0.95  412O :  0.94
  127O :  0.90  259O :  0.90   85O :  0.85  463O :  0.83  514O :  0.81  526O :  0.79  451O :  0.77  418O :  0.76   88O :  0.75   37O :  0.75  355O :  0.75  130O :  0.73
  277O :  0.72  520O :  0.72  286O :  0.71   22O :  0.70  226O :  0.70   76O :  0.70  331O :  0.70   13O :  0.69  496O :  0.69   67O :  0.69  184O :  0.67  229O :  0.66
   97O :  0.65  364O :  0.63  385O :  0.62  211O :  0.62  388O :  0.59  232O :  0.58  292O :  0.57  375H :  0.57  376O :  0.54  436O :  0.54  490O :  0.53   70O :  0.53
  190O :  0.53  100O :  0.52  205O :  0.51  415O :  0.51   25O :  0.51  121O :  0.51   79O :  0.50  301O :  0.50    7O :  0.49   94O :  0.49  220O :  0.48  460O :  0.47
  382O :  0.47  352O :  0.46  316O :  0.46  379O :  0.46  397O :  0.46  199O :  0.45  136O :  0.45  307O :  0.45  328O :  0.45  358O :  0.44  481O :  0.44  223O :  0.44
   74H :  0.42  202O :  0.42  196O :  0.41    4O :  0.41  508O :  0.40  421O :  0.39  157O :  0.39  304O :  0.39  346O :  0.39  448O :  0.38  256O :  0.38  402H :  0.37
  154O :  0.36  151O :  0.36  325O :  0.36  466O :  0.36  239H :  0.35  290H :  0.35  283O :  0.35  262O :  0.34  529O :  0.34  361O :  0.32  124O :  0.32  109O :  0.32
  106O :  0.31  343O :  0.31  446H :  0.30  337O :  0.29  248H :  0.28   56H :  0.28  162H :  0.28  367O :  0.27  235O :  0.27  182H :  0.26  413H :  0.26  268O :  0.25
   53H :  0.24   40O :  0.22  464H :  0.22  528H :  0.22   46O :  0.21   20H :  0.21  253O :  0.20  166O :  0.20   64O :  0.20   43O :  0.20  439O :  0.19  327H :  0.19
  240H :  0.19  132H :  0.19   36H :  0.19  453H :  0.18  104H :  0.18  493O :  0.18  140H :  0.17  141H :  0.17  112O :  0.17  102H :  0.16  265O :  0.16  298O :  0.16
   32H :  0.15  507H :  0.15  391O :  0.14  142O :  0.14  457O :  0.14  295O :  0.14  317H :  0.13  489H :  0.13  170H :  0.13  291H :  0.13   30H :  0.13   59H :  0.12
  279H :  0.12  155H :  0.12  357H :  0.12  344H :  0.12  222H :  0.12  485H :  0.12   16O :  0.11   83H :  0.11  442O :  0.11  138H :  0.11   33H :  0.10  424O :  0.10
  274O :  0.10   84H :  0.10   14H :  0.10  419H :  0.10  332H :  0.10  313O :  0.10   49O :  0.10   72H :  0.10  230H :  0.10  462H :  0.10  447H :  0.10  147H :  0.09
  241O :  0.09  395H :  0.09  370O :  0.09  176H :  0.09  306H :  0.09  244O :  0.09   75H :  0.09  186H :  0.09  185H :  0.09  320H :  0.09  119H :  0.09  336H :  0.08
  471H :  0.08  433O :  0.08  250O :  0.08  122H :  0.08  303H :  0.08  191H :  0.07  437H :  0.07  212H :  0.07  280O :  0.07   26H :  0.07  480H :  0.07  363H :  0.07
  444H :  0.07   15H :  0.07
    5 LP   *******   0.00  -7.99754  -6.82288   7.67283  175O :  5.44  217O :  4.84  403O :  4.74  340O :  2.81   82O :  2.67   52O :  2.43  469O :  2.38  499O :  2.36  322O :  2.23  271O :  2.22  505O :  2.17  163O :  2.15
  406O :  2.14  394O :  2.13  247O :  2.09   10O :  1.99  349O :  1.89  238O :  1.89   73O :  1.86  187O :  1.84  400O :  1.81  478O :  1.81  373O :  1.79  430O :  1.79
  310O :  1.75  181O :  1.73  289O :  1.72  445O :  1.69  193O :  1.66   31O :  1.49  208O :  1.47   28O :  1.41  103O :  1.40   61O :  1.40    1O :  1.35  409O :  1.34
   34O :  1.33  133O :  1.26  214O :  1.24  334O :  1.14  487O :  1.13  454O :  1.13   58O :  1.07  145O :  1.06  517O :  1.05   19O :  1.05  169O :  1.01  218H :  0.98
  148O :  0.97   55O :  0.96  511O :  0.93  118O :  0.93  475O :  0.93  427O :  0.92   91O :  0.90  484O :  0.89  160O :  0.89  319O :  0.88  139O :  0.87  412O :  0.86
  127O :  0.83  259O :  0.83   85O :  0.78  463O :  0.77  514O :  0.75  526O :  0.73  451O :  0.71  418O :  0.70   88O :  0.69   37O :  0.69  355O :  0.69  130O :  0.67
  277O :  0.66  520O :  0.66  286O :  0.66   22O :  0.65  226O :  0.65   76O :  0.65  331O :  0.64   13O :  0.64  496O :  0.63   67O :  0.63  184O :  0.62  229O :  0.61
   97O :  0.60  364O :  0.58  385O :  0.57  211O :  0.57  388O :  0.54  232O :  0.53  292O :  0.53  375H :  0.52  376O :  0.50  436O :  0.50   25O :  0.50  490O :  0.49
   70O :  0.49  190O :  0.49  100O :  0.48  205O :  0.47  415O :  0.47  121O :  0.47   79O :  0.47  301O :  0.46    7O :  0.46   94O :  0.46  220O :  0.44  460O :  0.43
  382O :  0.43  352O :  0.43  316O :  0.42  379O :  0.42  397O :  0.42  199O :  0.42  136O :  0.41  307O :  0.41  328O :  0.41  358O :  0.41  481O :  0.41  223O :  0.41
   74H :  0.39  202O :  0.38  196O :  0.38    4O :  0.37  508O :  0.37  421O :  0.36  157O :  0.36  304O :  0.36  346O :  0.36  448O :  0.35  256O :  0.35  402H :  0.34
  154O :  0.33  151O :  0.33  325O :  0.33  466O :  0.33  239H :  0.32  283O :  0.32  290H :  0.32  262O :  0.31  529O :  0.31  361O :  0.30  124O :  0.30  109O :  0.29
  343O :  0.28  106O :  0.28  446H :  0.27  337O :  0.27  248H :  0.26   56H :  0.26  162H :  0.26  367O :  0.25  235O :  0.25  182H :  0.24  413H :  0.24  268O :  0.23
   53H :  0.22   40O :  0.20  464H :  0.20  528H :  0.20   46O :  0.20   20H :  0.19  253O :  0.19  166O :  0.19   64O :  0.18   43O :  0.18  439O :  0.18  327H :  0.18
  240H :  0.18  132H :  0.17   36H :  0.17  453H :  0.17  104H :  0.16  493O :  0.16  140H :  0.16  112O :  0.16  141H :  0.16  102H :  0.15  265O :  0.15  298O :  0.15
   32H :  0.14  507H :  0.13  391O :  0.13  142O :  0.13  457O :  0.13  295O :  0.13  317H :  0.12  489H :  0.12  170H :  0.12  291H :  0.12   30H :  0.12   59H :  0.11
  279H :  0.11  155H :  0.11  357H :  0.11  344H :  0.11  222H :  0.11  485H :  0.11   16O :  0.11   83H :  0.10  442O :  0.10  138H :  0.10   33H :  0.10  424O :  0.10
  274O :  0.10   84H :  0.09   14H :  0.09  419H :  0.09  332H :  0.09  313O :  0.09   49O :  0.09   72H :  0.09  230H :  0.09  462H :  0.09  447H :  0.09  147H :  0.09
  241O :  0.09  395H :  0.08  370O :  0.08  306H :  0.08  244O :  0.08   75H :  0.08  186H :  0.08  185H :  0.08  320H :  0.08  119H :  0.08  336H :  0.08  471H :  0.08
  433O :  0.07  250O :  0.07  122H :  0.07
    6 LP   *******   0.00 -12.16891   0.33518  -3.32473  394O :  4.61  217O :  4.54  403O :  4.45  175O :  2.88  340O :  2.65   82O :  2.50   52O :  2.28  469O :  2.23  499O :  2.21  322O :  2.09  271O :  2.08  505O :  2.04
  163O :  2.01  406O :  2.01  247O :  1.96   10O :  1.87  349O :  1.78  238O :  1.77   73O :  1.74  187O :  1.72  478O :  1.70  400O :  1.70  373O :  1.69  430O :  1.68
  310O :  1.64  181O :  1.62  289O :  1.62  445O :  1.59  193O :  1.55   31O :  1.40  208O :  1.38   28O :  1.32  103O :  1.32   61O :  1.31    1O :  1.27  409O :  1.26
   34O :  1.25  214O :  1.19  133O :  1.19  334O :  1.07  487O :  1.06  454O :  1.06   58O :  1.00  145O :  0.99  517O :  0.98   19O :  0.98  169O :  0.94  218H :  0.92
  148O :  0.91   55O :  0.90  511O :  0.87  118O :  0.87  475O :  0.87  427O :  0.86   91O :  0.85  160O :  0.84  484O :  0.84  319O :  0.83  139O :  0.82  412O :  0.81
  127O :  0.78  259O :  0.78   85O :  0.73  514O :  0.70  463O :  0.70  526O :  0.69  451O :  0.67  418O :  0.65   88O :  0.65   37O :  0.65  355O :  0.65  130O :  0.63
  277O :  0.62  520O :  0.62  286O :  0.62   22O :  0.61  226O :  0.61   76O :  0.61  331O :  0.60   13O :  0.60  496O :  0.59   67O :  0.59  184O :  0.58  229O :  0.57
   97O :  0.56  364O :  0.54  385O :  0.53  211O :  0.53  388O :  0.51  232O :  0.50  292O :  0.49  375H :  0.49  376O :  0.47  436O :  0.47   25O :  0.47  490O :  0.46
   70O :  0.46  190O :  0.46  100O :  0.45  205O :  0.44  415O :  0.44  121O :  0.44  301O :  0.43   79O :  0.43    7O :  0.43   94O :  0.43  220O :  0.41  460O :  0.41
  382O :  0.40  352O :  0.40  316O :  0.40  379O :  0.40  397O :  0.40  199O :  0.39  136O :  0.39  307O :  0.39  328O :  0.39  358O :  0.38  481O :  0.38  223O :  0.38
  202O :  0.36  196O :  0.36   74H :  0.35    4O :  0.35  508O :  0.35  421O :  0.34  304O :  0.34  346O :  0.34  157O :  0.33  448O :  0.33  256O :  0.32  402H :  0.31
  154O :  0.31  151O :  0.31  325O :  0.31  466O :  0.31  239H :  0.30  283O :  0.30  290H :  0.30  262O :  0.29  529O :  0.29  361O :  0.28  124O :  0.28  109O :  0.28
  343O :  0.27  106O :  0.27  446H :  0.26  337O :  0.25  248H :  0.25   56H :  0.24  162H :  0.24  367O :  0.23  235O :  0.23  413H :  0.22  182H :  0.22  268O :  0.22
   53H :  0.21   40O :  0.19  464H :  0.19  528H :  0.19   46O :  0.19   20H :  0.18  166O :  0.17  253O :  0.17   64O :  0.17   43O :  0.17  439O :  0.17  327H :  0.17
  240H :  0.17  132H :  0.16   36H :  0.16  453H :  0.16  104H :  0.15  493O :  0.15  140H :  0.15  141H :  0.15  112O :  0.14  102H :  0.14  265O :  0.14  298O :  0.14
   32H :  0.13  507H :  0.13  391O :  0.12  142O :  0.12  457O :  0.12  295O :  0.12  317H :  0.11  489H :  0.11  170H :  0.11  159H :  0.11  291H :  0.11   30H :  0.11
   59H :  0.11  279H :  0.11  155H :  0.11  357H :  0.10  344H :  0.10  222H :  0.10  485H :  0.10   16O :  0.10   83H :  0.10  442O :  0.10  138H :  0.09   33H :  0.09
  424O :  0.09  274O :  0.09   84H :  0.09   14H :  0.09  419H :  0.09  332H :  0.09  313O :  0.09   49O :  0.08   72H :  0.08  230H :  0.08  462H :  0.08  447H :  0.08
  147H :  0.08  176H :  0.08  370O :  0.08  241O :  0.08  306H :  0.08  244O :  0.08   75H :  0.08  186H :  0.08  185H :  0.08  320H :  0.08  119H :  0.07  336H :  0.07
  471H :  0.07
    7 LP   *******   0.00  36.20464   4.05304  46.51566  217O :  4.45  163O :  4.44  403O :  4.36  175O :  2.82  340O :  2.60   82O :  2.45   52O :  2.24  469O :  2.19  499O :  2.17  322O :  2.05  271O :  2.04  505O :  1.99
  406O :  1.97  394O :  1.96  247O :  1.92   10O :  1.83  349O :  1.74  238O :  1.73   73O :  1.71  187O :  1.69  400O :  1.67  478O :  1.66  373O :  1.66  430O :  1.64
  310O :  1.61  181O :  1.59  289O :  1.58  445O :  1.55  193O :  1.52   31O :  1.37  208O :  1.35   28O :  1.29  103O :  1.29   61O :  1.28    1O :  1.24  409O :  1.24
   34O :  1.22  214O :  1.17  133O :  1.16  334O :  1.05  487O :  1.04  454O :  1.04   58O :  0.98  145O :  0.97  517O :  0.96   19O :  0.96  169O :  0.93  218H :  0.90
  148O :  0.90   55O :  0.88  511O :  0.86  118O :  0.85  475O :  0.85  427O :  0.84   91O :  0.83  160O :  0.82  484O :  0.82  319O :  0.81  139O :  0.80  412O :  0.79
  127O :  0.77  259O :  0.76   85O :  0.72  463O :  0.71  514O :  0.69  526O :  0.67  451O :  0.65  418O :  0.64   88O :  0.64   37O :  0.64  355O :  0.64  130O :  0.62
  277O :  0.61  520O :  0.61  286O :  0.60  226O :  0.59   76O :  0.59  331O :  0.59   13O :  0.58  496O :  0.58   67O :  0.58   22O :  0.58  184O :  0.57  229O :  0.56
   97O :  0.55  364O :  0.53  385O :  0.52  211O :  0.52  388O :  0.50  232O :  0.49  292O :  0.48  375H :  0.48  376O :  0.46  436O :  0.46   25O :  0.46  490O :  0.45
   70O :  0.45  190O :  0.45  100O :  0.44  205O :  0.44  415O :  0.43  121O :  0.43  301O :  0.42   79O :  0.42    7O :  0.42   94O :  0.42  220O :  0.40  460O :  0.40
  382O :  0.39  352O :  0.39  316O :  0.39  379O :  0.39  397O :  0.39  199O :  0.38  136O :  0.38  307O :  0.38  328O :  0.38  358O :  0.38  481O :  0.37  223O :  0.37
   74H :  0.36  202O :  0.35  196O :  0.35    4O :  0.34  508O :  0.34  421O :  0.33  157O :  0.33  304O :  0.33  346O :  0.33  448O :  0.32  256O :  0.32  402H :  0.31
  154O :  0.31  151O :  0.31  325O :  0.30  466O :  0.30  239H :  0.30  290H :  0.29  283O :  0.29  262O :  0.29  529O :  0.28  361O :  0.27  124O :  0.27  109O :  0.27
  343O :  0.26  106O :  0.26  446H :  0.25  337O :  0.25  248H :  0.24   56H :  0.24  162H :  0.24  367O :  0.23  235O :  0.23  182H :  0.22  413H :  0.22  268O :  0.21
   53H :  0.20   40O :  0.19  464H :  0.18  528H :  0.18   46O :  0.18   20H :  0.18  253O :  0.17  166O :  0.17   64O :  0.17   43O :  0.17  439O :  0.16  327H :  0.16
  240H :  0.16  132H :  0.16   36H :  0.16  453H :  0.15  104H :  0.15  493O :  0.15  140H :  0.15  141H :  0.14  112O :  0.14  102H :  0.14  265O :  0.14  298O :  0.13
   32H :  0.13  507H :  0.12  457O :  0.12  391O :  0.12  142O :  0.12  295O :  0.12  317H :  0.11  489H :  0.11  170H :  0.11  291H :  0.11   30H :  0.11   59H :  0.10
  279H :  0.10  155H :  0.10  357H :  0.10  344H :  0.10  222H :  0.10  485H :  0.10   16O :  0.10   83H :  0.10  442O :  0.10  138H :  0.09   33H :  0.09  424O :  0.09
  274O :  0.09   84H :  0.09   14H :  0.09  419H :  0.08  332H :  0.08  313O :  0.08   49O :  0.08   72H :  0.08  230H :  0.08  462H :  0.08  447H :  0.08  147H :  0.08
  176H :  0.08  241O :  0.08  395H :  0.08  370O :  0.08  306H :  0.08  244O :  0.08   75H :  0.08  186H :  0.08  185H :  0.08  320H :  0.07  119H :  0.07  336H :  0.07
  471H :  0.07  459H :  0.07
    8 LP   *******   0.01  16.30967   8.56507   8.07228  217O :  4.26  403O :  4.18   10O :  3.76  175O :  2.70  340O :  2.49   82O :  2.35   52O :  2.15  469O :  2.10  499O :  2.08  322O :  1.97  271O :  1.96  505O :  1.91
  163O :  1.89  406O :  1.89  394O :  1.88  247O :  1.84  349O :  1.67  238O :  1.66   73O :  1.64  187O :  1.62  400O :  1.60  478O :  1.60  373O :  1.59  430O :  1.58
  310O :  1.54  181O :  1.52  289O :  1.52  445O :  1.49  193O :  1.44   31O :  1.32  208O :  1.30   28O :  1.24  103O :  1.24   61O :  1.23    1O :  1.19  409O :  1.19
   34O :  1.17  214O :  1.12  133O :  1.11  334O :  1.01  487O :  1.00  454O :  0.99   58O :  0.95  145O :  0.93  517O :  0.93   19O :  0.92  169O :  0.89  148O :  0.86
   55O :  0.86  218H :  0.85  511O :  0.82  118O :  0.82  475O :  0.82  427O :  0.81   91O :  0.80  160O :  0.79  484O :  0.78  319O :  0.77  139O :  0.77  412O :  0.76
  127O :  0.73  259O :  0.73   85O :  0.69  463O :  0.68  514O :  0.66  526O :  0.64  451O :  0.63  418O :  0.61   88O :  0.61   37O :  0.61  355O :  0.61  130O :  0.59
  277O :  0.59  520O :  0.58  286O :  0.58   22O :  0.57  226O :  0.57  331O :  0.57   13O :  0.56   67O :  0.56  496O :  0.56   76O :  0.56  184O :  0.55  229O :  0.53
   97O :  0.53  364O :  0.51  385O :  0.50  211O :  0.50  388O :  0.48  232O :  0.47  292O :  0.46  375H :  0.46  376O :  0.44  436O :  0.44   25O :  0.44  490O :  0.44
   70O :  0.43  190O :  0.43  100O :  0.42  205O :  0.42  415O :  0.41  121O :  0.41  301O :  0.41   79O :  0.41    7O :  0.40   94O :  0.40  220O :  0.39  460O :  0.38
  382O :  0.38  352O :  0.38  316O :  0.37  379O :  0.37  397O :  0.37  199O :  0.37  136O :  0.37  307O :  0.36  328O :  0.36  358O :  0.36  481O :  0.36  223O :  0.36
   74H :  0.34  202O :  0.34  196O :  0.34    4O :  0.33  508O :  0.33  421O :  0.32  157O :  0.32  304O :  0.32  346O :  0.31  448O :  0.31  256O :  0.30  402H :  0.30
  154O :  0.29  151O :  0.29  325O :  0.29  466O :  0.29  239H :  0.28  290H :  0.28  283O :  0.28  262O :  0.27  529O :  0.27  361O :  0.26  124O :  0.26  109O :  0.26
  343O :  0.25  106O :  0.25  446H :  0.24  337O :  0.24  248H :  0.23   56H :  0.23  162H :  0.23  367O :  0.22  235O :  0.22  182H :  0.21  413H :  0.21  268O :  0.21
   53H :  0.19   40O :  0.18  464H :  0.18  528H :  0.17   46O :  0.17   20H :  0.17  253O :  0.16  166O :  0.16   64O :  0.16   43O :  0.16  439O :  0.16  327H :  0.16
  240H :  0.16  132H :  0.15   36H :  0.15  453H :  0.15  104H :  0.14  493O :  0.14  140H :  0.14  141H :  0.14  112O :  0.14  102H :  0.13  265O :  0.13  298O :  0.13
   32H :  0.12  507H :  0.12  391O :  0.12  142O :  0.12  457O :  0.11  295O :  0.11  317H :  0.11  489H :  0.11  170H :  0.10  291H :  0.10   30H :  0.10   59H :  0.10
  279H :  0.10  155H :  0.10  357H :  0.10  344H :  0.10  222H :  0.10  485H :  0.09   16O :  0.09   83H :  0.09  442O :  0.09  138H :  0.09   33H :  0.09  424O :  0.08
  274O :  0.08   84H :  0.08   14H :  0.08  419H :  0.08  332H :  0.08  313O :  0.08   72H :  0.08   49O :  0.08  230H :  0.08  462H :  0.08  447H :  0.08  147H :  0.08
  176H :  0.08  241O :  0.07  395H :  0.07  370O :  0.07  306H :  0.07  244O :  0.07   75H :  0.07  186H :  0.07  185H :  0.07  320H :  0.07
    9 LP   *******   0.01 -11.35069 -13.05235  38.64819  217O :  4.25  403O :  4.16  505O :  4.01  175O :  2.69  340O :  2.48   82O :  2.34   52O :  2.14  469O :  2.09  499O :  2.07  322O :  1.96  271O :  1.95  163O :  1.89
  406O :  1.88  394O :  1.87  247O :  1.83   10O :  1.75  349O :  1.66  238O :  1.66   73O :  1.64  187O :  1.61  400O :  1.59  478O :  1.59  373O :  1.58  430O :  1.57
  310O :  1.54  181O :  1.52  289O :  1.51  445O :  1.49  193O :  1.45   31O :  1.31  208O :  1.29   28O :  1.23   61O :  1.23  103O :  1.21    1O :  1.19  409O :  1.18
   34O :  1.17  214O :  1.11  133O :  1.11  334O :  1.00  487O :  1.00  454O :  0.99   58O :  0.94  145O :  0.93   19O :  0.93  517O :  0.92  169O :  0.88  218H :  0.86
  148O :  0.86   55O :  0.84  511O :  0.81  118O :  0.81  475O :  0.81  427O :  0.81   91O :  0.79  160O :  0.78  484O :  0.78  319O :  0.77  139O :  0.77  412O :  0.76
  127O :  0.73  259O :  0.73   85O :  0.69  463O :  0.68  514O :  0.66  526O :  0.64  451O :  0.63  418O :  0.61   88O :  0.61   37O :  0.61  355O :  0.61  130O :  0.59
  277O :  0.58  520O :  0.58  286O :  0.58   22O :  0.57  226O :  0.57   76O :  0.57  331O :  0.56   13O :  0.56  496O :  0.56   67O :  0.56  184O :  0.54  229O :  0.54
   97O :  0.53  364O :  0.51  385O :  0.50  211O :  0.50  388O :  0.47  232O :  0.47  292O :  0.46  375H :  0.46   25O :  0.44  376O :  0.44  436O :  0.44  490O :  0.43
   70O :  0.43  190O :  0.43  100O :  0.42  205O :  0.42  415O :  0.41  121O :  0.41  301O :  0.40   79O :  0.40    7O :  0.40   94O :  0.40  220O :  0.39  460O :  0.38
  382O :  0.38  352O :  0.38  316O :  0.37  379O :  0.37  397O :  0.37  199O :  0.37  136O :  0.36  307O :  0.36  328O :  0.36  358O :  0.36  481O :  0.36  223O :  0.36
   74H :  0.34  202O :  0.34  196O :  0.34    4O :  0.33  508O :  0.32  421O :  0.32  157O :  0.32  346O :  0.31  304O :  0.31  448O :  0.31  256O :  0.30  402H :  0.30
  154O :  0.29  151O :  0.29  325O :  0.29  466O :  0.29  239H :  0.29  290H :  0.28  283O :  0.28  262O :  0.27  529O :  0.27  361O :  0.26  124O :  0.26  109O :  0.26
  343O :  0.25  106O :  0.25  446H :  0.24  337O :  0.24  248H :  0.23   56H :  0.23  162H :  0.23  367O :  0.22  235O :  0.22  182H :  0.21  413H :  0.21  268O :  0.20
   53H :  0.19   40O :  0.18  464H :  0.17  528H :  0.17   20H :  0.17   46O :  0.17  253O :  0.16  166O :  0.16   64O :  0.16   43O :  0.16  439O :  0.16  327H :  0.16
  132H :  0.16  240H :  0.15   36H :  0.15  453H :  0.15  104H :  0.14  493O :  0.14  140H :  0.14  141H :  0.14  112O :  0.14  102H :  0.13  265O :  0.13  298O :  0.13
   32H :  0.12  391O :  0.12  142O :  0.11  457O :  0.11  295O :  0.11  317H :  0.11  489H :  0.10  170H :  0.10  291H :  0.10   30H :  0.10   59H :  0.10  279H :  0.10
  507H :  0.10  155H :  0.10  357H :  0.10  344H :  0.10  222H :  0.09  485H :  0.09   16O :  0.09   83H :  0.09  442O :  0.09  138H :  0.09   33H :  0.08  424O :  0.08
  274O :  0.08   84H :  0.08   14H :  0.08  419H :  0.08  447H :  0.08  332H :  0.08  313O :  0.08   49O :  0.08   72H :  0.08  230H :  0.08  462H :  0.08  147H :  0.08
  176H :  0.07  395H :  0.07  241O :  0.07  370O :  0.07  244O :  0.07   75H :  0.07  186H :  0.07  185H :  0.07  320H :  0.07
   10 LP   *******   0.01 -37.14783   8.03158  39.78913  217O :  4.21  403O :  4.13  373O :  3.39  175O :  2.65  340O :  2.46   82O :  2.32   52O :  2.12  469O :  2.07  499O :  2.05  322O :  1.94  271O :  1.93  505O :  1.89
  163O :  1.87  406O :  1.86  394O :  1.86  247O :  1.82   10O :  1.73  349O :  1.65  238O :  1.64   73O :  1.62  187O :  1.60  400O :  1.58  478O :  1.58  430O :  1.56
  310O :  1.52  181O :  1.50  289O :  1.50  445O :  1.47  193O :  1.44  375H :  1.43   31O :  1.30  208O :  1.30   28O :  1.22  103O :  1.22   61O :  1.22    1O :  1.18
  409O :  1.17   34O :  1.16  214O :  1.10  133O :  1.10  334O :  0.99  487O :  0.99  454O :  0.98   58O :  0.93  145O :  0.92  517O :  0.91   19O :  0.91  169O :  0.88
  218H :  0.85  148O :  0.85   55O :  0.83  511O :  0.81  118O :  0.81  475O :  0.81  427O :  0.80   91O :  0.79  484O :  0.78  160O :  0.77  319O :  0.77  139O :  0.76
  412O :  0.75  127O :  0.72  259O :  0.72   85O :  0.68  463O :  0.67  514O :  0.65  526O :  0.64  451O :  0.62  418O :  0.61   88O :  0.60   37O :  0.60  355O :  0.60
  130O :  0.58  277O :  0.58  520O :  0.58  286O :  0.57   22O :  0.56  226O :  0.56   76O :  0.56  331O :  0.56   13O :  0.56  496O :  0.55   67O :  0.55  184O :  0.54
  229O :  0.53   97O :  0.52  364O :  0.50  385O :  0.50  211O :  0.50  388O :  0.47  232O :  0.46  292O :  0.46  376O :  0.44  436O :  0.44   25O :  0.43  490O :  0.43
   70O :  0.43  190O :  0.43  100O :  0.42  205O :  0.41  415O :  0.41  121O :  0.41   79O :  0.40  301O :  0.40    7O :  0.40   94O :  0.40  220O :  0.38  460O :  0.38
  382O :  0.37  352O :  0.37  316O :  0.37  379O :  0.37  397O :  0.37  199O :  0.36  136O :  0.36  307O :  0.36  328O :  0.36  358O :  0.36  481O :  0.35  223O :  0.35
   74H :  0.34  202O :  0.33  196O :  0.33    4O :  0.33  508O :  0.32  421O :  0.32  157O :  0.32  304O :  0.31  346O :  0.31  448O :  0.31  256O :  0.30  402H :  0.30
  154O :  0.29  151O :  0.29  325O :  0.29  466O :  0.29  239H :  0.28  283O :  0.28  290H :  0.28  262O :  0.27  529O :  0.27  361O :  0.26  124O :  0.26  109O :  0.26
  343O :  0.25  106O :  0.25  446H :  0.24  337O :  0.23  162H :  0.23  248H :  0.23   56H :  0.23  367O :  0.21  235O :  0.21  182H :  0.21  413H :  0.21  268O :  0.20
   53H :  0.19   40O :  0.18  464H :  0.17  528H :  0.17   46O :  0.17   20H :  0.17  253O :  0.16  166O :  0.16   64O :  0.16   43O :  0.16  439O :  0.16  327H :  0.16
  240H :  0.15  132H :  0.15   36H :  0.15  453H :  0.15  104H :  0.14  493O :  0.14  140H :  0.14  141H :  0.14  112O :  0.14  102H :  0.13  265O :  0.13  298O :  0.13
   32H :  0.12  507H :  0.12  391O :  0.11  457O :  0.11  295O :  0.11  317H :  0.11  489H :  0.10  170H :  0.10  291H :  0.10   30H :  0.10   59H :  0.10  279H :  0.10
  155H :  0.10  357H :  0.10  344H :  0.10  222H :  0.09  485H :  0.09   16O :  0.09   83H :  0.09  442O :  0.09  138H :  0.08   33H :  0.08  424O :  0.08  274O :  0.08
   84H :  0.08  419H :  0.08   14H :  0.08  142O :  0.08  313O :  0.08   49O :  0.08  332H :  0.08   72H :  0.08  230H :  0.08  176H :  0.08  462H :  0.08  447H :  0.08
  147H :  0.07  241O :  0.07  395H :  0.07  370O :  0.07  306H :  0.07  244O :  0.07   75H :  0.07  186H :  0.07  185H :  0.07
   11 LP   *******   0.01   3.09649  14.64363  -1.26894  469O :  4.35  217O :  4.10  403O :  4.02  175O :  2.60  340O :  2.39   82O :  2.26   52O :  2.06  499O :  2.00  322O :  1.89  271O :  1.88  505O :  1.84  163O :  1.82
  406O :  1.82  394O :  1.81  247O :  1.77   10O :  1.69  349O :  1.60  238O :  1.60   73O :  1.58  187O :  1.56  400O :  1.54  373O :  1.53  430O :  1.52  478O :  1.50
  310O :  1.48  181O :  1.47  289O :  1.46  445O :  1.43  193O :  1.40   31O :  1.27  208O :  1.25   28O :  1.19  103O :  1.19   61O :  1.18    1O :  1.15  409O :  1.14
   34O :  1.12  214O :  1.07  133O :  1.07  334O :  0.97  487O :  0.96  454O :  0.96   58O :  0.91  145O :  0.90  517O :  0.89   19O :  0.89  169O :  0.85  218H :  0.83
  148O :  0.83   55O :  0.81  511O :  0.79  475O :  0.78  118O :  0.78  427O :  0.78   91O :  0.77  160O :  0.76  484O :  0.76  319O :  0.75  139O :  0.74  412O :  0.73
  127O :  0.70  259O :  0.70   85O :  0.66  463O :  0.65  514O :  0.63  526O :  0.62  451O :  0.60  418O :  0.59   88O :  0.59   37O :  0.59  355O :  0.59  130O :  0.57
  277O :  0.56  520O :  0.56  286O :  0.56   22O :  0.55  226O :  0.55   76O :  0.55  331O :  0.54   13O :  0.54  496O :  0.54   67O :  0.54  184O :  0.52  229O :  0.52
   97O :  0.51  364O :  0.49  385O :  0.48  211O :  0.48  388O :  0.46  232O :  0.45  292O :  0.45  375H :  0.44  376O :  0.43  436O :  0.42   25O :  0.42  490O :  0.42
   70O :  0.42  190O :  0.42  100O :  0.41  205O :  0.40  415O :  0.40  121O :  0.40  301O :  0.39   79O :  0.39   94O :  0.39    7O :  0.38  220O :  0.37  382O :  0.36
  460O :  0.36  352O :  0.36  316O :  0.36  397O :  0.36  379O :  0.36  199O :  0.35  136O :  0.35  307O :  0.35  328O :  0.35  358O :  0.35  481O :  0.34  223O :  0.34
   74H :  0.33  202O :  0.32  196O :  0.32    4O :  0.32  508O :  0.31  421O :  0.31  157O :  0.31  304O :  0.30  346O :  0.30  448O :  0.30  256O :  0.29  402H :  0.29
  154O :  0.28  151O :  0.28  466O :  0.28  325O :  0.28  239H :  0.28  283O :  0.27  290H :  0.27  262O :  0.26  529O :  0.26  361O :  0.25  124O :  0.25  109O :  0.25
  343O :  0.24  106O :  0.24  446H :  0.23  337O :  0.23  248H :  0.22   56H :  0.22  162H :  0.22  367O :  0.21  235O :  0.21  182H :  0.21  413H :  0.20  268O :  0.20
   53H :  0.19   40O :  0.17  464H :  0.17  528H :  0.17   46O :  0.17   20H :  0.17  253O :  0.16  166O :  0.16   64O :  0.16   43O :  0.15  439O :  0.15  327H :  0.15
  240H :  0.15  132H :  0.15   36H :  0.15  453H :  0.14  104H :  0.14  493O :  0.14  140H :  0.14  141H :  0.13  112O :  0.13  102H :  0.13  265O :  0.13  298O :  0.12
   32H :  0.12  507H :  0.11  391O :  0.11  142O :  0.11  457O :  0.11  295O :  0.11  317H :  0.10  489H :  0.10  170H :  0.10  291H :  0.10   30H :  0.10   59H :  0.10
  279H :  0.10  155H :  0.10  357H :  0.09  344H :  0.09  485H :  0.09  222H :  0.09   16O :  0.09   83H :  0.09  442O :  0.09  138H :  0.08   33H :  0.08  424O :  0.08
  274O :  0.08   84H :  0.08   14H :  0.08  419H :  0.08  332H :  0.08  313O :  0.08   49O :  0.08   72H :  0.08  230H :  0.08  462H :  0.07  447H :  0.07  147H :  0.07
  176H :  0.07  241O :  0.07  395H :  0.07  370O :  0.07  244O :  0.07  306H :  0.07   75H :  0.07  186H :  0.07
   12 LP   *******   0.01 -42.12595  12.59555  11.82392  217O :  4.02  403O :  3.94   73O :  3.27  175O :  2.54  340O :  2.34   82O :  2.21   52O :  2.02  469O :  1.98  499O :  1.96  322O :  1.85  271O :  1.84  505O :  1.80
  163O :  1.78  406O :  1.78  394O :  1.76  247O :  1.73   10O :  1.65  349O :  1.57  238O :  1.57  187O :  1.52  400O :  1.51  478O :  1.50  373O :  1.50  430O :  1.48
  181O :  1.45  310O :  1.44  289O :  1.43  445O :  1.40  193O :  1.38   31O :  1.24  208O :  1.22   28O :  1.17  103O :  1.17   61O :  1.16   74H :  1.16    1O :  1.12
  409O :  1.12   34O :  1.10  214O :  1.05  133O :  1.05  334O :  0.95  487O :  0.94  454O :  0.94   58O :  0.89  145O :  0.88  517O :  0.87   19O :  0.87  169O :  0.84
  218H :  0.82  148O :  0.81   55O :  0.79  511O :  0.77  118O :  0.77  475O :  0.77  427O :  0.76   91O :  0.75  484O :  0.74  160O :  0.74  319O :  0.73  139O :  0.73
  412O :  0.72  127O :  0.69  259O :  0.69   85O :  0.65  463O :  0.64  514O :  0.62  526O :  0.61  451O :  0.59  418O :  0.58   88O :  0.58   37O :  0.58  355O :  0.57
  130O :  0.56  277O :  0.55  520O :  0.55  286O :  0.55   22O :  0.54  226O :  0.54   76O :  0.54  331O :  0.53   13O :  0.53  496O :  0.53   67O :  0.53  184O :  0.51
  229O :  0.51   97O :  0.50  364O :  0.48  385O :  0.47  211O :  0.47  388O :  0.45  232O :  0.44  292O :  0.44  375H :  0.44  376O :  0.42  436O :  0.42   25O :  0.41
  490O :  0.41   70O :  0.41  190O :  0.40  100O :  0.40  205O :  0.39  415O :  0.39  121O :  0.39  301O :  0.38   79O :  0.38    7O :  0.38   94O :  0.38  220O :  0.36
  460O :  0.36  382O :  0.36  352O :  0.36  316O :  0.35  379O :  0.35  397O :  0.35  199O :  0.35  136O :  0.34  307O :  0.34  328O :  0.34  358O :  0.34  481O :  0.34
  223O :  0.34  202O :  0.32  196O :  0.32    4O :  0.31  508O :  0.31  421O :  0.30  157O :  0.30  304O :  0.30  346O :  0.30  448O :  0.29  256O :  0.29  402H :  0.28
  154O :  0.28  325O :  0.27  466O :  0.27  239H :  0.27  283O :  0.27  290H :  0.27  262O :  0.26  529O :  0.26  361O :  0.25  124O :  0.25  109O :  0.24  343O :  0.24
  106O :  0.24  151O :  0.23  446H :  0.23  337O :  0.22  248H :  0.22   56H :  0.22  162H :  0.21  367O :  0.21  235O :  0.20  182H :  0.20  413H :  0.20  268O :  0.19
   53H :  0.18   40O :  0.17  464H :  0.16  528H :  0.16   46O :  0.16   20H :  0.16  253O :  0.15  166O :  0.15   64O :  0.15   43O :  0.15  439O :  0.15  327H :  0.15
  240H :  0.15  132H :  0.14   36H :  0.14  453H :  0.14  104H :  0.14  493O :  0.13  140H :  0.13  141H :  0.13  112O :  0.13  102H :  0.13  265O :  0.12  298O :  0.12
   32H :  0.11  507H :  0.11  142O :  0.11  391O :  0.11  457O :  0.11  295O :  0.11  317H :  0.10  489H :  0.10  170H :  0.10  291H :  0.10   30H :  0.10   59H :  0.09
  279H :  0.09  155H :  0.09  357H :  0.09  344H :  0.09  222H :  0.09  485H :  0.09   16O :  0.09   83H :  0.09  442O :  0.09  138H :  0.08   33H :  0.08  424O :  0.08
  274O :  0.08   84H :  0.08   14H :  0.08  419H :  0.08  332H :  0.08  313O :  0.08   72H :  0.07   49O :  0.07  230H :  0.07  462H :  0.07  447H :  0.07  395H :  0.07
  147H :  0.07  176H :  0.07  241O :  0.07  370O :  0.07   75H :  0.07
   13 LP   *******   0.01   8.11890  27.82824  -5.83113  217O :  4.03  403O :  3.94  349O :  3.56  175O :  2.55  340O :  2.35   82O :  2.22   52O :  2.02  469O :  1.98  499O :  1.96  322O :  1.86  271O :  1.84  505O :  1.80
  163O :  1.79  406O :  1.78  394O :  1.77  247O :  1.74   10O :  1.65  238O :  1.57   73O :  1.55  187O :  1.53  400O :  1.51  478O :  1.51  373O :  1.50  430O :  1.49
  310O :  1.46  181O :  1.44  289O :  1.43  445O :  1.41  193O :  1.38   31O :  1.24  208O :  1.22  103O :  1.17   28O :  1.17   61O :  1.16    1O :  1.13  409O :  1.12
   34O :  1.10  133O :  1.06  214O :  1.05  334O :  0.95  487O :  0.94  454O :  0.94   58O :  0.89  145O :  0.88  517O :  0.87   19O :  0.87  169O :  0.84  218H :  0.82
  148O :  0.81   55O :  0.80  511O :  0.78  475O :  0.77  118O :  0.77  427O :  0.76   91O :  0.75  160O :  0.74  484O :  0.73  319O :  0.73  139O :  0.73  412O :  0.72
  127O :  0.69  259O :  0.69   85O :  0.65  463O :  0.64  514O :  0.62  526O :  0.61  451O :  0.59  418O :  0.58   88O :  0.58  355O :  0.57   37O :  0.57  130O :  0.56
  277O :  0.55  520O :  0.55  286O :  0.55   22O :  0.54  226O :  0.54   76O :  0.54  331O :  0.53   13O :  0.53  496O :  0.53   67O :  0.53  184O :  0.51  229O :  0.51
   97O :  0.50  364O :  0.48  211O :  0.47  385O :  0.47  388O :  0.45  232O :  0.44  292O :  0.44  375H :  0.44  376O :  0.42  436O :  0.42   25O :  0.41  490O :  0.41
   70O :  0.41  190O :  0.41  100O :  0.40  205O :  0.39  415O :  0.39  121O :  0.39  301O :  0.38   79O :  0.38   94O :  0.38    7O :  0.38  220O :  0.37  379O :  0.36
  460O :  0.36  382O :  0.36  352O :  0.36  316O :  0.35  397O :  0.35  199O :  0.35  136O :  0.35  307O :  0.34  328O :  0.34  358O :  0.34  481O :  0.34  223O :  0.34
   74H :  0.33  202O :  0.32  196O :  0.32    4O :  0.31  508O :  0.31  421O :  0.30  157O :  0.30  304O :  0.30  346O :  0.30  448O :  0.29  256O :  0.29  402H :  0.28
  154O :  0.28  151O :  0.28  325O :  0.27  466O :  0.27  239H :  0.27  283O :  0.27  290H :  0.27  262O :  0.26  529O :  0.26  361O :  0.25  124O :  0.25  109O :  0.25
  343O :  0.24  106O :  0.24  446H :  0.23  337O :  0.22  248H :  0.22   56H :  0.22  162H :  0.21  367O :  0.21  235O :  0.20  182H :  0.20  413H :  0.20  268O :  0.19
   53H :  0.18   40O :  0.17  464H :  0.17  528H :  0.16   46O :  0.16   20H :  0.16  166O :  0.15   64O :  0.15  253O :  0.15   43O :  0.15  439O :  0.15  327H :  0.15
  240H :  0.15  132H :  0.14   36H :  0.14  453H :  0.14  104H :  0.14  493O :  0.13  140H :  0.13  141H :  0.13  112O :  0.13  102H :  0.13  265O :  0.12  298O :  0.12
   32H :  0.12  507H :  0.11  391O :  0.11  142O :  0.11  457O :  0.11  295O :  0.11  317H :  0.10  489H :  0.10  170H :  0.10  291H :  0.10   30H :  0.10   59H :  0.09
  279H :  0.09  155H :  0.09  357H :  0.09  344H :  0.09  222H :  0.09  485H :  0.09   16O :  0.09   83H :  0.09   78H :  0.09  442O :  0.08  138H :  0.08   33H :  0.08
  424O :  0.08  274O :  0.08   84H :  0.08   14H :  0.08  419H :  0.08  332H :  0.08  313O :  0.08   49O :  0.07   72H :  0.07  244O :  0.07  230H :  0.07  462H :  0.07
  447H :  0.07  147H :  0.07  176H :  0.07  241O :  0.07  395H :  0.07  370O :  0.07  306H :  0.07
   14 LP   *******   0.01   5.47489  -7.65526  -5.14932  217O :  5.87  403O :  3.93  175O :  2.52  340O :  2.32   82O :  2.19   52O :  2.00  469O :  1.96  499O :  1.94  322O :  1.83  271O :  1.82  505O :  1.78  163O :  1.76
  394O :  1.75  247O :  1.71  406O :  1.71   10O :  1.63  349O :  1.55   73O :  1.53  238O :  1.53  187O :  1.51  400O :  1.49  478O :  1.49  373O :  1.48  430O :  1.47
  310O :  1.44  181O :  1.42  289O :  1.41  445O :  1.39  193O :  1.36   31O :  1.23  208O :  1.21   28O :  1.15  103O :  1.15   61O :  1.15    1O :  1.11  409O :  1.10
   34O :  1.09  214O :  1.04  133O :  1.04  334O :  0.94  487O :  0.93  454O :  0.93   58O :  0.88  145O :  0.87  517O :  0.86   19O :  0.86  169O :  0.83  148O :  0.80
   55O :  0.79  511O :  0.77  118O :  0.76  475O :  0.76  427O :  0.75   91O :  0.74  160O :  0.73  484O :  0.73  319O :  0.72  139O :  0.72  218H :  0.71  412O :  0.71
  127O :  0.68  259O :  0.68   85O :  0.64  463O :  0.63  514O :  0.61  526O :  0.60  451O :  0.58  418O :  0.57   88O :  0.57   37O :  0.57  355O :  0.57  130O :  0.55
  277O :  0.54  520O :  0.54  286O :  0.54  226O :  0.53   22O :  0.53   76O :  0.53  331O :  0.53   13O :  0.52  496O :  0.52   67O :  0.52  184O :  0.51  229O :  0.50
   97O :  0.49  364O :  0.47  211O :  0.47  385O :  0.47  388O :  0.44  232O :  0.44  292O :  0.43  375H :  0.43  376O :  0.41  436O :  0.41   25O :  0.41  490O :  0.41
   70O :  0.40  190O :  0.40  100O :  0.40  205O :  0.39  415O :  0.38  121O :  0.38  301O :  0.38   79O :  0.38    7O :  0.37   94O :  0.37  220O :  0.36  460O :  0.36
  382O :  0.35  352O :  0.35  316O :  0.35  379O :  0.35  397O :  0.35  136O :  0.34  307O :  0.34  328O :  0.34  358O :  0.34  199O :  0.33  481O :  0.33  223O :  0.33
   74H :  0.32  202O :  0.32  196O :  0.31    4O :  0.31  508O :  0.30  421O :  0.30  157O :  0.30  304O :  0.30  346O :  0.29  448O :  0.29  256O :  0.28  402H :  0.28
  154O :  0.27  151O :  0.27  325O :  0.27  466O :  0.27  239H :  0.27  290H :  0.26  283O :  0.26  262O :  0.26  529O :  0.25  361O :  0.25  124O :  0.24  109O :  0.24
  343O :  0.23  106O :  0.23  446H :  0.22  337O :  0.22  248H :  0.22   56H :  0.21  162H :  0.21  367O :  0.20  235O :  0.20  182H :  0.20  413H :  0.20  268O :  0.19
   53H :  0.18   40O :  0.17  464H :  0.16   46O :  0.16  528H :  0.16   20H :  0.16  253O :  0.15  166O :  0.15   64O :  0.15   43O :  0.15  439O :  0.15  327H :  0.15
  240H :  0.14  132H :  0.14   36H :  0.14  453H :  0.14  104H :  0.13  493O :  0.13  140H :  0.13  141H :  0.13  112O :  0.13  102H :  0.12  265O :  0.12  298O :  0.12
   32H :  0.11  507H :  0.11  391O :  0.11  142O :  0.11  457O :  0.11  295O :  0.10  317H :  0.10  291H :  0.10  489H :  0.10  170H :  0.10   30H :  0.10   59H :  0.09
  279H :  0.09  155H :  0.09  357H :  0.09  344H :  0.09  222H :  0.09  485H :  0.09   16O :  0.09   83H :  0.09  442O :  0.08  138H :  0.08   33H :  0.08  424O :  0.08
  274O :  0.08   84H :  0.08   14H :  0.08  419H :  0.08  332H :  0.07  313O :  0.07   49O :  0.07   72H :  0.07  230H :  0.07  462H :  0.07  447H :  0.07  147H :  0.07
   15 LP   *******   0.01  23.00983  10.47444  34.39176  217O :  3.73  499O :  3.72  403O :  3.65  175O :  2.36  340O :  2.17   82O :  2.05   52O :  1.87  469O :  1.83  322O :  1.72  271O :  1.71  505O :  1.67  163O :  1.65
  406O :  1.65  394O :  1.64  247O :  1.61   10O :  1.53  349O :  1.46  238O :  1.45   73O :  1.44  187O :  1.41  400O :  1.40  478O :  1.39  373O :  1.39  430O :  1.38
  310O :  1.35  181O :  1.33  289O :  1.33  445O :  1.30  193O :  1.27   31O :  1.15  208O :  1.13   28O :  1.08  103O :  1.08   61O :  1.08    1O :  1.04  409O :  1.04
   34O :  1.02  214O :  0.98  133O :  0.97  334O :  0.88  487O :  0.87  454O :  0.87   58O :  0.83  145O :  0.81  517O :  0.81   19O :  0.81  169O :  0.77  218H :  0.76
  148O :  0.75   55O :  0.74  511O :  0.72  118O :  0.71  475O :  0.71  427O :  0.71   91O :  0.70  160O :  0.69  484O :  0.69  319O :  0.68  139O :  0.67  412O :  0.66
  259O :  0.64  127O :  0.61   85O :  0.60  463O :  0.59  514O :  0.58  526O :  0.56  451O :  0.55  418O :  0.54   88O :  0.53   37O :  0.53  355O :  0.53  130O :  0.52
  277O :  0.51  520O :  0.51  286O :  0.51  226O :  0.50   76O :  0.50   22O :  0.50  331O :  0.49   67O :  0.49   13O :  0.49  496O :  0.49  184O :  0.48  229O :  0.47
   97O :  0.46  364O :  0.44  385O :  0.44  211O :  0.44  388O :  0.42  232O :  0.41  292O :  0.40  375H :  0.40  376O :  0.39  436O :  0.39   25O :  0.38  490O :  0.38
   70O :  0.38  190O :  0.38  100O :  0.37  205O :  0.36  121O :  0.36  415O :  0.36  301O :  0.35   79O :  0.35    7O :  0.35   94O :  0.35  220O :  0.34  460O :  0.33
  382O :  0.33  352O :  0.33  316O :  0.33  379O :  0.33  397O :  0.32  199O :  0.32  136O :  0.32  307O :  0.32  328O :  0.32  358O :  0.31  481O :  0.31  223O :  0.31
   74H :  0.30  202O :  0.30  196O :  0.29    4O :  0.29  508O :  0.28  421O :  0.28  157O :  0.28  304O :  0.28  346O :  0.28  448O :  0.27  256O :  0.27  402H :  0.26
  154O :  0.26  151O :  0.26  325O :  0.25  466O :  0.25  239H :  0.25  283O :  0.25  290H :  0.25  262O :  0.24  529O :  0.24  361O :  0.23  124O :  0.23  109O :  0.23
  343O :  0.22  106O :  0.22  446H :  0.21  337O :  0.21  248H :  0.20   56H :  0.20  162H :  0.20  235O :  0.19  367O :  0.19  182H :  0.19  413H :  0.18  268O :  0.18
   53H :  0.17   40O :  0.16  464H :  0.15  528H :  0.15   46O :  0.15   20H :  0.15  253O :  0.14  166O :  0.14   64O :  0.14   43O :  0.14  439O :  0.14  327H :  0.14
  240H :  0.14  132H :  0.13   36H :  0.13  453H :  0.13  104H :  0.13  493O :  0.12  140H :  0.12  141H :  0.12  112O :  0.12  102H :  0.12  265O :  0.11  298O :  0.11
   32H :  0.11  507H :  0.10  142O :  0.10  391O :  0.10  457O :  0.10  295O :  0.10  317H :  0.09  489H :  0.09  170H :  0.09   59H :  0.09  291H :  0.09   30H :  0.09
  279H :  0.09  155H :  0.09  357H :  0.08  344H :  0.08  222H :  0.08  485H :  0.08   16O :  0.08   83H :  0.08  442O :  0.08  274O :  0.08  138H :  0.08   33H :  0.07
  424O :  0.07   84H :  0.07   14H :  0.07  419H :  0.07  332H :  0.07
   16 LP   *******   0.01  -5.96622 -16.19841  21.20773  217O :  3.66  403O :  3.59  247O :  3.27  175O :  2.32  340O :  2.14   82O :  2.02   52O :  1.84  469O :  1.80  499O :  1.78  322O :  1.69  271O :  1.68  505O :  1.64
  163O :  1.62  406O :  1.62  394O :  1.61   10O :  1.51  349O :  1.43  238O :  1.43   73O :  1.41  187O :  1.39  400O :  1.37  478O :  1.37  373O :  1.36  430O :  1.35
  310O :  1.33  181O :  1.31  289O :  1.30  445O :  1.28  193O :  1.25   31O :  1.13  208O :  1.11   28O :  1.06   61O :  1.06  103O :  1.05    1O :  1.03  409O :  1.02
   34O :  1.00  214O :  0.96  133O :  0.96  334O :  0.86  487O :  0.86  454O :  0.85   58O :  0.81  145O :  0.80  517O :  0.79   19O :  0.79  169O :  0.76  218H :  0.74
  148O :  0.74   55O :  0.72  511O :  0.71  118O :  0.70  475O :  0.70  427O :  0.69   91O :  0.68  160O :  0.67  484O :  0.67  319O :  0.67  139O :  0.66  412O :  0.65
  127O :  0.63  259O :  0.63   85O :  0.59  463O :  0.58  514O :  0.57  526O :  0.55  451O :  0.54  418O :  0.53   88O :  0.52   37O :  0.52  355O :  0.52  130O :  0.51
  277O :  0.50  520O :  0.50  286O :  0.50   22O :  0.49  226O :  0.49   76O :  0.49  331O :  0.49   13O :  0.48  496O :  0.48   67O :  0.48  184O :  0.47  229O :  0.46
   97O :  0.45  364O :  0.44  385O :  0.43  211O :  0.43  388O :  0.41  232O :  0.40  292O :  0.40  375H :  0.40  376O :  0.38  436O :  0.38   25O :  0.37  490O :  0.37
   70O :  0.37  190O :  0.37  100O :  0.36  205O :  0.36  415O :  0.35  121O :  0.35  301O :  0.35   79O :  0.35    7O :  0.35   94O :  0.34  220O :  0.33  460O :  0.33
  382O :  0.33  352O :  0.32  316O :  0.32  379O :  0.32  397O :  0.32  136O :  0.31  307O :  0.31  328O :  0.31  358O :  0.31  481O :  0.31  223O :  0.31  199O :  0.30
   74H :  0.30  202O :  0.29  196O :  0.29    4O :  0.28  508O :  0.28  421O :  0.28  157O :  0.27  304O :  0.27  346O :  0.27  448O :  0.27  256O :  0.26  402H :  0.26
  154O :  0.25  151O :  0.25  325O :  0.25  466O :  0.25  239H :  0.25  283O :  0.24  290H :  0.24  262O :  0.24  529O :  0.23  361O :  0.23  124O :  0.22  109O :  0.22
  343O :  0.22  106O :  0.21  446H :  0.20  337O :  0.20   56H :  0.20  162H :  0.19  367O :  0.19  235O :  0.19  182H :  0.18  413H :  0.18  268O :  0.18  248H :  0.17
   53H :  0.17   40O :  0.15  464H :  0.15  528H :  0.15   46O :  0.15   20H :  0.15  253O :  0.14  166O :  0.14   64O :  0.14   43O :  0.14  439O :  0.14  327H :  0.13
  240H :  0.13  132H :  0.13   36H :  0.13  453H :  0.13  493O :  0.12  104H :  0.12  140H :  0.12  141H :  0.12  112O :  0.12  102H :  0.11  265O :  0.11  298O :  0.11
   32H :  0.11  507H :  0.10  391O :  0.10  142O :  0.10  457O :  0.10  295O :  0.10  317H :  0.09  489H :  0.09  170H :  0.09  291H :  0.09   30H :  0.09   59H :  0.09
  155H :  0.08  279H :  0.08  357H :  0.08  344H :  0.08  222H :  0.08  485H :  0.08   16O :  0.08   83H :  0.08  442O :  0.08  138H :  0.07   33H :  0.07  424O :  0.07
  274O :  0.07   84H :  0.07    5H :  0.07   14H :  0.07  419H :  0.07
   17 LP   *******   0.01  -4.34942 -38.31927  11.72706  217O :  3.65  403O :  3.57  271O :  3.50  175O :  2.31  340O :  2.12   82O :  2.01   52O :  1.83  469O :  1.79  499O :  1.78  322O :  1.68  505O :  1.63  406O :  1.62
  163O :  1.62  394O :  1.60  247O :  1.57   10O :  1.50  349O :  1.43  238O :  1.42   73O :  1.40  187O :  1.38  400O :  1.36  478O :  1.36  373O :  1.36  430O :  1.35
  310O :  1.32  181O :  1.30  289O :  1.30  445O :  1.27  193O :  1.25   31O :  1.12  208O :  1.11   28O :  1.06  103O :  1.06   61O :  1.05    1O :  1.02  409O :  1.01
   34O :  1.00  214O :  0.95  133O :  0.95  334O :  0.86  487O :  0.85  454O :  0.85  517O :  0.81   58O :  0.80  145O :  0.80   19O :  0.79  169O :  0.76  218H :  0.74
  148O :  0.73   55O :  0.72  511O :  0.70  118O :  0.70  475O :  0.70  427O :  0.69   91O :  0.68  160O :  0.67  484O :  0.67  319O :  0.66  139O :  0.66  412O :  0.65
  127O :  0.63  259O :  0.62   85O :  0.59  463O :  0.58  514O :  0.56  526O :  0.55  451O :  0.54  418O :  0.53   88O :  0.52   37O :  0.52  355O :  0.52  130O :  0.51
  277O :  0.50  520O :  0.50  286O :  0.49   22O :  0.49  226O :  0.49   76O :  0.49  331O :  0.48   13O :  0.48  496O :  0.48   67O :  0.48  184O :  0.47  229O :  0.46
   97O :  0.45  364O :  0.43  385O :  0.43  211O :  0.43  388O :  0.41  232O :  0.40  292O :  0.40  375H :  0.40   25O :  0.38  376O :  0.38  436O :  0.38  490O :  0.37
   70O :  0.37  190O :  0.37  100O :  0.36  205O :  0.36  415O :  0.35  121O :  0.35  301O :  0.35   79O :  0.35    7O :  0.34   94O :  0.34  220O :  0.33  460O :  0.33
  382O :  0.32  352O :  0.32  316O :  0.32  379O :  0.32  397O :  0.32  199O :  0.31  136O :  0.31  307O :  0.31  328O :  0.31  358O :  0.31  481O :  0.31  223O :  0.31
   74H :  0.29  202O :  0.29  196O :  0.29  508O :  0.28  421O :  0.27  157O :  0.27  304O :  0.27  346O :  0.27  448O :  0.26    4O :  0.26  256O :  0.26  402H :  0.26
  154O :  0.25  151O :  0.25  325O :  0.25  466O :  0.25  239H :  0.24  283O :  0.24  290H :  0.24  262O :  0.23  529O :  0.23  361O :  0.22  124O :  0.22  109O :  0.22
  106O :  0.21  343O :  0.21  446H :  0.21  337O :  0.20  248H :  0.20   56H :  0.20  162H :  0.19  367O :  0.19  235O :  0.19  182H :  0.18  413H :  0.18  268O :  0.17
   53H :  0.16   40O :  0.15  464H :  0.15  528H :  0.15   46O :  0.15   20H :  0.15  253O :  0.14  166O :  0.14   64O :  0.14   43O :  0.14  439O :  0.13  327H :  0.13
  240H :  0.13  132H :  0.13   36H :  0.13  453H :  0.13  104H :  0.12  493O :  0.12  140H :  0.12  141H :  0.12  112O :  0.12  102H :  0.11  265O :  0.11  298O :  0.11
   32H :  0.10  507H :  0.10  391O :  0.10  142O :  0.10  457O :  0.10  295O :  0.10  317H :  0.09  489H :  0.09  170H :  0.09  291H :  0.09   30H :  0.09   59H :  0.09
  279H :  0.09  155H :  0.08  357H :  0.08  344H :  0.08  222H :  0.08  485H :  0.08   16O :  0.08   83H :  0.08  442O :  0.08  138H :  0.07   33H :  0.07  424O :  0.07
  274O :  0.07   84H :  0.07
   18 LP   *******   0.01   9.80859 -19.59102 -13.37534  217O :  3.22  406O :  3.20  403O :  3.18  175O :  2.06  340O :  1.90   82O :  1.79   52O :  1.64  469O :  1.60  499O :  1.59  322O :  1.50  271O :  1.49  505O :  1.46
  163O :  1.44  394O :  1.43  247O :  1.40   10O :  1.34  349O :  1.27  238O :  1.27   73O :  1.25  187O :  1.23  400O :  1.22  478O :  1.22  373O :  1.21  430O :  1.20
  289O :  1.18  310O :  1.18  181O :  1.16  445O :  1.14  193O :  1.11   31O :  1.00  208O :  0.99   28O :  0.94  103O :  0.94   61O :  0.94    1O :  0.91  409O :  0.90
   34O :  0.89  214O :  0.85  133O :  0.85  334O :  0.77  487O :  0.76  454O :  0.76   58O :  0.72  145O :  0.71   19O :  0.71  169O :  0.68  517O :  0.67  148O :  0.65
  218H :  0.65   55O :  0.64  511O :  0.63  118O :  0.62  475O :  0.62  427O :  0.62   91O :  0.60  160O :  0.60  484O :  0.60  319O :  0.59  139O :  0.59  412O :  0.58
  127O :  0.56  259O :  0.56   85O :  0.53  463O :  0.52  514O :  0.50  526O :  0.49  451O :  0.48  418O :  0.47   88O :  0.47   37O :  0.47  355O :  0.46  130O :  0.45
  277O :  0.45  520O :  0.45  286O :  0.44   22O :  0.43  226O :  0.43   76O :  0.43  331O :  0.43   13O :  0.43  496O :  0.43   67O :  0.43  184O :  0.42  229O :  0.41
   97O :  0.40  364O :  0.39  385O :  0.38  211O :  0.38  388O :  0.36  232O :  0.36  292O :  0.35  375H :  0.35  376O :  0.34  436O :  0.34   25O :  0.33  490O :  0.33
   70O :  0.33  190O :  0.33  100O :  0.32  205O :  0.32  415O :  0.31  121O :  0.31  301O :  0.31   79O :  0.31    7O :  0.31   94O :  0.31  220O :  0.29  460O :  0.29
  382O :  0.29  352O :  0.29  316O :  0.29  379O :  0.28  397O :  0.28  199O :  0.28  136O :  0.28  307O :  0.28  328O :  0.28  358O :  0.27  481O :  0.27  223O :  0.27
   74H :  0.26  202O :  0.26  196O :  0.26    4O :  0.25  508O :  0.25  421O :  0.24  157O :  0.24  304O :  0.24  346O :  0.24  448O :  0.24  256O :  0.23  402H :  0.23
  154O :  0.22  151O :  0.22  325O :  0.22  466O :  0.22  239H :  0.22  290H :  0.22  283O :  0.22  262O :  0.21  529O :  0.21  361O :  0.20  124O :  0.20  109O :  0.20
  106O :  0.19  343O :  0.19  446H :  0.18  337O :  0.18  248H :  0.18   56H :  0.17  162H :  0.17  367O :  0.17  235O :  0.17  182H :  0.16  413H :  0.16  268O :  0.16
   53H :  0.15   40O :  0.14  464H :  0.13  528H :  0.13   46O :  0.13   20H :  0.13  253O :  0.12  166O :  0.12   64O :  0.12   43O :  0.12  439O :  0.12  327H :  0.12
  240H :  0.12  132H :  0.12   36H :  0.12  453H :  0.11  104H :  0.11  493O :  0.11  140H :  0.11  141H :  0.11  112O :  0.10  102H :  0.10  265O :  0.10  298O :  0.10
   32H :  0.09  507H :  0.09  391O :  0.09  142O :  0.09  457O :  0.09  295O :  0.09  317H :  0.08  489H :  0.08  170H :  0.08   30H :  0.08   59H :  0.08  279H :  0.08
  291H :  0.08  155H :  0.08  357H :  0.07  344H :  0.07   16O :  0.07  222H :  0.07  485H :  0.07   83H :  0.07
   19 LP   *******   0.01 -28.68739   2.09579   5.52024  217O :  3.25  403O :  3.18  310O :  2.82  175O :  2.05  340O :  1.89   82O :  1.79   52O :  1.63  469O :  1.60  499O :  1.58  322O :  1.50  271O :  1.49  505O :  1.46
  163O :  1.44  406O :  1.44  394O :  1.43  247O :  1.40   10O :  1.34  349O :  1.27  238O :  1.27   73O :  1.24  187O :  1.23  400O :  1.21  478O :  1.21  373O :  1.21
  430O :  1.20  181O :  1.16  289O :  1.16  445O :  1.13  193O :  1.11   31O :  1.03  208O :  0.98   28O :  0.94  103O :  0.94   61O :  0.94    1O :  0.91  409O :  0.90
   34O :  0.89  214O :  0.85  133O :  0.85  334O :  0.77  487O :  0.76  454O :  0.76   58O :  0.72  145O :  0.71  517O :  0.70   19O :  0.70  169O :  0.68  218H :  0.66
  148O :  0.65   55O :  0.64  511O :  0.63  475O :  0.62  118O :  0.62  427O :  0.62   91O :  0.61  160O :  0.60  484O :  0.60  319O :  0.59  412O :  0.58  139O :  0.58
  127O :  0.56  259O :  0.56   85O :  0.52  463O :  0.52  514O :  0.50  526O :  0.49  451O :  0.48  418O :  0.47   88O :  0.47   37O :  0.46  355O :  0.46  130O :  0.45
  277O :  0.45  520O :  0.44  286O :  0.44   22O :  0.43  226O :  0.43   76O :  0.43  331O :  0.43   13O :  0.43  496O :  0.42   67O :  0.42  184O :  0.42  229O :  0.41
   97O :  0.40  364O :  0.39  385O :  0.38  211O :  0.38  388O :  0.36  232O :  0.36  292O :  0.35  375H :  0.35  376O :  0.34  436O :  0.34  490O :  0.33   70O :  0.33
  190O :  0.33   25O :  0.33  100O :  0.32  205O :  0.32  415O :  0.31  121O :  0.31  301O :  0.31   79O :  0.31    7O :  0.31   94O :  0.31  220O :  0.29  460O :  0.29
  382O :  0.29  352O :  0.29  316O :  0.28  379O :  0.28  397O :  0.28  199O :  0.28  136O :  0.28  307O :  0.28  328O :  0.28  358O :  0.27  481O :  0.27  223O :  0.27
   74H :  0.26  202O :  0.26  196O :  0.26    4O :  0.25  508O :  0.25  421O :  0.24  157O :  0.24  304O :  0.24  346O :  0.24  448O :  0.24  256O :  0.23  402H :  0.23
  154O :  0.22  151O :  0.22  325O :  0.22  466O :  0.22  239H :  0.22  290H :  0.21  283O :  0.21  262O :  0.21  529O :  0.21  361O :  0.20  124O :  0.20  109O :  0.20
  343O :  0.19  106O :  0.19  446H :  0.18   32H :  0.18  337O :  0.18  248H :  0.18   56H :  0.17  162H :  0.17  367O :  0.17  235O :  0.17  182H :  0.16  413H :  0.16
  268O :  0.16   53H :  0.15   40O :  0.14  528H :  0.13  464H :  0.13   46O :  0.13   20H :  0.13  253O :  0.12  166O :  0.12   64O :  0.12   43O :  0.12  439O :  0.12
  327H :  0.12  240H :  0.12  132H :  0.12   36H :  0.12  453H :  0.11  104H :  0.11  493O :  0.11  141H :  0.11  140H :  0.10  112O :  0.10  102H :  0.10  265O :  0.10
  298O :  0.10  507H :  0.09  391O :  0.09  142O :  0.09  457O :  0.09  295O :  0.09  317H :  0.08  489H :  0.08  170H :  0.08  291H :  0.08   30H :  0.08   59H :  0.08
  279H :  0.08  155H :  0.08  357H :  0.07  344H :  0.07  222H :  0.07  485H :  0.07   16O :  0.07   83H :  0.07
   20 LP   *******   0.01 -12.86013  25.09186  -9.08205  217O :  3.20  403O :  3.13  133O :  2.49  175O :  2.02  340O :  1.87   82O :  1.76   52O :  1.61  469O :  1.57  499O :  1.56  322O :  1.47  271O :  1.47  505O :  1.43
  163O :  1.42  406O :  1.41  394O :  1.41  247O :  1.38   10O :  1.31  349O :  1.25  238O :  1.25   73O :  1.23  187O :  1.21  400O :  1.20  478O :  1.20  373O :  1.19
  430O :  1.17  310O :  1.16  181O :  1.14  289O :  1.14  445O :  1.12  193O :  1.09   31O :  0.99  208O :  0.97  103O :  0.93   28O :  0.93   61O :  0.92    1O :  0.89
  409O :  0.89   34O :  0.88  214O :  0.84  334O :  0.75  487O :  0.75  454O :  0.74   58O :  0.71  145O :  0.70  517O :  0.69   19O :  0.69  169O :  0.66  148O :  0.65
  218H :  0.65   55O :  0.63  118O :  0.63  511O :  0.62  475O :  0.61  427O :  0.61   91O :  0.60  160O :  0.59  484O :  0.59  319O :  0.58  139O :  0.58  412O :  0.57
  127O :  0.55  259O :  0.55   85O :  0.52  463O :  0.51  514O :  0.49  526O :  0.48  451O :  0.47  418O :  0.46   37O :  0.46   88O :  0.46  355O :  0.46  130O :  0.44
  277O :  0.44  520O :  0.44  286O :  0.43   22O :  0.43  226O :  0.43   76O :  0.42  331O :  0.42   13O :  0.42   67O :  0.42  496O :  0.42  184O :  0.41  229O :  0.40
   97O :  0.39  364O :  0.38  385O :  0.38  211O :  0.38  388O :  0.36  232O :  0.35  292O :  0.35  375H :  0.35  376O :  0.33  436O :  0.33   25O :  0.33  490O :  0.33
   70O :  0.32  190O :  0.32  100O :  0.32  205O :  0.31  415O :  0.31  121O :  0.31  301O :  0.30   79O :  0.30   94O :  0.30    7O :  0.29  220O :  0.29  460O :  0.29
  382O :  0.28  352O :  0.28  316O :  0.28  397O :  0.28  379O :  0.28  199O :  0.27  136O :  0.27  307O :  0.27  328O :  0.27  358O :  0.27  481O :  0.27  223O :  0.27
   74H :  0.26  202O :  0.25  196O :  0.25    4O :  0.25  508O :  0.24  421O :  0.24  157O :  0.24  304O :  0.24  346O :  0.24  448O :  0.23  256O :  0.23  402H :  0.22
  154O :  0.22  151O :  0.22  325O :  0.22  466O :  0.22  239H :  0.21  290H :  0.21  283O :  0.21  262O :  0.21  529O :  0.20  361O :  0.20  124O :  0.20  109O :  0.19
  343O :  0.19  106O :  0.19  446H :  0.18  337O :  0.18  248H :  0.17   56H :  0.17  162H :  0.17  367O :  0.16  235O :  0.16  182H :  0.16  413H :  0.16  268O :  0.15
   53H :  0.14   40O :  0.13  464H :  0.13  528H :  0.13   46O :  0.13   20H :  0.13   43O :  0.12  119H :  0.12  253O :  0.12  166O :  0.12   64O :  0.12  439O :  0.12
  327H :  0.12  240H :  0.12  132H :  0.11   36H :  0.11  453H :  0.11  104H :  0.11  493O :  0.11  140H :  0.11  141H :  0.10  112O :  0.10  102H :  0.10  265O :  0.10
  298O :  0.10   32H :  0.09  507H :  0.09  391O :  0.09  142O :  0.09  457O :  0.09  295O :  0.08  317H :  0.08  489H :  0.08  170H :  0.08  291H :  0.08   30H :  0.08
  442O :  0.08   59H :  0.07  279H :  0.07  155H :  0.07  357H :  0.07  344H :  0.07  222H :  0.07  485H :  0.07
   21 LP   *******   0.01 -30.88906   4.82561  22.13927  217O :  3.20  403O :  3.14  208O :  2.48  175O :  2.02  340O :  1.86   82O :  1.76   52O :  1.61  469O :  1.57  499O :  1.56  322O :  1.47  271O :  1.47  505O :  1.43
  163O :  1.42  406O :  1.42  394O :  1.41  247O :  1.38   10O :  1.32  349O :  1.25  238O :  1.25   73O :  1.23  187O :  1.21  373O :  1.20  400O :  1.20  478O :  1.20
  430O :  1.18  310O :  1.16  181O :  1.14  289O :  1.14  445O :  1.12  193O :  1.10   31O :  0.99   28O :  0.93  103O :  0.93   61O :  0.92    1O :  0.90  409O :  0.89
   34O :  0.88  133O :  0.84  214O :  0.80  334O :  0.76  487O :  0.75  454O :  0.75   58O :  0.71  145O :  0.70   19O :  0.69  517O :  0.69  169O :  0.67  218H :  0.65
  148O :  0.64   55O :  0.63  511O :  0.62  118O :  0.61  475O :  0.61  427O :  0.61  160O :  0.60   91O :  0.60  484O :  0.59  319O :  0.58  139O :  0.58  412O :  0.57
  127O :  0.55  259O :  0.55   85O :  0.52  463O :  0.51  514O :  0.49  526O :  0.48  451O :  0.47  418O :  0.46   88O :  0.46   37O :  0.46  355O :  0.46  520O :  0.44
  277O :  0.44  130O :  0.43  286O :  0.43   22O :  0.43  226O :  0.43   76O :  0.43  331O :  0.42   13O :  0.42  496O :  0.42   67O :  0.42  184O :  0.41  229O :  0.40
[...]
   144   1 h    0.889 --   142 o    0.835
   145   8 o    1.856 --   146 h    0.868   147 h    0.834
   146   1 h    0.899 --   145 o    0.868
   147   1 h    0.892 --   145 o    0.834
   148   8 o    1.849 --   150 h    0.857   149 h    0.827
   149   1 h    0.890 --   148 o    0.827
   150   1 h    0.897 --   148 o    0.857
   151   8 o    1.852 --   153 h    0.847   152 h    0.822
   152   1 h    0.886 --   151 o    0.822
   153   1 h    0.889 --   151 o    0.847
   154   8 o    1.820 --   156 h    0.875   155 h    0.828
   155   1 h    0.885 --   154 o    0.828
   156   1 h    0.902 --   154 o    0.875
   157   8 o    1.862 --   159 h    0.818   158 h    0.818
   158   1 h    0.894 --   157 o    0.818
   159   1 h    0.881 --   157 o    0.818
   160   8 o    1.865 --   161 h    0.806   162 h    0.806
   161   1 h    0.887 --   160 o    0.806
   162   1 h    0.871 --   160 o    0.806
   163   8 o    1.847 --   164 h    0.886   165 h    0.820
   164   1 h    0.903 --   163 o    0.886
   165   1 h    0.886 --   163 o    0.820
   166   8 o    1.901 --   168 h    0.827   167 h    0.807
   167   1 h    0.886 --   166 o    0.807
   168   1 h    0.888 --   166 o    0.827
   169   8 o    1.852 --   171 h    0.920   170 h    0.830
   170   1 h    0.881 --   169 o    0.830
   171   1 h    0.923 --   169 o    0.920
   172   8 o    1.827 --   173 h    0.869   174 h    0.868
   173   1 h    0.899 --   172 o    0.869
   174   1 h    0.894 --   172 o    0.868
   175   8 o    1.839 --   176 h    0.844   177 h    0.823
   176   1 h    0.899 --   175 o    0.844
   177   1 h    0.888 --   175 o    0.823
   178   8 o    1.874 --   179 h    0.883   180 h    0.778
   179   1 h    0.902 --   178 o    0.883
   180   1 h    0.869 --   178 o    0.778
   181   8 o    1.849 --   182 h    0.833   183 h    0.812
   182   1 h    0.892 --   181 o    0.833
   183   1 h    0.883 --   181 o    0.812
   184   8 o    1.867 --   186 h    0.887   185 h    0.810
   185   1 h    0.876 --   184 o    0.810
   186   1 h    0.904 --   184 o    0.887
   187   8 o    1.846 --   188 h    0.836   189 h    0.829
   188   1 h    0.889 --   187 o    0.836
   189   1 h    0.888 --   187 o    0.829
   190   8 o    1.877 --   192 h    0.843   191 h    0.806
   191   1 h    0.867 --   190 o    0.806
   192   1 h    0.886 --   190 o    0.843
   193   8 o    1.875 --   195 h    0.838   194 h    0.798
   194   1 h    0.873 --   193 o    0.798
   195   1 h    0.888 --   193 o    0.838
   196   8 o    1.851 --   197 h    0.884   198 h    0.810
   197   1 h    0.901 --   196 o    0.884
   198   1 h    0.887 --   196 o    0.810
   199   8 o    1.877 --   201 h    0.827   200 h    0.809
   200   1 h    0.870 --   199 o    0.809
   201   1 h    0.891 --   199 o    0.827
   202   8 o    1.842 --   203 h    0.841   204 h    0.838
   203   1 h    0.895 --   202 o    0.841
   204   1 h    0.888 --   202 o    0.838
   205   8 o    1.853 --   206 h    0.866   207 h    0.851
   206   1 h    0.894 --   205 o    0.866
   207   1 h    0.889 --   205 o    0.851
   208   8 o    1.835 --   210 h    0.851   209 h    0.815
   209   1 h    0.889 --   208 o    0.815
   210   1 h    0.889 --   208 o    0.851
   211   8 o    1.851 --   212 h    0.897   213 h    0.838
   212   1 h    0.906 --   211 o    0.897
   213   1 h    0.889 --   211 o    0.838
   214   8 o    1.855 --   215 h    0.869   216 h    0.837
   215   1 h    0.897 --   214 o    0.869
   216   1 h    0.891 --   214 o    0.837
   217   8 o    1.862 --   218 h    0.813   219 h    0.788
   218   1 h    0.888 --   217 o    0.813
   219   1 h    0.881 --   217 o    0.788
   220   8 o    1.858 --   221 h    0.895   222 h    0.786
   221   1 h    0.910 --   220 o    0.895
   222   1 h    0.870 --   220 o    0.786
   223   8 o    1.848 --   224 h    0.853   225 h    0.847
   224   1 h    0.885 --   223 o    0.853
   225   1 h    0.893 --   223 o    0.847
   226   8 o    1.897 --   227 h    0.830   228 h    0.820
   227   1 h    0.886 --   226 o    0.830
   228   1 h    0.888 --   226 o    0.820
   229   8 o    1.844 --   230 h    0.840   231 h    0.812
   230   1 h    0.895 --   229 o    0.840
   231   1 h    0.879 --   229 o    0.812
   232   8 o    1.856 --   233 h    0.868   234 h    0.860
   233   1 h    0.897 --   232 o    0.868
   234   1 h    0.899 --   232 o    0.860
   235   8 o    1.890 --   237 h    0.836   236 h    0.781
   236   1 h    0.866 --   235 o    0.781
   237   1 h    0.890 --   235 o    0.836
   238   8 o    1.873 --   240 h    0.824   239 h    0.800
   239   1 h    0.879 --   238 o    0.800
   240   1 h    0.885 --   238 o    0.824
   241   8 o    1.853 --   242 h    0.899   243 h    0.801
   242   1 h    0.911 --   241 o    0.899
   243   1 h    0.878 --   241 o    0.801
   244   8 o    1.847 --   245 h    0.880   246 h    0.780
   245   1 h    0.899 --   244 o    0.880
   246   1 h    0.872 --   244 o    0.780
   247   8 o    1.836 --   248 h    0.851   249 h    0.799
   248   1 h    0.890 --   247 o    0.851
   249   1 h    0.875 --   247 o    0.799
   250   8 o    1.886 --   252 h    0.833   251 h    0.818
   251   1 h    0.882 --   250 o    0.818
   252   1 h    0.881 --   250 o    0.833
   253   8 o    1.865 --   255 h    0.868   254 h    0.855
   254   1 h    0.892 --   253 o    0.855
   255   1 h    0.898 --   253 o    0.868
   256   8 o    1.814 --   258 h    0.855   257 h    0.852
   257   1 h    0.892 --   256 o    0.852
   258   1 h    0.894 --   256 o    0.855
   259   8 o    1.861 --   260 h    0.844   261 h    0.823
   260   1 h    0.883 --   259 o    0.844
   261   1 h    0.884 --   259 o    0.823
   262   8 o    1.848 --   264 h    0.887   263 h    0.804
   263   1 h    0.876 --   262 o    0.804
   264   1 h    0.905 --   262 o    0.887
   265   8 o    1.843 --   266 h    0.864   267 h    0.832
   266   1 h    0.896 --   265 o    0.864
   267   1 h    0.883 --   265 o    0.832
   268   8 o    1.853 --   269 h    0.821   270 h    0.802
   269   1 h    0.889 --   268 o    0.821
   270   1 h    0.880 --   268 o    0.802
   271   8 o    1.845 --   273 h    0.864   272 h    0.860
   272   1 h    0.894 --   271 o    0.860
   273   1 h    0.898 --   271 o    0.864
   274   8 o    1.862 --   275 h    0.850   276 h    0.825
   275   1 h    0.892 --   274 o    0.850
   276   1 h    0.884 --   274 o    0.825
   277   8 o    1.853 --   279 h    0.872   278 h    0.809
   278   1 h    0.876 --   277 o    0.809
   279   1 h    0.905 --   277 o    0.872
   280   8 o    1.855 --   282 h    0.909   281 h    0.846
   281   1 h    0.888 --   280 o    0.846
   282   1 h    0.912 --   280 o    0.909
   283   8 o    1.867 --   285 h    0.884   284 h    0.882
   284   1 h    0.897 --   283 o    0.882
   285   1 h    0.902 --   283 o    0.884
   286   8 o    1.841 --   288 h    0.851   287 h    0.811
   287   1 h    0.879 --   286 o    0.811
   288   1 h    0.898 --   286 o    0.851
   289   8 o    1.849 --   290 h    0.854   291 h    0.830
   290   1 h    0.900 --   289 o    0.854
   291   1 h    0.883 --   289 o    0.830
   292   8 o    1.841 --   294 h    0.893   293 h    0.789
   293   1 h    0.877 --   292 o    0.789
   294   1 h    0.911 --   292 o    0.893
   295   8 o    1.850 --   296 h    0.876   297 h    0.811
   296   1 h    0.897 --   295 o    0.876
   297   1 h    0.883 --   295 o    0.811
   298   8 o    1.852 --   300 h    0.903   299 h    0.783
   299   1 h    0.872 --   298 o    0.783
   300   1 h    0.915 --   298 o    0.903
   301   8 o    1.880 --   302 h    0.915   303 h    0.799
   302   1 h    0.919 --   301 o    0.915
   303   1 h    0.878 --   301 o    0.799
   304   8 o    1.855 --   305 h    0.919   306 h    0.804
   305   1 h    0.924 --   304 o    0.919
   306   1 h    0.879 --   304 o    0.804
   307   8 o    1.857 --   308 h    0.919   309 h    0.786
   308   1 h    0.923 --   307 o    0.919
   309   1 h    0.882 --   307 o    0.786
   310   8 o    1.867 --   311 h    0.829   312 h    0.819
   311   1 h    0.880 --   310 o    0.829
   312   1 h    0.885 --   310 o    0.819
   313   8 o    1.867 --   315 h    0.846   314 h    0.833
   314   1 h    0.894 --   313 o    0.833
   315   1 h    0.893 --   313 o    0.846
   316   8 o    1.848 --   318 h    0.858   317 h    0.857
   317   1 h    0.891 --   316 o    0.857
   318   1 h    0.892 --   316 o    0.858
   319   8 o    1.858 --   320 h    0.914   321 h    0.810
   320   1 h    0.918 --   319 o    0.914
   321   1 h    0.874 --   319 o    0.810
   322   8 o    1.834 --   324 h    0.850   323 h    0.804
   323   1 h    0.886 --   322 o    0.804
   324   1 h    0.898 --   322 o    0.850
   325   8 o    1.899 --   327 h    0.839   326 h    0.808
   326   1 h    0.869 --   325 o    0.808
   327   1 h    0.884 --   325 o    0.839
   328   8 o    1.866 --   330 h    0.819   329 h    0.808
   329   1 h    0.883 --   328 o    0.808
   330   1 h    0.890 --   328 o    0.819
   331   8 o    1.863 --   333 h    0.834   332 h    0.814
   332   1 h    0.879 --   331 o    0.814
   333   1 h    0.893 --   331 o    0.834
   334   8 o    1.861 --   335 h    0.839   336 h    0.830
   335   1 h    0.893 --   334 o    0.839
   336   1 h    0.894 --   334 o    0.830
   337   8 o    1.847 --   339 h    0.859   338 h    0.822
   338   1 h    0.886 --   337 o    0.822
   339   1 h    0.897 --   337 o    0.859
   340   8 o    1.850 --   342 h    0.853   341 h    0.830
   341   1 h    0.890 --   340 o    0.830
   342   1 h    0.895 --   340 o    0.853
   343   8 o    1.883 --   344 h    0.833   345 h    0.817
   344   1 h    0.894 --   343 o    0.833
   345   1 h    0.876 --   343 o    0.817
   346   8 o    1.826 --   348 h    0.882   347 h    0.833
   347   1 h    0.894 --   346 o    0.833
   348   1 h    0.902 --   346 o    0.882
   349   8 o    1.885 --   351 h    0.814   350 h    0.807
   350   1 h    0.882 --   349 o    0.807
   351   1 h    0.880 --   349 o    0.814
   352   8 o    1.836 --   354 h    0.865   353 h    0.854
   353   1 h    0.895 --   352 o    0.854
   354   1 h    0.893 --   352 o    0.865
   355   8 o    1.856 --   357 h    0.853   356 h    0.848
   356   1 h    0.887 --   355 o    0.848
   357   1 h    0.894 --   355 o    0.853
   358   8 o    1.868 --   360 h    0.851   359 h    0.845
   359   1 h    0.892 --   358 o    0.845
   360   1 h    0.889 --   358 o    0.851
   361   8 o    1.875 --   362 h    0.890   363 h    0.841
   362   1 h    0.903 --   361 o    0.890
   363   1 h    0.890 --   361 o    0.841
   364   8 o    1.862 --   365 h    0.838   366 h    0.828
   365   1 h    0.882 --   364 o    0.838
   366   1 h    0.887 --   364 o    0.828
   367   8 o    1.859 --   368 h    0.831   369 h    0.805
   368   1 h    0.892 --   367 o    0.831
   369   1 h    0.887 --   367 o    0.805
   370   8 o    1.870 --   372 h    0.912   371 h    0.833
   371   1 h    0.878 --   370 o    0.833
   372   1 h    0.917 --   370 o    0.912
   373   8 o    1.869 --   375 h    0.825   374 h    0.812
   374   1 h    0.881 --   373 o    0.812
   375   1 h    0.879 --   373 o    0.825
   376   8 o    1.866 --   378 h    0.916   377 h    0.817
   377   1 h    0.881 --   376 o    0.817
   378   1 h    0.920 --   376 o    0.916
   379   8 o    1.835 --   381 h    0.907   380 h    0.818
   380   1 h    0.888 --   379 o    0.818
   381   1 h    0.914 --   379 o    0.907
   382   8 o    1.859 --   383 h    0.849   384 h    0.822
   383   1 h    0.884 --   382 o    0.849
   384   1 h    0.888 --   382 o    0.822
   385   8 o    1.823 --   386 h    0.821   387 h    0.801
   386   1 h    0.893 --   385 o    0.821
   387   1 h    0.880 --   385 o    0.801
   388   8 o    1.838 --   390 h    0.836   389 h    0.804
   389   1 h    0.884 --   388 o    0.804
   390   1 h    0.897 --   388 o    0.836
   391   8 o    1.835 --   393 h    0.905   392 h    0.848
   392   1 h    0.891 --   391 o    0.848
   393   1 h    0.915 --   391 o    0.905
   394   8 o    1.837 --   395 h    0.808   396 h    0.801
   395   1 h    0.875 --   394 o    0.808
   396   1 h    0.870 --   394 o    0.801
   397   8 o    1.839 --   398 h    0.875   399 h    0.847
   398   1 h    0.905 --   397 o    0.875
   399   1 h    0.889 --   397 o    0.847
   400   8 o    1.849 --   402 h    0.822   401 h    0.816
   401   1 h    0.887 --   400 o    0.816
   402   1 h    0.893 --   400 o    0.822
   403   8 o    1.844 --   405 h    0.780   404 h    0.766
   404   1 h    0.869 --   403 o    0.766
   405   1 h    0.877 --   403 o    0.780
   406   8 o    1.835 --   408 h    0.886   407 h    0.793
   407   1 h    0.877 --   406 o    0.793
   408   1 h    0.905 --   406 o    0.886
   409   8 o    1.843 --   411 h    0.875   410 h    0.806
   410   1 h    0.878 --   409 o    0.806
   411   1 h    0.902 --   409 o    0.875
   412   8 o    1.859 --   413 h    0.847   414 h    0.833
   413   1 h    0.887 --   412 o    0.847
   414   1 h    0.893 --   412 o    0.833
   415   8 o    1.845 --   417 h    0.860   416 h    0.781
   416   1 h    0.873 --   415 o    0.781
   417   1 h    0.897 --   415 o    0.860
   418   8 o    1.851 --   419 h    0.867   420 h    0.828
   419   1 h    0.893 --   418 o    0.867
   420   1 h    0.888 --   418 o    0.828
   421   8 o    1.865 --   422 h    0.918   423 h    0.843
   422   1 h    0.920 --   421 o    0.918
   423   1 h    0.883 --   421 o    0.843
   424   8 o    1.810 --   425 h    0.874   426 h    0.851
   425   1 h    0.904 --   424 o    0.874
   426   1 h    0.893 --   424 o    0.851
   427   8 o    1.855 --   428 h    0.819   429 h    0.814
   428   1 h    0.888 --   427 o    0.819
   429   1 h    0.872 --   427 o    0.814
   430   8 o    1.794 --   431 h    0.887   432 h    0.833
   431   1 h    0.907 --   430 o    0.887
   432   1 h    0.889 --   430 o    0.833
   433   8 o    1.846 --   434 h    0.863   435 h    0.792
   434   1 h    0.901 --   433 o    0.863
   435   1 h    0.880 --   433 o    0.792
   436   8 o    1.894 --   437 h    0.829   438 h    0.810
   437   1 h    0.889 --   436 o    0.829
   438   1 h    0.888 --   436 o    0.810
   439   8 o    1.832 --   441 h    0.864   440 h    0.844
   440   1 h    0.890 --   439 o    0.844
   441   1 h    0.896 --   439 o    0.864
   442   8 o    1.868 --   444 h    0.851   443 h    0.823
   443   1 h    0.884 --   442 o    0.823
   444   1 h    0.891 --   442 o    0.851
   445   8 o    1.877 --   447 h    0.814   446 h    0.809
   446   1 h    0.876 --   445 o    0.809
   447   1 h    0.885 --   445 o    0.814
   448   8 o    1.845 --   450 h    0.862   449 h    0.862
   449   1 h    0.896 --   448 o    0.862
   450   1 h    0.885 --   448 o    0.862
   451   8 o    1.847 --   453 h    0.837   452 h    0.782
   452   1 h    0.875 --   451 o    0.782
   453   1 h    0.898 --   451 o    0.837
   454   8 o    1.827 --   456 h    0.916   455 h    0.781
   455   1 h    0.875 --   454 o    0.781
   456   1 h    0.924 --   454 o    0.916
   457   8 o    1.849 --   458 h    0.867   459 h    0.827
   458   1 h    0.896 --   457 o    0.867
   459   1 h    0.893 --   457 o    0.827
   460   8 o    1.862 --   462 h    0.853   461 h    0.816
   461   1 h    0.879 --   460 o    0.816
   462   1 h    0.892 --   460 o    0.853
   463   8 o    1.869 --   465 h    0.829   464 h    0.821
   464   1 h    0.887 --   463 o    0.821
   465   1 h    0.888 --   463 o    0.829
   466   8 o    1.875 --   468 h    0.865   467 h    0.847
   467   1 h    0.888 --   466 o    0.847
   468   1 h    0.892 --   466 o    0.865
   469   8 o    1.860 --   471 h    0.887   470 h    0.807
   470   1 h    0.880 --   469 o    0.807
   471   1 h    0.905 --   469 o    0.887
   472   8 o    1.860 --   473 h    0.918   474 h    0.838
   473   1 h    0.921 --   472 o    0.918
   474   1 h    0.883 --   472 o    0.838
   475   8 o    1.832 --   477 h    0.905   476 h    0.797
   476   1 h    0.873 --   475 o    0.797
   477   1 h    0.916 --   475 o    0.905
   478   8 o    1.845 --   479 h    0.827   480 h    0.821
   479   1 h    0.877 --   478 o    0.827
   480   1 h    0.893 --   478 o    0.821
   481   8 o    1.864 --   483 h    0.860   482 h    0.842
   482   1 h    0.886 --   481 o    0.842
   483   1 h    0.893 --   481 o    0.860
   484   8 o    1.848 --   485 h    0.804   486 h    0.790
   485   1 h    0.883 --   484 o    0.804
   486   1 h    0.876 --   484 o    0.790
   487   8 o    1.825 --   488 h    0.868   489 h    0.853
   488   1 h    0.899 --   487 o    0.868
   489   1 h    0.898 --   487 o    0.853
   490   8 o    1.833 --   492 h    0.811   491 h    0.809
   491   1 h    0.884 --   490 o    0.809
   492   1 h    0.883 --   490 o    0.811
   493   8 o    1.853 --   494 h    0.886   495 h    0.809
   494   1 h    0.903 --   493 o    0.886
   495   1 h    0.877 --   493 o    0.809
   496   8 o    1.842 --   497 h    0.905   498 h    0.869
   497   1 h    0.911 --   496 o    0.905
   498   1 h    0.894 --   496 o    0.869
   499   8 o    1.812 --   501 h    0.843   500 h    0.820
   500   1 h    0.883 --   499 o    0.820
   501   1 h    0.894 --   499 o    0.843
   502   8 o    1.840 --   503 h    0.866   504 h    0.862
   503   1 h    0.895 --   502 o    0.866
   504   1 h    0.895 --   502 o    0.862
   505   8 o    1.854 --   507 h    0.857   506 h    0.836
   506   1 h    0.879 --   505 o    0.836
   507   1 h    0.899 --   505 o    0.857
   508   8 o    1.857 --   509 h    0.916   510 h    0.825
   509   1 h    0.919 --   508 o    0.916
   510   1 h    0.881 --   508 o    0.825
   511   8 o    1.828 --   513 h    0.864   512 h    0.836
   512   1 h    0.889 --   511 o    0.836
   513   1 h    0.900 --   511 o    0.864
   514   8 o    1.839 --   515 h    0.854   516 h    0.846
   515   1 h    0.893 --   514 o    0.854
   516   1 h    0.895 --   514 o    0.846
   517   8 o    1.861 --   519 h    0.851   518 h    0.806
   518   1 h    0.877 --   517 o    0.806
   519   1 h    0.897 --   517 o    0.851
   520   8 o    1.890 --   522 h    0.851   521 h    0.821
   521   1 h    0.874 --   520 o    0.821
   522   1 h    0.889 --   520 o    0.851
   523   8 o    1.824 --   525 h    0.841   524 h    0.814
   524   1 h    0.877 --   523 o    0.814
   525   1 h    0.895 --   523 o    0.841
   526   8 o    1.837 --   527 h    0.882   528 h    0.871
   527   1 h    0.898 --   526 o    0.882
   528   1 h    0.887 --   526 o    0.871
   529   8 o    1.842 --   530 h    0.861   531 h    0.826
   530   1 h    0.892 --   529 o    0.861
   531   1 h    0.879 --   529 o    0.826
 ---------------------------------------------------------------------------

Topologies differ in total number of bonds
Writing topology from bond orders to xtbtopo.mol

molecular dipole:
                 x           y           z       tot (Debye)
 q only:       -4.419      -0.166       0.014
   full:       -6.058      -0.022       0.296      15.416
molecular quadrupole (traceless):
                xx          xy          yy          xz          yz          zz
 q only:      108.655     -14.567     -50.868      17.729      20.140     -57.788
  q+dip:      124.910     -20.665     -52.847      29.223      19.601     -72.062
   full:      124.880     -21.220     -52.863      30.579      19.095     -72.017


           -------------------------------------------------
          | TOTAL ENERGY             -901.206205545033 Eh   |
          | GRADIENT NORM               0.095637297690 Eh/α |
          | HOMO-LUMO GAP               7.110719028269 eV   |
           -------------------------------------------------

------------------------------------------------------------------------
 * finished run on 2022/11/17 at 06:55:18.644     
------------------------------------------------------------------------
 total:
 * wall-time:     0 d,  0 h,  0 min, 18.906 sec
 *  cpu-time:     0 d,  0 h,  0 min, 25.345 sec
 * ratio c/w:     1.341 speedup
 SCF:
 * wall-time:     0 d,  0 h,  0 min, 18.364 sec
 *  cpu-time:     0 d,  0 h,  0 min, 24.357 sec
 * ratio c/w:     1.326 speedup

