531
 energy: -901.201844684707 gnorm: 0.021208663761 xtb: 6.5.1 (579679a)
o            0.46746025283025       -3.92800251477124       -0.71546462452148
h           -0.42152414699246       -3.89529133690656       -0.32920710175712
h            0.44999834325030       -4.67302104505101       -1.35033197462015
o           -0.78195065605276       -6.38994152025991        0.54673916487529
h           -0.27704175679698       -5.84053224973266        1.16272178472599
h           -0.19247701154264       -7.15016865032858        0.37667836705278
o            1.19417163320810        1.99340325155774       -0.83766484058368
h            1.55132011887321        2.88404717102679       -0.99248963871985
h            0.60657777502347        2.07481284390484       -0.05518188768012
o            4.39871266530041       -0.93484118456839       -0.51973595998059
h            3.89426781530107       -0.48501600170188       -1.22921231235746
h            4.98940839979750       -1.57029639821274       -0.94926701582977
o           -5.30429647268294        0.94537816829083        6.73534471531448
h           -4.87438233936895        1.80983928478839        6.67725804460338
h           -4.70944348217153        0.30843800498396        6.28853613616834
o            0.38472013320662       -6.03959978066366       -2.35492038231722
h            0.44652093987296       -5.76922349024823       -3.29710906970366
h            1.26732944662075       -6.37837428033333       -2.08582217248369
o           -3.62503737967951       -5.97923302366446        1.98641014860657
h           -3.09457996239406       -5.48040477254403        2.63099370490399
h           -4.50829075643391       -6.10515037538218        2.36670991432386
o            6.14390439928642       -3.09641597872352        4.62155033772587
h            6.53346180794470       -3.68738003229573        3.94748410966394
h            5.27749596246923       -3.47483659131500        4.86088788802134
o           -1.90022427100289       -3.86285849041547        0.85772903472219
h           -2.00492249698934       -4.81483219669385        0.75714930465407
h           -1.96169331959973       -3.72648387326784        1.81810955582100
o            0.16682243992278        2.23462527437788        1.57292416956876
h           -0.66068666570335        2.75977073845634        1.60490118980186
h            0.85547634123157        2.76357424900391        2.01136394769133
o           -1.25610510986229       -0.42401187796138       -2.03747735266895
h           -1.91962610610287       -0.97442678599570       -1.57091311015518
h           -1.34330788257207        0.48239096304503       -1.67492628380514
o            2.38452087947139        3.01100719534735        2.86112221955336
h            2.33581021989024        3.86961232268869        3.31420761911779
h            3.30812729048165        2.72162656559559        2.96320130778301
o           -0.75407084813955        4.26709626351153       -1.01001254829419
h           -0.48642384637119        4.51134631275065       -0.09681752311740
h           -1.21133290471590        3.40556741264167       -0.95060281840566
o           -4.88086303546795        4.69203896428638        1.87416037842116
h           -4.85935112256355        3.87516321567383        1.33736860322266
h           -5.04023497038179        5.39732829305178        1.21955340365361
o            0.75678402888791       -0.03614126834687       -4.79900516936257
h            0.42701050128313        0.70676253972848       -4.24045644808266
h            0.22873252187897       -0.08102318548290       -5.61766984810894
o           -0.95328254465701        5.86490579837122       -3.16809277987385
h           -1.01777741577357        5.24655002544053       -2.41176895314310
h           -0.65948412581496        6.69455876679854       -2.78611237971243
o           -2.37357572098651        0.06886532791102       -4.34788001331636
h           -1.74934262160131       -0.17903271319009       -3.63605371695758
h           -3.09755496861785        0.48259240122649       -3.84950853945416
o           -1.30255607355293       -3.09050734987168       -2.78332492247121
h           -1.45890698854668       -3.94075000248872       -2.33704076797639
h           -2.16555406828646       -2.85461747905692       -3.15219083174894
o            3.16068516546104        1.25262781258498        0.75542331581394
h            2.74910465094589        1.63704958431919        1.53599343069515
h            2.52222038659561        1.35864152334915        0.02724721787203
o            3.87189669477667       -1.36784429949561        2.01426405512256
h            4.27414035805759       -2.25756066644995        2.05462285447837
h            3.97842009149397       -1.08428483000337        1.08215275320107
o           -3.65187630098944        6.14149416881034       -3.48140413340552
h           -2.69377066427996        6.11992050821167       -3.64708179593447
h           -3.79336758056240        5.37518853600556       -2.89079317450047
o            3.39490088783081        0.24685664839750       -4.97827292273030
h            3.58060956640161        1.20040792102963       -5.08421684230130
h            2.42378265312862        0.14841709493027       -5.07959577362990
o            4.98322049757154        2.11312951674998        2.79384291489563
h            5.22265817265733        1.80650345989775        1.89116789924297
h            5.29301759572912        1.41483842173533        3.37919341228857
o            8.04073892610388       -0.26280052231788       -1.36694257767899
h            8.04800325172977        0.65568465946772       -1.01248583656444
h            8.51185560639522       -0.81293239727876       -0.71132759330508
o           -4.62910046402572        0.06787824470266        0.05042782412141
h           -5.50502053106054       -0.15421298499249        0.41072857949397
h           -4.11270533913533       -0.75539654861665       -0.04136611856213
o            2.90152603460478        0.13448753092253       -2.37920099186492
h            3.19271148618947       -0.04726516961496       -3.29427794846641
h            2.88822910663854        1.11136284749084       -2.34241695417747
o           -6.81831105051689       -2.76218677293220        5.20796302112071
h           -6.58402628355314       -2.05922478235125        4.57209429521454
h           -7.03957059918931       -2.29845375775625        6.03779945343069
o           -2.61494883109293       -1.99784292394608       -6.02647792178108
h           -2.47371433269618       -2.86306345977341       -5.62550162718273
h           -2.58503537636819       -1.33458890288060       -5.30133873235741
o           -5.70516209579176        2.84653980980627       -3.21338478267144
h           -6.32038070751388        2.46028921134158       -2.54611699217864
h           -5.95534887357998        2.52431267060147       -4.09009296573303
o            9.33558553277153       -3.15308039696640        4.06226512511482
h            8.94915544492340       -2.75992679014191        4.85096090024221
h            8.65214601067920       -3.68423978088697        3.62958989705751
o            5.80190441751615       -4.52463594141737       -3.57333369967634
h            5.50864518972391       -3.59150675299056       -3.65155607431949
h            5.03788570679954       -5.04373676555718       -3.86583318493960
o           -8.81690530309335       -3.99691080917827       -0.71536479183063
h           -8.10249617927433       -4.61331375599045       -0.40319208219288
h           -9.57290842145366       -4.11749358879125       -0.13617985726566
o           -1.87330011800098        1.86314929414239       -0.84158393612007
h           -2.72435543974239        1.68974941423026       -1.29710102025886
h           -1.84242826616492        1.36787589289225       -0.01231425365762
o           -1.21446142742561       -8.13507530195136       -1.82524885765856
h           -0.67351537701297       -8.76364593073471       -1.34390430781661
h           -0.62095948298894       -7.37551946762098       -2.02163172063906
o            1.56999574144053       -2.32406916297944        3.24358682646944
h            2.43720856478293       -2.05532541311303        2.89278498561583
h            1.12372432324421       -1.51114298920039        3.50614727760976
o            5.74425095206549       -5.17742301255381       -0.91437773166684
h            6.62729328033894       -4.91844584038115       -0.59016568184609
h            5.75664316701553       -5.00994139389250       -1.87634822541768
o            2.92603383343108        0.33156280203876        3.84550505972531
h            1.98248480487111        0.51910074993911        3.65801703811997
h            3.30932340487068       -0.04359635875519        3.03861812168593
o           -6.06304730748816       -2.58497236367368       -0.36390760633747
h           -5.31372670150807       -3.16936626565554       -0.13600048028209
h           -6.64757563885727       -2.58607717647157        0.40703527413661
o            5.80255972025545        2.26972973202109       -1.83996031919407
h            5.95822347791350        1.50101848043971       -2.42462507535016
h            5.89055061329208        1.92278363700973       -0.92973884344161
o           -2.42509457450691        2.96806168833198       -3.62997861572126
h           -1.58679612698178        2.56117365268161       -3.34956222953755
h           -2.81663897108057        3.40518206907706       -2.85623682940675
o            4.02446189002204       -3.96117951069365        2.25023459062995
h            3.50875925196768       -4.05493660179466        1.42508397068485
h            4.64207889992151       -4.71403211324617        2.20826931302343
o            2.91934446535159       -1.52535725818204        5.75557964031406
h            3.70113951161934       -1.24827606558850        6.26896687488376
h            2.88907895045986       -0.86531721501836        5.02564802603527
o            5.21049471798549       -0.24472972559444        6.39861373805564
h            4.82859355381709        0.63627384056857        6.50545487014326
h            5.46261746869451       -0.28788843489068        5.45489404471109
o           -1.52662975086374       -1.32678311470483        4.20682433090337
h           -0.98968036958035       -0.60362842219695        3.83165392461055
h           -1.00807534347371       -1.66594413943837        4.95415816176770
o            0.05415213417582        1.96307374497196       -3.24339399878755
h            0.46418088233457        2.76234267051818       -3.63090153723580
h            0.43354313347737        1.87064065624749       -2.34648635009988
o           -0.61190721592911        7.70205574422611        2.02737450340615
h           -0.31379673168677        7.42501109562913        2.91562076819711
h           -1.55414339771108        7.92621527102901        2.10611919300020
o           -4.42781095820095       -4.62612293180203       -0.19415487938692
h           -3.67542959420432       -4.84320430586167       -0.77761170165552
h           -4.17401457004744       -4.94491432962535        0.69493257192640
o           -6.01093660422275       -0.72201498221339        3.52028045089875
h           -6.24470051413521       -0.59823699269759        2.58626455245394
h           -6.47864786622984       -0.00986697078432        3.99331354291231
o            9.16428521356469        3.15192227827371       -2.96257452284123
h            8.45093787414704        3.78645944700330       -3.12300199385684
h            9.07952921582815        2.46206620787682       -3.64705470923691
o           -0.60642577563782       -0.54280908643999       -7.09715710664676
h           -1.26674649137520       -1.21047458319572       -6.82559485604123
h           -1.08765228199077        0.29726308432066       -7.13488011224701
o           -7.10093433889592       -0.17371101748352        1.05365829974485
h           -7.70484166966758       -0.60254971759715        0.42097769254303
h           -7.57298864660052        0.59405389208528        1.40226918810166
o            1.41408811400527        3.14140912854944        5.87012119688723
h            0.78004244233014        3.34212843662705        5.15429266639967
h            1.00954736273712        2.39559519564364        6.32908167280656
o           -7.13797334755971        1.72177947005814       -1.29912947577051
h           -8.03725259472751        1.85648502076069       -1.65988271920092
h           -6.88027718086793        0.80036741504422       -1.48458045136487
o           -3.74001994401202        1.32169929317650        2.47098942804894
h           -4.69479693943055        1.55226465178555        2.55126099250142
h           -3.71434376709419        0.36963049540700        2.25819546109102
o            7.74775065478641       -1.65938572904729        6.17684867172987
h            7.17226353157831       -1.14401475596165        6.75241842663044
h            7.13646061770020       -2.26713465246215        5.71373666029605
o            8.37986895164063        2.21986037884806       -0.60005335902881
h            8.72847822009762        2.57034389743096       -1.45082359239685
h            9.09040320681884        2.32696814011090        0.06186203156052
o           -8.70550906192836        3.09883070119973        4.13905953999023
h           -8.86504107862763        2.57779570593989        3.32856933118517
h           -9.56181956618252        3.32038378204476        4.50237780958282
o            2.09249492986463       -0.11568446026691       -7.52042556357708
h            1.19154770925192       -0.44111793977417       -7.64926019412435
h            1.97495842326920        0.79158432105893       -7.20568562107749
o           -4.26983683575717       -3.51927377889205        5.02756194845762
h           -5.20325526795738       -3.57066265532434        5.29811922945604
h           -4.02682502050313       -2.59573617927531        5.24782411072232
o            2.77069550284311        5.53302542516213        1.37254483615924
h            3.37583101410017        5.93657459412182        1.99844747488980
h            3.26767934953446        4.78990655480675        0.94351275216355
o           -3.93494807472726        1.01850588590587       -2.32885498413583
h           -4.45990845382253        1.76718169404614       -2.66300540473439
h           -4.38988650991911        0.63020085003175       -1.55914467924699
o           -6.05097835610793        4.22275403472542        4.22295400890691
h           -5.70784023184336        4.59269653300327        3.38098944302169
h           -6.99128113096950        4.41692969101038        4.25729096802104
o           -5.53298318876609        6.41491860404261       -0.11284953543034
h           -5.85243458222834        5.95088093379495       -0.90967169160308
h           -4.81008017393510        6.98498813855326       -0.43559019038716
o           -5.02394919459289        2.68923133670109        0.11453873507330
h           -4.69271579112352        1.78695751061136        0.26379416932606
h           -5.93819997147147        2.58602031167641       -0.19165695231882
o            5.90334502260515        1.02814307981176        0.53752380973038
h            5.32186352345315        0.30755751846566        0.21606241515448
h            6.71248346573543        0.62564028745513        0.88907706231423
o            2.68846503767229        5.22938884253286        4.42080532945056
h            2.52339090118722        4.74653117903082        5.23679740594509
h            3.65047939831946        5.15547513059005        4.22922169932547
o            3.31040396517061       -4.38038242520123       -0.25359958967189
h            2.99107566709662       -3.81580961078015       -0.97950127602474
h            4.25799164215617       -4.54238116017108       -0.44711538241802
o            0.09756609314804        5.09329181815921        1.39090312675596
h           -0.20805357969741        5.99716464130075        1.57503758787259
h            1.06668495763632        5.14610955525910        1.42615893808491
o           -0.21871024020849        0.89196167894623        6.11632452304511
h           -0.12662350175217       -0.02562100682273        6.40177342116221
h           -1.15488446375336        1.02998759424091        5.90614468814508
o           -3.37960289555015       -1.34754750637872        2.18642440405002
h           -4.02888396831218       -2.08196049424158        2.14194972357595
h           -2.76671405821261       -1.57482646869199        2.89892853564604
o            6.58140870729616       -2.31275926322912       -6.16678293056390
h            5.97133020979772       -3.02405855873682       -5.96195406796734
h            6.05068446013551       -1.61050707298196       -6.58553232901387
o           -5.05808232112621       -3.38849909922483        2.38127208587267
h           -6.00006924523117       -3.19353373441357        2.36205943985483
h           -4.82021719609425       -3.55722164717132        3.31014642679420
o            2.73493023826141       -3.10594722393960       -2.50825631249133
h            3.51417340406554       -2.64106666406935       -2.88488660494863
h            1.97554038141524       -2.85500090542149       -3.08243949272013
o            4.94524958199433       -0.31780684841494       -7.06634660260523
h            4.37604021710393       -0.34068571179240       -7.83772444043916
h            4.33016828015994       -0.23416022087533       -6.29838219135464
o           -8.09559089591501        0.32388321035088       -4.29961540129417
h           -7.52450614839862       -0.17052588077901       -3.69623041447445
h           -7.49794627436233        0.76667651477010       -4.92307878115121
o            6.00976761063144        0.18404859332453       -3.49843999662484
h            6.85244132285037       -0.30649665286409       -3.46575281425739
h            6.04650154222322        0.71489497157391       -4.32161925765265
o            6.44814809435968       -2.33935140086182       -1.45922982161707
h            6.98852131172530       -2.96787842344905       -1.95519093250304
h            6.92182805631332       -1.48635998930012       -1.54359731168975
o          -10.52108777958413       -1.09195425609172       -4.04113748957503
h           -9.75748385642948       -0.58715700452512       -4.35606140695726
h          -10.18057941307561       -1.97371288898445       -3.82384142903532
o            0.33187957320904        0.45746660725751        3.51132229172984
h            0.13496448787849        1.09130786185179        2.78009692767052
h            0.17681458059544        0.89337825751501        4.37194887398322
o            4.67902622609346       -2.09674856597002       -3.91641515404647
h            5.09561511394361       -1.21836156056394       -3.78408593482364
h            4.15842468869364       -2.06487982192644       -4.74383263478117
o           -2.12085665453294        5.27094887417701        5.84122597526829
h           -1.47048307437308        5.94211629210788        6.05675288407250
h           -2.51365301779065        5.54781799348979        4.97874748448627
o            3.80296014207268        2.89137012154735       -5.33418041701024
h            2.98826058005798        3.04903933761899       -5.81910073612106
h            3.59191141645319        2.97436795824683       -4.36948384431235
o            1.15096309771706       -4.68905693706318        1.72832389285141
h            1.24732461787680       -3.89100098250421        2.26117033501521
h            1.13647946676102       -4.39816129495133        0.79332863169742
o           -8.64955951621933       -1.30245418716236       -0.87953519739948
h           -8.74373019708227       -2.26770298160943       -0.77285661989689
h           -7.97078654169391       -1.17823646898685       -1.56000720556695
o           -8.67563648490012        4.50194903852258       -1.43498809076615
h           -7.93442849346679        4.91059373050942       -1.90758388391971
h           -9.03015695760859        3.80827179227967       -2.00698620279792
o           -0.56513516886819        7.35526170820058       -0.68542590530845
h            0.38260107300322        7.26012273712713       -0.86613528894233
h           -0.57783259959023        7.72641885656560        0.21003476851373
o            8.08132897223789       -0.01142297274021        1.82387657648606
h            8.94267489562504        0.10473803758296        1.39092401555434
h            8.23489327209075       -0.05417209217424        2.78812090512653
o           10.40818716645912        0.09227776813850       -2.54564909892232
h            9.45071631279009       -0.02839574506532       -2.35008458246615
h           10.45408076680103        0.64964293712803       -3.32486581382897
o            5.15827523653031        4.77586765050926        3.54781812274390
h            5.38734602947812        5.33564417407480        2.79316696005839
h            5.19439003317985        3.85283645224536        3.23906526478879
o            6.70797889855340        3.86026993865537        0.69123139026951
h            6.96142891253899        3.54643366557209        1.57917213378917
h            7.26345292641806        3.32402272400698        0.08944335160152
o            1.20010206855796       -8.18984395167026        0.23581251232186
h            1.78766900074556       -7.87658749343354       -0.46719412975535
h            1.68032272740463       -7.97009490435823        1.05028131495808
o            6.53050513731915       -2.30763185060475        1.27378474742179
h            7.13045083795750       -1.57064182668065        1.47144560908343
h            6.52885090657255       -2.41200305282148        0.30462106033837
o            2.68704052750442       -6.84710764364539        2.21192895598380
h            2.19737837203369       -6.03793480611840        1.95000761938408
h            2.55995020769512       -6.88387974553394        3.17066969973464
o          -10.45184788040812       -2.57762487015538        1.26762289489390
h          -10.65727018104968       -1.63791718033886        1.11337569630445
h          -10.70105469988763       -2.74905888685030        2.17803418242826
o           -7.29665942113729       -1.08607180953760        7.26976103393306
h           -6.48433158680292       -0.61777078938488        7.49451473948089
h           -7.82386951012418       -0.44751847178059        6.77635623760932
o           -6.91725351853751       -5.64639895684362        0.08170374311993
h           -6.02638297288998       -5.29612279324137       -0.12275142431160
h           -6.83565519780785       -5.94687402546662        1.00181885535411
o            0.52237772293553       -5.12563845915846       -4.86204638821376
h           -0.41132004683913       -5.14039244408926       -5.12995368775786
h            0.70575932402156       -4.18030937726316       -4.72331717218429
o            8.26856228306703       -4.62431049196994       -0.12025178144354
h            8.56721179415920       -3.69090057616890        0.02282940378181
h            8.42355630048732       -5.07573418838804        0.71216808272697
o           -4.17172590015943        0.34625322247552       -6.80587707377080
h           -3.81057766596593       -0.51841516180276       -7.03198445749331
h           -3.38917972876170        0.93634836252814       -6.71864901116352
o           -5.25635219223108       -6.79382988798848       -2.05392694274287
h           -4.63146173580678       -7.04180502798192       -1.32281985507243
h           -6.10782081743421       -7.13669133947852       -1.77863281248392
o           10.69580590977473       -1.68903103249689        2.35075139960414
h           11.55921229696997       -2.10038013383300        2.31598273732976
h           10.17958578226819       -2.18836880876937        3.02936724734428
o            2.20897687515774       -6.22711050986690        4.90553732957888
h            2.37138321209010       -6.75214399705610        5.68794405888944
h            2.79093898206510       -5.43190946674335        4.96844700994215
o           -6.28292321108898       -6.38078933260918        2.68080844268242
h           -6.49432542787542       -7.25499676310275        3.00507508319789
h           -6.89203984827692       -5.75009833232289        3.15064643769205
o           -3.10645021899249       -1.95123099047044       -0.73878650745775
h           -2.83135849061497       -2.70434167109928       -0.19009865606327
h           -3.45377088066924       -2.30427767841576       -1.58057486025914
o           -7.97663933775092       -4.68563397258080        3.71825035303161
h           -8.01966833805874       -4.04934439731364        2.97891197892534
h           -7.64856701908859       -4.14926181144365        4.46118124330492
o            8.35993050438994       -3.91986600722622       -2.81619068112207
h            8.51641078667232       -4.40645461408198       -1.99380161932077
h            7.66480187448234       -4.39053474975929       -3.29918054681190
o            6.60055295312028        2.49043975574411        5.32035810289303
h            6.84173412404395        3.27126493610159        5.81792340273025
h            5.62367562325177        2.42707949512272        5.37310945389847
o           -7.48257135448878        0.85899353990518        5.21185305515962
h           -6.70068524052992        1.00625361964286        5.79274862126579
h           -7.79665474644920        1.73156428005049        4.92594603138520
o           -2.64676757834081        5.73938043941708        0.36919375784739
h           -2.42850009379098        4.98453173614982        0.95049766251539
h           -1.82175022808316        6.07536866474498       -0.01311658868291
o          -10.78744642787244        0.05214357606227       -1.66915035274095
h           -9.99430116745803       -0.44667771705836       -1.36675604419649
h          -10.98590925915934       -0.35028762890123       -2.54294963347252
o           -7.82327530057955       -2.69701630927851        1.89177501398677
h           -7.99117041820286       -1.96299520397913        2.52176981043756
h           -8.68097755610430       -2.77394329584181        1.43632628664176
o           -9.37628492479558        2.08790761199033       -2.67199015440038
h           -9.02237777793040        1.58319641011573       -3.42741484801450
h          -10.05317152319613        1.50222294732798       -2.27622442501871
o            8.07210614249345       -1.42601759649815       -4.12238252793732
h            7.59311442833339       -1.75133371411624       -4.91481346191817
h            8.32845366161043       -2.21809515131189       -3.63560058729988
o           -2.11723352376928       -4.25354351296883        3.50937326761041
h           -1.27496572231223       -4.31180845766293        3.99665809340175
h           -2.79494446199332       -4.00838638191363        4.15537150507681
o           -2.19961891522555       -5.27622585778701       -1.54556802210671
h           -2.43425534735672       -5.84816380332453       -2.29689961440037
h           -1.64114292493941       -5.79936215875208       -0.94145047475508
o           -3.51343479783376        7.82415034199822       -1.33808441815656
h           -3.61893361694600        7.34349081569230       -2.18486492749487
h           -2.56668318347041        7.82978230837597       -1.16157793383202
o            3.36720161700101        2.72486876209443       -2.75470980422604
h            4.25690964855648        2.68751903746003       -2.33732853204967
h            2.88709272694414        3.48778349211361       -2.38714065552809
o            2.96174948171771       -2.35988103555732       -5.99735066428335
h            2.72785223511814       -1.63158395772630       -6.59396494393112
h            2.16060903564482       -2.55280152685879       -5.49825566448784
o           -3.52421010093388       -7.62954835715301       -0.26145420424308
h           -3.37546543223410       -7.15476665450167        0.57036402408338
h           -2.65700275069092       -7.82907030554208       -0.64551623521107
o            6.23835385922382        1.65709054995997       -5.73912306654084
h            5.95013957336354        1.01342422237754       -6.41006120259358
h            5.51827990583001        2.30119547900172       -5.66513889660506
o           10.83086100324456       -2.53399483910337       -2.00850589595693
h           10.28108993325066       -3.03980552027601       -2.61419863186219
h           10.84912160065041       -1.61697501678172       -2.33988882951180
o           -5.98515463351480       -4.22081809660490       -2.65250311890872
h           -6.21524952386741       -3.77007142702383       -1.82288475567797
h           -5.71650537103928       -5.12825888041500       -2.41847192972154
o           -7.71250684225650        3.53134687937193        0.83246853156617
h           -7.63729499963430        4.37317428846991        1.32296598395926
h           -8.05095568025595        3.80899257791271       -0.04923783393199
o           -6.28388284179969        1.81475471003228       -5.76703734125120
h           -5.54621626083839        1.31028458263566       -6.15391275005831
h           -6.58098174143561        2.42684844734426       -6.44023106469434
o           -3.95408126075190       -0.85873676932891        5.25042977618032
h           -3.04412696017494       -0.79298596412905        4.90407991251398
h           -4.55851299917454       -0.76911761824372        4.48833742278532
o          -11.30516481274025        0.08966389778150        0.92375960869654
h          -11.26419819624097        0.12305559698324       -0.05678359803199
h          -12.22495877420444        0.19680312564113        1.16499902571500
o            3.29495593580347        5.51400693782645       -3.92196270403184
h            3.73797916480135        5.66865346977917       -3.06174494834013
h            3.97895552534431        5.25627017503876       -4.54112635448781
o            7.71679125305895        2.72395082407981        2.85557838136776
h            7.73367048899289        1.80128151258251        2.56273597243712