 Entering Gaussian System
 *********************************************
 Gaussian 98:
 frequency output generated by the xtb code
 *********************************************
                         Standard orientation:
 --------------------------------------------------------------------
  Center     Atomic     Atomic              Coordinates (Angstroms)
  Number     Number      Type              X           Y           Z
 --------------------------------------------------------------------
    1          8             0        1.521111   -2.744043    0.631175
    2          1             0        1.192631   -3.057442    1.489882
    3          1             0        0.747037   -2.357845    0.184333
    4          8             0       -2.258126   -0.505466    1.630924
    5          1             0       -1.362813   -0.222325    1.387798
    6          1             0       -2.409228   -0.160974    2.527012
    7          8             0       -0.656495   -1.793587   -0.774027
    8          1             0       -1.104265   -0.932226   -0.947717
    9          1             0       -1.369826   -2.446010   -0.688703
   10          8             0       -2.872389   -3.425591   -0.647765
   11          1             0       -3.391374   -4.063128   -1.136474
   12          1             0       -3.422305   -2.593591   -0.586767
   13          8             0       -1.033619    1.754014   -3.533277
   14          1             0       -0.174463    1.345617   -3.737148
   15          1             0       -0.850753    2.628841   -3.176737
   16          8             0        0.510831   -2.324386   -3.073550
   17          1             0        0.072705   -2.146316   -2.201420
   18          1             0       -0.132863   -2.761502   -3.630008
   19          8             0        0.227330   -3.421363    2.964407
   20          1             0        0.306144   -4.233483    3.463837
   21          1             0       -0.703754   -3.392354    2.611551
   22          8             0        2.853444   -0.398273    0.694226
   23          1             0        2.607513   -1.335699    0.805893
   24          1             0        3.133211   -0.338814   -0.243330
   25          8             0        0.619923    2.732420    2.738613
   26          1             0        1.009581    2.711216    3.612832
   27          1             0       -0.363542    2.853046    2.865675
   28          8             0       -2.437368    2.517601    0.258207
   29          1             0       -1.732249    3.049176   -0.218075
   30          1             0       -3.272510    2.932264    0.040259
   31          8             0       -4.025838   -1.089045   -0.420222
   32          1             0       -3.666230   -0.843085    0.447129
   33          1             0       -3.499144   -0.551436   -1.038172
   34          8             0        3.569578   -0.475153   -1.942354
   35          1             0        2.897366   -0.183624   -2.588510
   36          1             0        3.530627   -1.457502   -1.950167
   37          8             0       -2.200745   -3.181954    2.026525
   38          1             0       -2.263667   -2.208238    1.930036
   39          1             0       -2.406948   -3.526255    1.144743
   40          8             0        2.901759   -3.056353   -1.802882
   41          1             0        2.127318   -2.964325   -2.378439
   42          1             0        2.549849   -3.134080   -0.903524
   43          8             0        1.320184    4.445290    0.651926
   44          1             0        2.096589    3.951669    0.353662
   45          1             0        1.040007    3.989001    1.460708
   46          8             0       -2.182826    0.294242    4.218202
   47          1             0       -1.276886   -0.117654    4.221671
   48          1             0       -2.629096   -0.009423    5.007848
   49          8             0        3.138762    2.370925    0.019938
   50          1             0        3.875421    2.310972   -0.625742
   51          1             0        3.302862    1.666996    0.657732
   52          8             0        0.177209   -0.811494    3.885171
   53          1             0        0.227930   -1.768549    3.726809
   54          1             0        0.345751   -0.410276    3.010874
   55          8             0        0.877523    1.416485   -1.040335
   56          1             0        0.502942    0.937686   -0.278765
   57          1             0        1.731045    1.790462   -0.720172
   58          8             0        0.435110    0.396533    1.433165
   59          1             0        0.537355    1.276620    1.855539
   60          1             0        1.350515    0.090565    1.218769
   61          8             0       -0.549590    3.664571   -1.111528
   62          1             0        0.024344    4.196470   -0.520715
   63          1             0       -0.038490    2.832583   -1.217701
   64          8             0       -1.969814    2.775733    2.955996
   65          1             0       -2.212174    2.625268    2.022267
   66          1             0       -2.165889    1.956878    3.436901
   67          8             0       -2.004263    0.399200   -1.425682
   68          1             0       -1.706247    0.856319   -2.242236
   69          1             0       -2.127786    1.095853   -0.752924
   70          8             0        1.354558    0.276159   -3.395764
   71          1             0        1.135419    0.629909   -2.507191
   72          1             0        1.030470   -0.640604   -3.412539
   73          8             0        5.005258    1.803255   -1.816112
   74          1             0        4.935986    2.172282   -2.697957
   75          1             0        4.679290    0.883913   -1.877204
 --------------------------------------------------------------------
     1 basis functions        1 primitive gaussians
     1 alpha electrons        1 beta electrons
 
 Harmonic frequencies (cm**-1), IR intensities (km*mol⁻¹),
 Raman scattering activities (A**4/amu), Raman depolarization ratios,
 reduced masses (AMU), force constants (mDyne/A) and normal coordinates:
                      1                      2                      3
                        a                      a                      a 
 Frequencies --    26.7534                31.1767                33.3918
 Red. masses --    14.2681                14.2942                14.2323
 Frc consts  --     0.0000                 0.0000                 0.0000
 IR Inten    --     2.1682                 0.8816                 1.7169
 Raman Activ --     0.0000                 0.0000                 0.0000
 Depolar     --     0.0000                 0.0000                 0.0000
 Atom AN      X      Y      Z        X      Y      Z        X      Y      Z
   1   8    -0.03   0.06   0.02     0.01   0.14   0.13     0.05  -0.05   0.12
   2   1    -0.01   0.01  -0.00    -0.01   0.01   0.02     0.01   0.01   0.04
   3   1     0.00   0.03   0.01     0.00   0.03   0.03     0.02   0.00   0.03
   4   8     0.15  -0.03  -0.05     0.01   0.03  -0.02    -0.06  -0.05  -0.08
   5   1     0.05  -0.02   0.02     0.00   0.01  -0.01    -0.02  -0.01  -0.02
   6   1     0.02  -0.01  -0.02     0.01  -0.00  -0.00    -0.03  -0.00  -0.03
   7   8     0.02   0.19  -0.00    -0.01   0.00   0.05     0.14   0.13   0.11
   8   1    -0.01   0.04  -0.02     0.01   0.00   0.00     0.02   0.03   0.02
   9   1     0.02   0.04  -0.00    -0.01   0.01   0.01     0.04   0.02   0.02
  10   8     0.12   0.02  -0.10    -0.12   0.12  -0.10     0.31  -0.11  -0.04
  11   1     0.04   0.00  -0.03    -0.04   0.04  -0.03     0.10  -0.04  -0.01
  12   1     0.02  -0.00  -0.01    -0.02   0.04  -0.02     0.06  -0.04  -0.03
  13   8    -0.01   0.19   0.04     0.14  -0.06  -0.05    -0.01   0.14   0.06
  14   1    -0.00   0.05   0.02     0.03  -0.02  -0.00    -0.01   0.03   0.00
  15   1    -0.00   0.03   0.05     0.04  -0.01  -0.03     0.01   0.03   0.02
  16   8    -0.06   0.06  -0.02     0.12  -0.16   0.16    -0.07   0.04   0.03
  17   1    -0.01   0.03  -0.00     0.02  -0.03   0.03     0.00   0.02   0.02
  18   1    -0.03   0.01   0.01     0.04  -0.05   0.04    -0.04   0.01   0.03
  19   8    -0.02  -0.06  -0.01    -0.18  -0.14  -0.06     0.05   0.13   0.18
  20   1    -0.00  -0.03  -0.02    -0.06  -0.04  -0.01     0.02   0.04   0.05
  21   1    -0.00  -0.01  -0.01    -0.04  -0.02  -0.02     0.02   0.02   0.03
  22   8     0.18  -0.05   0.14     0.10   0.11   0.00    -0.03  -0.01  -0.06
  23   1     0.03  -0.01   0.02     0.03   0.03   0.02     0.01  -0.00   0.00
  24   1     0.02  -0.00   0.03     0.03   0.01  -0.00    -0.02  -0.02  -0.02
  25   8     0.03   0.16  -0.04     0.01  -0.04   0.07    -0.04  -0.15   0.11
  26   1     0.00   0.11  -0.01     0.00  -0.02   0.02    -0.02  -0.08   0.03
  27   1     0.00   0.02  -0.02     0.00  -0.01   0.02    -0.01  -0.02   0.02
  28   8    -0.05   0.05  -0.09     0.01  -0.04   0.07     0.00   0.09   0.00
  29   1    -0.00  -0.01  -0.03    -0.00   0.00   0.02     0.01   0.02   0.01
  30   1    -0.00   0.03  -0.02    -0.00  -0.02   0.02     0.01   0.03  -0.01
  31   8     0.02  -0.05   0.03    -0.03   0.16  -0.04     0.12  -0.20  -0.19
  32   1     0.02  -0.01  -0.00    -0.01   0.03  -0.01     0.00  -0.04  -0.04
  33   1    -0.02  -0.00  -0.00     0.00   0.03  -0.01     0.03  -0.03  -0.03
  34   8    -0.07   0.02   0.06     0.11  -0.07   0.03    -0.10  -0.12  -0.07
  35   1    -0.02   0.01   0.02     0.01  -0.03   0.01    -0.03  -0.03  -0.02
  36   1    -0.02   0.00   0.01     0.03  -0.02   0.03    -0.03  -0.03  -0.01
  37   8     0.01  -0.04  -0.07    -0.15   0.02  -0.09     0.10  -0.03   0.01
  38   1     0.01  -0.01  -0.02    -0.02   0.01  -0.02     0.01  -0.01  -0.00
  39   1     0.01  -0.00  -0.02    -0.04   0.01  -0.02     0.05  -0.02  -0.00
  40   8    -0.08   0.02  -0.00     0.10  -0.06   0.24    -0.11  -0.12   0.01
  41   1    -0.02   0.01  -0.00     0.03  -0.03   0.05    -0.03  -0.02   0.01
  42   1    -0.02   0.01  -0.00     0.02   0.01   0.06    -0.02  -0.03   0.01
  43   8     0.01  -0.01  -0.19    -0.03   0.01   0.09     0.13  -0.08   0.23
  44   1     0.00  -0.00  -0.04    -0.01   0.01   0.01     0.03  -0.03   0.05
  45   1    -0.00   0.01  -0.04     0.00  -0.01   0.02     0.03  -0.03   0.05
  46   8    -0.09  -0.01  -0.06     0.07  -0.10   0.02    -0.21   0.04  -0.10
  47   1    -0.03  -0.01   0.01     0.02  -0.03  -0.01    -0.05   0.02  -0.01
  48   1    -0.05   0.01  -0.02     0.02  -0.04   0.00    -0.06   0.01  -0.03
  49   8     0.03  -0.04  -0.02    -0.03   0.09  -0.16     0.05  -0.06  -0.05
  50   1    -0.01  -0.00  -0.02    -0.03   0.03  -0.06    -0.00  -0.01  -0.03
  51   1     0.04   0.01   0.00     0.02   0.02  -0.05     0.02  -0.03  -0.03
  52   8    -0.10  -0.14   0.25     0.04  -0.13  -0.09    -0.12   0.18   0.01
  53   1    -0.03  -0.03   0.04    -0.01  -0.03  -0.03    -0.02   0.04   0.02
  54   1     0.01  -0.02   0.08     0.01  -0.03  -0.02    -0.03   0.03  -0.01
  55   8    -0.02  -0.24   0.25    -0.04   0.03  -0.03     0.02   0.06  -0.05
  56   1     0.02  -0.05   0.07    -0.00   0.01  -0.00    -0.00   0.01  -0.02
  57   1    -0.00  -0.05   0.04    -0.01   0.01  -0.02     0.01   0.00  -0.01
  58   8     0.21  -0.08   0.34     0.04   0.01  -0.03    -0.06  -0.02  -0.09
  59   1     0.05  -0.01   0.06     0.00  -0.00   0.01    -0.01  -0.01  -0.01
  60   1     0.05  -0.01   0.08     0.01   0.01  -0.01    -0.02  -0.01  -0.02
  61   8     0.08  -0.21  -0.15    -0.04   0.05   0.09     0.09   0.12   0.17
  62   1     0.02  -0.03  -0.05    -0.01   0.00   0.03     0.03   0.01   0.05
  63   1     0.01  -0.07   0.01    -0.01   0.01   0.01     0.02   0.03   0.02
  64   8     0.02  -0.02  -0.09     0.01  -0.07   0.08    -0.04   0.06   0.00
  65   1     0.00  -0.00  -0.02     0.00  -0.02   0.02    -0.01   0.02  -0.00
  66   1     0.01  -0.01  -0.02     0.01  -0.02   0.02    -0.03   0.01  -0.01
  67   8    -0.14   0.05  -0.13     0.06   0.03  -0.01     0.04   0.06   0.05
  68   1    -0.03   0.02  -0.02     0.02   0.01  -0.00     0.01   0.02   0.01
  69   1    -0.03   0.01  -0.03     0.02   0.01  -0.00    -0.00   0.01   0.01
  70   8    -0.08   0.07   0.08     0.08  -0.16   0.09    -0.06   0.03  -0.06
  71   1    -0.02  -0.01   0.03     0.01  -0.03   0.02    -0.01   0.01  -0.01
  72   1    -0.02   0.02  -0.01     0.02  -0.04   0.03    -0.02   0.01  -0.01
  73   8    -0.13   0.06  -0.20    -0.27   0.21  -0.44    -0.18  -0.06  -0.29
  74   1    -0.07   0.01  -0.05    -0.13   0.02  -0.12    -0.09  -0.02  -0.07
  75   1    -0.02   0.01  -0.03    -0.02   0.03  -0.07    -0.04  -0.02  -0.05
                      4                      5                      6
                        a                      a                      a 
 Frequencies --    39.2158                41.7939                46.2406
 Red. masses --    14.1999                14.2981                14.2318
 Frc consts  --     0.0000                 0.0000                 0.0000
 IR Inten    --     0.8732                 0.0555                 1.5016
 Raman Activ --     0.0000                 0.0000                 0.0000
 Depolar     --     0.0000                 0.0000                 0.0000
 Atom AN      X      Y      Z        X      Y      Z        X      Y      Z
   1   8     0.05   0.06   0.17     0.08  -0.15  -0.04     0.02  -0.20  -0.02
   2   1     0.00  -0.01   0.03     0.01  -0.02  -0.01     0.01  -0.05  -0.00
   3   1     0.02   0.03   0.05     0.02  -0.05  -0.02     0.01  -0.04   0.00
   4   8    -0.07  -0.15   0.04    -0.12   0.03   0.01    -0.06  -0.08   0.12
   5   1    -0.02  -0.03  -0.00    -0.03   0.01   0.01    -0.01  -0.04   0.01
   6   1    -0.01  -0.03   0.01    -0.04   0.01  -0.00     0.00  -0.01   0.03
   7   8     0.09   0.17   0.19     0.07  -0.27  -0.07     0.02  -0.08   0.07
   8   1     0.01   0.04   0.04     0.03  -0.05   0.01     0.01  -0.02   0.03
   9   1     0.03   0.03   0.03     0.01  -0.06  -0.03     0.00  -0.02   0.02
  10   8     0.20  -0.01  -0.22    -0.06  -0.08  -0.09    -0.01  -0.04   0.11
  11   1     0.07  -0.01  -0.07    -0.03  -0.02  -0.01    -0.00  -0.01   0.02
  12   1     0.03  -0.01  -0.05    -0.00  -0.01  -0.03     0.00  -0.01   0.02
  13   8    -0.12  -0.02   0.04    -0.20   0.02   0.16     0.06  -0.02   0.08
  14   1    -0.03  -0.00   0.01    -0.05   0.01   0.02     0.02   0.01   0.02
  15   1    -0.03  -0.00  -0.00    -0.05   0.00   0.05    -0.00  -0.00   0.02
  16   8    -0.05   0.05   0.16     0.19  -0.13  -0.04     0.00   0.21  -0.00
  17   1     0.00   0.03   0.05     0.03  -0.05  -0.02     0.00   0.03   0.01
  18   1    -0.03   0.01   0.06     0.07  -0.07  -0.01    -0.00   0.08  -0.02
  19   8    -0.13  -0.21  -0.01    -0.09   0.03  -0.07    -0.03  -0.15  -0.02
  20   1    -0.05  -0.05   0.01    -0.03   0.01  -0.01    -0.01  -0.04   0.00
  21   1    -0.03  -0.05  -0.01    -0.02   0.01  -0.02    -0.01  -0.03   0.01
  22   8     0.00   0.10   0.06    -0.12  -0.04   0.02    -0.06  -0.14  -0.02
  23   1     0.02   0.02   0.04    -0.02  -0.01  -0.01    -0.01  -0.04  -0.01
  24   1    -0.01   0.01   0.01    -0.03   0.01   0.01    -0.00  -0.03  -0.00
  25   8     0.09   0.06  -0.22     0.18   0.09  -0.04    -0.08  -0.06  -0.22
  26   1     0.05   0.03  -0.07     0.06   0.04  -0.02    -0.02  -0.01  -0.06
  27   1     0.03   0.01  -0.03     0.05   0.02   0.01    -0.02  -0.00  -0.05
  28   8    -0.05   0.15   0.07     0.17  -0.01   0.14    -0.02   0.17  -0.17
  29   1    -0.01   0.03   0.01     0.03  -0.00   0.02     0.00   0.03  -0.04
  30   1    -0.01   0.04   0.02     0.03  -0.02   0.03    -0.00   0.05  -0.06
  31   8     0.03  -0.11  -0.08     0.02  -0.05  -0.11     0.05  -0.00   0.03
  32   1    -0.02  -0.04  -0.01    -0.03  -0.02  -0.01     0.00  -0.01   0.01
  33   1     0.01  -0.00   0.00     0.04  -0.01  -0.00     0.02  -0.00   0.02
  34   8    -0.10  -0.02   0.05    -0.11   0.17  -0.00     0.09  -0.05   0.04
  35   1    -0.02  -0.00   0.01    -0.03   0.03  -0.00     0.02  -0.01   0.01
  36   1    -0.03  -0.01   0.02     0.00   0.04  -0.00     0.02  -0.01  -0.00
  37   8    -0.08  -0.18  -0.14    -0.09   0.02  -0.08    -0.09  -0.10   0.13
  38   1    -0.02  -0.04  -0.01    -0.02   0.00  -0.01    -0.02  -0.02   0.04
  39   1     0.00  -0.03  -0.05    -0.02   0.01  -0.02    -0.02  -0.02   0.03
  40   8    -0.07  -0.02   0.14     0.23   0.09  -0.02    -0.02  -0.04  -0.09
  41   1    -0.02  -0.01   0.04     0.06   0.01  -0.01    -0.01   0.01  -0.02
  42   1    -0.01   0.01   0.04     0.06   0.00  -0.01     0.00  -0.03  -0.02
  43   8     0.01   0.12  -0.19     0.08   0.06  -0.11     0.01   0.09  -0.05
  44   1     0.00   0.04  -0.05     0.02   0.01  -0.03     0.01   0.03   0.00
  45   1     0.01   0.02  -0.05     0.02   0.02  -0.02    -0.02   0.01  -0.03
  46   8     0.14  -0.02   0.00    -0.19   0.12   0.00     0.18   0.17   0.04
  47   1     0.03  -0.02  -0.02    -0.05   0.01   0.00     0.03   0.02   0.00
  48   1     0.06   0.03   0.03    -0.05   0.06   0.01     0.05   0.07   0.03
  49   8     0.01   0.08  -0.09     0.04   0.00  -0.01    -0.02  -0.05   0.24
  50   1     0.01  -0.01  -0.01     0.01   0.00  -0.01    -0.02   0.00   0.04
  51   1    -0.02   0.03  -0.00     0.02   0.01   0.00     0.00  -0.03   0.04
  52   8     0.05  -0.15  -0.15    -0.24  -0.00   0.03     0.04  -0.12  -0.05
  53   1    -0.00  -0.04  -0.04    -0.05   0.00  -0.00     0.00  -0.03  -0.01
  54   1     0.00  -0.04  -0.04    -0.05   0.01   0.01     0.00  -0.04  -0.02
  55   8    -0.03   0.10  -0.04     0.02  -0.05   0.05     0.04   0.08   0.06
  56   1    -0.00   0.02  -0.01     0.00   0.00   0.02    -0.01   0.00  -0.01
  57   1    -0.01   0.02  -0.01     0.01  -0.01   0.01     0.00   0.01   0.05
  58   8    -0.07  -0.01  -0.09    -0.07   0.02   0.07    -0.08  -0.15  -0.07
  59   1    -0.02  -0.00  -0.02    -0.00   0.01   0.01    -0.02  -0.03  -0.02
  60   1    -0.01   0.00  -0.02    -0.02  -0.01   0.02    -0.02  -0.04  -0.02
  61   8    -0.09   0.07  -0.07     0.06  -0.04  -0.04     0.08   0.09  -0.13
  62   1    -0.02   0.03  -0.03     0.02   0.00  -0.02     0.01   0.03  -0.03
  63   1    -0.02   0.02  -0.01     0.02  -0.01   0.00     0.02   0.02  -0.01
  64   8     0.12   0.01   0.06     0.20   0.12   0.12    -0.07   0.11  -0.16
  65   1     0.01   0.02   0.02     0.05   0.03   0.03    -0.02   0.03  -0.04
  66   1     0.04  -0.01   0.01     0.03   0.03   0.03    -0.01   0.03  -0.04
  67   8    -0.02   0.09   0.15     0.18  -0.10   0.23     0.11  -0.00   0.11
  68   1    -0.01   0.02   0.03     0.01  -0.02   0.05     0.03  -0.01   0.02
  69   1    -0.01   0.03   0.03     0.04  -0.03   0.06     0.01   0.01   0.01
  70   8    -0.07   0.03  -0.01    -0.19   0.02  -0.02     0.18   0.15   0.07
  71   1    -0.01   0.02  -0.00    -0.03  -0.01   0.00     0.04   0.04   0.01
  72   1    -0.02   0.01   0.01    -0.02  -0.00  -0.01     0.03   0.04   0.01
  73   8     0.17  -0.20   0.14    -0.03   0.11  -0.11    -0.31   0.22  -0.11
  74   1     0.09  -0.05   0.03    -0.03   0.04  -0.02    -0.15   0.06  -0.02
  75   1     0.01  -0.04   0.03    -0.02   0.03  -0.03    -0.03   0.04  -0.01
                      7                      8                      9
                        a                      a                      a 
 Frequencies --    48.7979                49.3897                52.5293
 Red. masses --    14.3903                14.3381                14.4822
 Frc consts  --     0.0000                 0.0000                 0.0000
 IR Inten    --     0.7081                 1.2435                 0.0916
 Raman Activ --     0.0000                 0.0000                 0.0000
 Depolar     --     0.0000                 0.0000                 0.0000
 Atom AN      X      Y      Z        X      Y      Z        X      Y      Z
   1   8     0.02  -0.19  -0.10     0.14  -0.02   0.01    -0.13   0.13  -0.01
   2   1     0.01  -0.02  -0.01     0.04  -0.02   0.00    -0.01   0.04   0.01
   3   1     0.01  -0.04  -0.03     0.03  -0.01   0.01    -0.05   0.01  -0.00
   4   8    -0.01   0.00   0.13     0.06  -0.01   0.01     0.08  -0.30   0.01
   5   1    -0.01   0.02   0.03     0.01  -0.01   0.00     0.01  -0.05   0.00
   6   1    -0.00  -0.02   0.04     0.02  -0.01   0.01     0.00  -0.06  -0.00
   7   8     0.12   0.08  -0.10     0.03  -0.00   0.15    -0.23  -0.11  -0.04
   8   1     0.04   0.03  -0.02     0.02   0.00   0.03    -0.05  -0.02   0.01
   9   1     0.02   0.03  -0.04    -0.00   0.01   0.04    -0.06  -0.03  -0.03
  10   8     0.06   0.20  -0.23    -0.09   0.13  -0.03    -0.27  -0.09  -0.19
  11   1     0.01   0.06  -0.06    -0.03   0.04  -0.01    -0.09  -0.00  -0.05
  12   1     0.02   0.05  -0.03    -0.01   0.04  -0.00    -0.06  -0.02  -0.01
  13   8     0.08   0.02  -0.05    -0.16   0.04  -0.05     0.03  -0.18   0.08
  14   1     0.02   0.00  -0.01    -0.05  -0.02  -0.02     0.01  -0.04   0.02
  15   1     0.02   0.01  -0.02    -0.01   0.00  -0.01     0.01  -0.04  -0.00
  16   8     0.10  -0.11  -0.07    -0.05  -0.25   0.18    -0.05   0.02   0.02
  17   1     0.03  -0.01  -0.02    -0.00  -0.04   0.05    -0.03  -0.01  -0.00
  18   1     0.02  -0.03  -0.01    -0.01  -0.10   0.07    -0.00   0.01  -0.01
  19   8     0.15   0.13   0.03     0.11  -0.11  -0.05     0.14   0.09   0.11
  20   1     0.04   0.03   0.01     0.02  -0.03  -0.01     0.06   0.03   0.03
  21   1     0.05   0.02  -0.01     0.03  -0.02  -0.02     0.05  -0.02  -0.00
  22   8    -0.18  -0.10   0.05     0.02   0.04  -0.01    -0.01   0.05  -0.04
  23   1    -0.05  -0.03   0.01     0.01   0.01  -0.00    -0.02   0.02  -0.01
  24   1    -0.03  -0.03   0.02    -0.02   0.02  -0.01     0.01   0.01  -0.01
  25   8    -0.07   0.15  -0.05    -0.22  -0.01   0.09     0.02   0.06  -0.01
  26   1     0.00   0.05  -0.02    -0.08  -0.00   0.03     0.00   0.02  -0.00
  27   1    -0.02   0.02   0.01    -0.06  -0.00  -0.00     0.00   0.01  -0.00
  28   8    -0.04   0.04   0.11     0.06   0.18  -0.22     0.07   0.16  -0.04
  29   1    -0.02   0.01   0.02     0.03   0.03  -0.04     0.03   0.03  -0.01
  30   1    -0.02   0.00   0.03     0.03   0.06  -0.08     0.03   0.05  -0.01
  31   8     0.07   0.18   0.02     0.02   0.17   0.01    -0.14  -0.03   0.16
  32   1     0.02   0.03   0.01     0.00   0.03   0.01    -0.00  -0.04   0.03
  33   1     0.02   0.05   0.01     0.02   0.04   0.01    -0.05   0.00   0.04
  34   8    -0.06  -0.18   0.11    -0.19   0.12  -0.10     0.14  -0.01  -0.00
  35   1    -0.01  -0.04   0.02    -0.05   0.01  -0.03     0.03  -0.00   0.00
  36   1    -0.00  -0.05   0.02    -0.02   0.03  -0.02     0.02  -0.00   0.01
  37   8     0.23  -0.04  -0.23     0.12  -0.02  -0.07     0.22  -0.34  -0.24
  38   1     0.03  -0.01  -0.03     0.03  -0.01  -0.01     0.04  -0.09  -0.04
  39   1     0.06   0.01  -0.06     0.01  -0.00  -0.01     0.03  -0.07  -0.06
  40   8     0.07  -0.23  -0.07     0.11   0.06  -0.00    -0.07   0.04   0.06
  41   1     0.02  -0.05  -0.02     0.02  -0.01   0.01    -0.01   0.01   0.01
  42   1     0.02  -0.06  -0.02     0.04   0.01   0.00    -0.03   0.02   0.01
  43   8    -0.07   0.06  -0.11     0.04  -0.05   0.14     0.13   0.07   0.03
  44   1    -0.02   0.00  -0.02     0.01  -0.02   0.05     0.03   0.01   0.01
  45   1    -0.02   0.03  -0.02    -0.01  -0.01   0.03     0.02   0.02   0.00
  46   8     0.04  -0.03   0.15     0.08  -0.02  -0.01    -0.12   0.01  -0.08
  47   1     0.02   0.01   0.03     0.02  -0.01  -0.00    -0.02   0.01  -0.00
  48   1     0.03   0.01   0.06     0.02  -0.01  -0.00    -0.03   0.03  -0.01
  49   8    -0.17  -0.08   0.04     0.04  -0.01   0.11     0.07   0.03  -0.01
  50   1    -0.04  -0.02   0.01     0.01   0.00   0.03     0.01   0.01  -0.01
  51   1    -0.04  -0.02   0.01     0.01  -0.01   0.02     0.02   0.00  -0.01
  52   8     0.10   0.11   0.10     0.06  -0.10  -0.02    -0.05   0.12   0.06
  53   1     0.03   0.03   0.02     0.02  -0.02  -0.01    -0.00   0.03   0.02
  54   1     0.01   0.03   0.02     0.01  -0.02  -0.00    -0.01   0.03   0.01
  55   8    -0.15  -0.04  -0.01     0.08  -0.03   0.00     0.05   0.06   0.01
  56   1    -0.04  -0.01  -0.00     0.01   0.00   0.00     0.00   0.02   0.00
  57   1    -0.04  -0.01   0.00     0.02  -0.01   0.00     0.01   0.01   0.01
  58   8    -0.10   0.07   0.06     0.01   0.00   0.02    -0.01   0.05   0.01
  59   1    -0.02   0.02   0.00    -0.01  -0.00   0.01    -0.00   0.01   0.00
  60   1    -0.03   0.01   0.01     0.01   0.01   0.01    -0.00   0.01   0.00
  61   8    -0.10   0.00  -0.02     0.23   0.06  -0.10     0.13   0.11  -0.00
  62   1    -0.02   0.00  -0.02     0.05   0.00  -0.01     0.03   0.02   0.00
  63   1    -0.03  -0.00  -0.00     0.05   0.01  -0.02     0.03   0.02  -0.00
  64   8    -0.06  -0.02   0.13    -0.25  -0.01  -0.14     0.02   0.02  -0.02
  65   1    -0.02  -0.00   0.03    -0.04   0.00  -0.04     0.01   0.02  -0.01
  66   1    -0.00  -0.01   0.03    -0.05  -0.01  -0.04    -0.00  -0.00  -0.02
  67   8     0.10   0.12   0.03     0.12   0.03   0.04    -0.13  -0.00   0.12
  68   1     0.02   0.03   0.01     0.00   0.00  -0.00    -0.02  -0.02   0.03
  69   1     0.02   0.03   0.01     0.02   0.02  -0.00    -0.02   0.01   0.02
  70   8     0.05  -0.07   0.04    -0.36  -0.15  -0.05     0.10  -0.05   0.08
  71   1    -0.01  -0.02   0.01    -0.06  -0.03  -0.01     0.03  -0.00   0.02
  72   1     0.01  -0.02  -0.00    -0.07  -0.04   0.01     0.02  -0.01   0.03
  73   8    -0.20  -0.11   0.03     0.00  -0.01   0.08     0.03   0.06  -0.06
  74   1    -0.06  -0.04   0.01     0.02   0.02   0.03    -0.01   0.01  -0.02
  75   1    -0.04  -0.03   0.02    -0.03   0.01  -0.00     0.02   0.01  -0.01
                     10                     11                     12
                        a                      a                      a 
 Frequencies --    53.4664                55.9709                57.3932
 Red. masses --    14.2485                14.3972                14.3935
 Frc consts  --     0.0000                 0.0000                 0.0000
 IR Inten    --     0.6157                 1.7490                 0.3893
 Raman Activ --     0.0000                 0.0000                 0.0000
 Depolar     --     0.0000                 0.0000                 0.0000
 Atom AN      X      Y      Z        X      Y      Z        X      Y      Z
   1   8     0.04   0.02   0.11     0.21  -0.08  -0.15     0.05   0.03  -0.02
   2   1     0.02  -0.01   0.03     0.07  -0.03  -0.04     0.01   0.00  -0.01
   3   1     0.00  -0.02   0.02     0.04  -0.01  -0.02     0.01  -0.00  -0.01
   4   8     0.08   0.03  -0.12    -0.01   0.11  -0.12    -0.03  -0.02   0.13
   5   1     0.02   0.02  -0.01     0.00   0.02  -0.01    -0.01  -0.01   0.02
   6   1     0.01  -0.02  -0.02    -0.02   0.03  -0.03     0.00  -0.00   0.03
   7   8    -0.02  -0.27   0.07     0.00   0.03   0.23     0.05  -0.08  -0.07
   8   1     0.01  -0.06   0.02     0.00   0.01   0.05     0.02  -0.01   0.00
   9   1    -0.02  -0.05   0.01    -0.00   0.01   0.06     0.01  -0.01  -0.02
  10   8    -0.17  -0.10   0.07    -0.03   0.02   0.09    -0.03   0.05   0.02
  11   1    -0.06  -0.02   0.03    -0.00  -0.00   0.03    -0.01   0.02   0.00
  12   1    -0.02  -0.01  -0.00    -0.01   0.01   0.01    -0.00   0.02   0.01
  13   8     0.01   0.14   0.04     0.09  -0.16   0.03     0.01   0.08   0.18
  14   1     0.01   0.05   0.00     0.03  -0.04   0.03     0.00   0.03   0.02
  15   1    -0.01   0.03   0.02     0.02  -0.03  -0.02    -0.00   0.02   0.06
  16   8    -0.14   0.12  -0.08    -0.18  -0.02   0.15     0.12   0.09  -0.08
  17   1    -0.03  -0.01  -0.01    -0.03  -0.00   0.05     0.02   0.01  -0.02
  18   1    -0.04   0.06  -0.04    -0.07   0.03   0.04     0.04   0.02  -0.03
  19   8     0.01  -0.03   0.08     0.21  -0.13  -0.19    -0.02  -0.02  -0.07
  20   1    -0.01   0.00   0.04     0.04  -0.04  -0.05     0.00  -0.01  -0.02
  21   1     0.01  -0.00   0.01     0.05  -0.01  -0.04    -0.01  -0.01  -0.01
  22   8    -0.03   0.07   0.08     0.04   0.01  -0.07     0.01   0.05   0.01
  23   1    -0.01   0.02   0.03     0.01   0.00  -0.02    -0.00   0.01   0.01
  24   1    -0.02   0.01   0.02     0.02  -0.00  -0.01     0.00   0.01   0.00
  25   8    -0.07   0.24  -0.07     0.04   0.06   0.01    -0.36   0.07  -0.07
  26   1    -0.01   0.10  -0.02     0.01   0.05   0.00    -0.09   0.04  -0.02
  27   1    -0.02   0.02  -0.01     0.01   0.01  -0.00    -0.09   0.02  -0.02
  28   8     0.12  -0.18  -0.03    -0.15   0.07   0.04    -0.21   0.02   0.04
  29   1     0.01  -0.02  -0.00    -0.04   0.02   0.01    -0.04  -0.00   0.02
  30   1     0.02  -0.07  -0.01    -0.04   0.01   0.01    -0.05   0.00  -0.02
  31   8     0.09   0.06  -0.14    -0.06   0.03  -0.07    -0.00   0.05   0.10
  32   1     0.02   0.02  -0.03    -0.02   0.01  -0.01    -0.00   0.01   0.03
  33   1     0.04  -0.00  -0.03    -0.00   0.00  -0.01     0.01   0.01   0.03
  34   8    -0.14  -0.10   0.08     0.16  -0.10  -0.02     0.03  -0.00   0.02
  35   1    -0.03  -0.02   0.02     0.02  -0.01   0.01     0.01   0.00   0.00
  36   1    -0.04  -0.03   0.01     0.03  -0.02  -0.02     0.01  -0.00   0.00
  37   8     0.05   0.05   0.00     0.15   0.13   0.02    -0.06  -0.04   0.03
  38   1     0.02   0.01  -0.02     0.04   0.03  -0.00    -0.02  -0.01   0.02
  39   1    -0.01  -0.01   0.01     0.01   0.02   0.01    -0.01   0.00   0.00
  40   8    -0.21  -0.09  -0.02     0.04  -0.09  -0.25     0.06  -0.00  -0.01
  41   1    -0.05  -0.01  -0.00    -0.01  -0.01  -0.04     0.02   0.01  -0.01
  42   1    -0.05  -0.01   0.00     0.03  -0.03  -0.05     0.01   0.00  -0.00
  43   8     0.02   0.16  -0.10    -0.04   0.04  -0.03     0.13  -0.14  -0.06
  44   1     0.01   0.05  -0.01    -0.01   0.02  -0.02     0.03  -0.04  -0.02
  45   1    -0.00   0.04  -0.03    -0.00   0.01  -0.01     0.02  -0.04  -0.02
  46   8    -0.03  -0.26  -0.05    -0.23   0.03  -0.10     0.00   0.06   0.11
  47   1     0.00  -0.04  -0.01    -0.07  -0.01  -0.02    -0.00   0.01   0.02
  48   1    -0.01  -0.09  -0.02    -0.08  -0.00  -0.04     0.00   0.01   0.02
  49   8     0.12   0.11   0.06     0.01   0.05  -0.07     0.22  -0.04  -0.27
  50   1     0.02   0.00   0.00     0.00   0.01  -0.02     0.05  -0.01  -0.07
  51   1     0.03   0.03   0.02    -0.00   0.01  -0.02     0.06  -0.00  -0.06
  52   8     0.08  -0.00  -0.03    -0.29  -0.15  -0.06    -0.05  -0.04   0.00
  53   1     0.02   0.00  -0.01    -0.04  -0.03  -0.02    -0.01  -0.01  -0.00
  54   1     0.02   0.01  -0.00    -0.05  -0.02  -0.00    -0.01  -0.01   0.00
  55   8     0.10   0.18   0.05    -0.08   0.11   0.09     0.07  -0.03  -0.00
  56   1     0.02   0.05   0.01    -0.00   0.03   0.03     0.03  -0.01   0.00
  57   1     0.03   0.04   0.01    -0.01   0.03   0.01     0.03  -0.01  -0.02
  58   8     0.02   0.15   0.03     0.06   0.02   0.07    -0.03  -0.00   0.01
  59   1     0.00   0.04   0.01     0.02   0.00   0.02    -0.03   0.00   0.00
  60   1     0.01   0.04   0.01     0.01   0.00   0.01     0.00   0.01   0.02
  61   8    -0.02   0.08  -0.03    -0.14   0.08   0.05    -0.06  -0.11   0.14
  62   1    -0.01   0.04  -0.02    -0.03   0.02   0.01    -0.00  -0.02   0.02
  63   1     0.01   0.03  -0.00    -0.04   0.02   0.01    -0.01  -0.03   0.03
  64   8    -0.07  -0.22   0.02     0.04   0.07  -0.00    -0.36   0.09   0.04
  65   1    -0.01  -0.06   0.00    -0.00   0.03   0.00    -0.09   0.01   0.01
  66   1    -0.00  -0.06   0.00    -0.00   0.02  -0.00    -0.07   0.02   0.01
  67   8     0.27  -0.12  -0.02     0.02   0.02   0.11     0.06  -0.00   0.15
  68   1     0.05  -0.02  -0.00     0.02  -0.01   0.03     0.01   0.00   0.04
  69   1     0.06  -0.04   0.00    -0.01   0.01   0.02    -0.00  -0.00   0.03
  70   8    -0.04   0.11   0.05     0.07  -0.12   0.24     0.10   0.10  -0.06
  71   1    -0.00   0.03   0.01     0.01  -0.01   0.05     0.02   0.02  -0.01
  72   1    -0.03   0.03   0.01     0.00  -0.02   0.06     0.03   0.03  -0.02
  73   8    -0.07  -0.15  -0.07     0.07  -0.04   0.00     0.27  -0.16  -0.23
  74   1    -0.03  -0.05  -0.02     0.03  -0.02  -0.00     0.07  -0.06  -0.07
  75   1    -0.03  -0.04  -0.00     0.03  -0.01   0.00     0.05  -0.03  -0.04
                     13                     14                     15
                        a                      a                      a 
 Frequencies --    59.0345                61.9403                62.3386
 Red. masses --    14.3994                14.3679                14.4423
 Frc consts  --     0.0000                 0.0000                 0.0000
 IR Inten    --     1.1116                 0.3631                 1.3497
 Raman Activ --     0.0000                 0.0000                 0.0000
 Depolar     --     0.0000                 0.0000                 0.0000
 Atom AN      X      Y      Z        X      Y      Z        X      Y      Z
   1   8    -0.08   0.02  -0.14     0.04  -0.04   0.13     0.05   0.11  -0.01
   2   1    -0.03  -0.00  -0.04     0.01   0.00   0.04     0.00   0.01  -0.01
   3   1    -0.02   0.00  -0.04     0.01  -0.02   0.03     0.01   0.02  -0.01
   4   8     0.08  -0.07  -0.02     0.14   0.01  -0.10     0.09   0.17  -0.04
   5   1     0.02  -0.01  -0.01     0.04  -0.02  -0.02     0.02   0.04  -0.01
   6   1     0.02   0.00  -0.01     0.03   0.02  -0.03     0.03   0.04  -0.01
   7   8    -0.09  -0.03  -0.19     0.00  -0.17   0.04     0.05  -0.09  -0.07
   8   1    -0.03  -0.01  -0.05     0.02  -0.03   0.01     0.00  -0.02   0.01
   9   1    -0.02  -0.01  -0.03    -0.01  -0.03  -0.01     0.02  -0.03  -0.03
  10   8     0.03  -0.20   0.10    -0.19   0.06  -0.14     0.09  -0.13  -0.21
  11   1     0.00  -0.06   0.04    -0.07   0.03  -0.03     0.02  -0.04  -0.03
  12   1     0.01  -0.05   0.02    -0.03   0.03  -0.02     0.02  -0.04  -0.04
  13   8     0.07   0.25   0.08    -0.07   0.17   0.09    -0.09  -0.30   0.06
  14   1     0.01   0.05   0.02    -0.01   0.05   0.01    -0.02  -0.07   0.01
  15   1     0.03   0.05   0.04    -0.02   0.04   0.04    -0.03  -0.06  -0.01
  16   8     0.11  -0.24  -0.06     0.06   0.03   0.02    -0.09   0.02  -0.17
  17   1     0.01  -0.05  -0.03     0.01  -0.01   0.01    -0.01  -0.00  -0.04
  18   1     0.05  -0.08  -0.02     0.03  -0.00   0.00    -0.04   0.04  -0.05
  19   8     0.03  -0.08  -0.14     0.01   0.04   0.17    -0.13   0.01  -0.14
  20   1     0.02  -0.02  -0.04    -0.01   0.01   0.04    -0.05   0.00  -0.04
  21   1    -0.00  -0.02  -0.01     0.02   0.01   0.01    -0.03   0.02  -0.04
  22   8    -0.07   0.01   0.10     0.16  -0.09   0.00     0.11   0.07   0.04
  23   1    -0.03   0.00   0.01     0.04  -0.02   0.00     0.01   0.02   0.02
  24   1    -0.01   0.00   0.03     0.03  -0.02  -0.00     0.02   0.00   0.01
  25   8     0.03   0.12   0.02     0.10  -0.24  -0.03    -0.08   0.09   0.24
  26   1    -0.01   0.04   0.01     0.00  -0.08   0.00    -0.04   0.02   0.07
  27   1     0.01   0.04  -0.02     0.02  -0.03  -0.03    -0.02   0.03   0.04
  28   8    -0.08  -0.02  -0.10    -0.30  -0.11  -0.03     0.01   0.04   0.03
  29   1    -0.01   0.01   0.00    -0.08  -0.02  -0.00     0.01  -0.00  -0.00
  30   1    -0.02  -0.01  -0.03    -0.08  -0.05  -0.02     0.01   0.01   0.00
  31   8     0.07  -0.17   0.03    -0.02   0.15  -0.02     0.02  -0.20   0.03
  32   1     0.03  -0.03  -0.00     0.01   0.03  -0.01    -0.02  -0.05   0.01
  33   1    -0.01  -0.04  -0.01     0.01   0.02  -0.01     0.01  -0.03   0.02
  34   8    -0.10  -0.04   0.14    -0.04  -0.00  -0.04    -0.00  -0.13   0.00
  35   1    -0.03  -0.01   0.04    -0.02   0.00   0.00     0.01  -0.03  -0.00
  36   1    -0.01  -0.01   0.03    -0.01  -0.00  -0.01    -0.01  -0.03   0.00
  37   8    -0.05  -0.06   0.09     0.12   0.01  -0.18    -0.09   0.15  -0.19
  38   1    -0.00  -0.02   0.02     0.03   0.00  -0.04    -0.00   0.04  -0.05
  39   1    -0.01  -0.02   0.02     0.01   0.00  -0.04    -0.01   0.04  -0.05
  40   8     0.11  -0.09   0.02    -0.01  -0.01   0.08    -0.14  -0.10  -0.08
  41   1     0.03  -0.03  -0.01    -0.00  -0.00   0.02    -0.03  -0.02  -0.02
  42   1     0.01  -0.01   0.00     0.00  -0.01   0.02    -0.03  -0.01  -0.02
  43   8     0.15   0.18   0.12    -0.15  -0.07   0.03    -0.12  -0.05   0.13
  44   1     0.02   0.03   0.01    -0.03   0.00  -0.01    -0.02  -0.01   0.04
  45   1     0.04   0.04   0.03    -0.01  -0.03   0.01    -0.03   0.00   0.04
  46   8     0.16   0.15  -0.09     0.10   0.22  -0.15     0.19   0.17  -0.02
  47   1     0.03   0.02  -0.02     0.02   0.05  -0.02     0.04   0.03  -0.01
  48   1     0.04   0.06  -0.02     0.01   0.07  -0.04     0.05   0.04  -0.01
  49   8    -0.07   0.03  -0.09    -0.02  -0.00   0.00     0.01   0.05   0.14
  50   1    -0.01  -0.00  -0.02    -0.00  -0.00   0.00    -0.00   0.01   0.03
  51   1    -0.02   0.02  -0.01    -0.01  -0.00   0.00     0.00   0.01   0.03
  52   8     0.07  -0.09  -0.06     0.06   0.08   0.06     0.11  -0.02  -0.03
  53   1     0.01  -0.02  -0.03     0.00   0.01   0.04     0.00  -0.00  -0.02
  54   1     0.02  -0.01  -0.01     0.03  -0.01   0.00     0.03   0.01  -0.00
  55   8    -0.16   0.11   0.05    -0.07   0.08   0.06     0.10  -0.02  -0.00
  56   1    -0.03   0.04   0.02     0.01  -0.00   0.01     0.02   0.01   0.00
  57   1    -0.03   0.02  -0.01    -0.01   0.02   0.01     0.02   0.01   0.01
  58   8    -0.01   0.10   0.04     0.14  -0.17  -0.05     0.13   0.15   0.06
  59   1     0.00   0.02   0.02     0.03  -0.05  -0.01     0.02   0.03   0.03
  60   1    -0.00   0.02   0.01     0.04  -0.04  -0.01     0.04   0.04   0.02
  61   8     0.01   0.23   0.22    -0.25  -0.04   0.11     0.02  -0.06  -0.02
  62   1     0.01   0.05   0.06    -0.07  -0.00   0.03    -0.00  -0.02   0.01
  63   1    -0.01   0.05   0.04    -0.05  -0.01   0.03     0.01  -0.01  -0.01
  64   8     0.02   0.13  -0.15     0.11   0.17  -0.17    -0.10   0.22   0.04
  65   1     0.00   0.02  -0.04    -0.00   0.04  -0.04    -0.01   0.05   0.01
  66   1     0.02   0.03  -0.03     0.01   0.05  -0.03    -0.01   0.05   0.01
  67   8    -0.11   0.00  -0.14     0.14  -0.08   0.02    -0.02  -0.09   0.19
  68   1    -0.02   0.02  -0.02     0.02  -0.00   0.01    -0.01  -0.03   0.04
  69   1    -0.02  -0.01  -0.03     0.01  -0.03   0.01    -0.01  -0.01   0.04
  70   8    -0.09  -0.11   0.17    -0.07   0.10   0.06     0.02  -0.03  -0.02
  71   1    -0.04  -0.03   0.04    -0.02   0.02   0.01     0.02  -0.01  -0.00
  72   1    -0.02  -0.03   0.03    -0.02   0.02   0.01     0.00  -0.01  -0.01
  73   8    -0.01  -0.12   0.02     0.03  -0.06   0.06    -0.12  -0.04   0.05
  74   1     0.01  -0.04  -0.00     0.02  -0.01   0.01    -0.04  -0.01   0.01
  75   1    -0.01  -0.03   0.01    -0.00  -0.01   0.01    -0.02  -0.02   0.01
                     16                     17                     18
                        a                      a                      a 
 Frequencies --    64.7601                66.7459                69.7136
 Red. masses --    14.3349                14.5537                14.4413
 Frc consts  --     0.0000                 0.0000                 0.0000
 IR Inten    --     0.6995                 1.2693                 0.7614
 Raman Activ --     0.0000                 0.0000                 0.0000
 Depolar     --     0.0000                 0.0000                 0.0000
 Atom AN      X      Y      Z        X      Y      Z        X      Y      Z
   1   8    -0.05  -0.04  -0.05     0.04   0.15   0.05     0.00  -0.21  -0.00
   2   1    -0.01   0.00  -0.01     0.00   0.04   0.01    -0.00  -0.02   0.01
   3   1    -0.01  -0.00  -0.01     0.01   0.03  -0.00     0.01  -0.04  -0.00
   4   8    -0.04   0.20  -0.20     0.06  -0.17   0.06    -0.00  -0.01   0.06
   5   1    -0.00   0.03  -0.04     0.02  -0.05   0.01     0.01  -0.01   0.02
   6   1     0.00   0.02  -0.03     0.01  -0.02   0.00     0.01  -0.02   0.03
   7   8    -0.10   0.05   0.05     0.05  -0.04  -0.03     0.02  -0.02   0.13
   8   1    -0.04   0.01   0.01     0.02  -0.00  -0.00     0.01  -0.00   0.03
   9   1    -0.02   0.00   0.00     0.01  -0.00   0.01     0.00  -0.01   0.02
  10   8    -0.03  -0.08  -0.03     0.03   0.00   0.02     0.05  -0.07  -0.15
  11   1    -0.00  -0.04   0.01     0.01   0.01  -0.01     0.02  -0.02  -0.04
  12   1    -0.02  -0.03  -0.02     0.02   0.01  -0.00     0.01  -0.02  -0.04
  13   8    -0.04   0.10   0.27     0.17   0.15   0.08     0.02  -0.10  -0.07
  14   1    -0.02   0.02   0.04     0.03   0.02   0.01     0.01  -0.03   0.01
  15   1     0.00   0.01   0.09     0.06   0.03   0.03    -0.00  -0.02  -0.04
  16   8     0.10  -0.08   0.18    -0.20  -0.21  -0.13    -0.12  -0.00   0.07
  17   1     0.01  -0.00   0.03    -0.03  -0.04  -0.03    -0.02  -0.01   0.03
  18   1     0.04  -0.05   0.05    -0.06  -0.05  -0.02    -0.04   0.02   0.02
  19   8    -0.02   0.13   0.01    -0.10   0.08  -0.01    -0.24   0.21   0.04
  20   1    -0.02   0.03  -0.00    -0.00   0.02  -0.00    -0.06   0.07   0.03
  21   1    -0.00   0.05  -0.00    -0.03  -0.01   0.00    -0.06   0.04  -0.00
  22   8     0.06  -0.10  -0.09     0.12   0.11  -0.23    -0.12  -0.11  -0.16
  23   1     0.00  -0.02  -0.03     0.03   0.03  -0.04    -0.03  -0.03  -0.05
  24   1     0.02  -0.02  -0.02     0.03   0.01  -0.06    -0.01  -0.02  -0.03
  25   8    -0.09   0.05  -0.26    -0.08   0.04  -0.18     0.02   0.09   0.11
  26   1    -0.00   0.02  -0.07     0.00   0.03  -0.05    -0.02   0.04   0.04
  27   1    -0.02  -0.01  -0.04    -0.02   0.01  -0.02    -0.00   0.00   0.00
  28   8    -0.14   0.11   0.05    -0.04  -0.02   0.12    -0.09   0.01  -0.14
  29   1    -0.01   0.01   0.02    -0.00  -0.01   0.03    -0.03   0.02  -0.02
  30   1    -0.02   0.05   0.01    -0.01  -0.01   0.01    -0.03  -0.00  -0.03
  31   8    -0.18  -0.14  -0.08     0.16   0.07  -0.08     0.09  -0.06  -0.08
  32   1    -0.07  -0.02  -0.02     0.04   0.01  -0.01     0.00  -0.02  -0.01
  33   1    -0.05  -0.03  -0.01     0.05   0.02  -0.01     0.03  -0.01  -0.01
  34   8     0.08  -0.04  -0.10     0.14  -0.04  -0.26     0.13   0.11  -0.10
  35   1     0.01  -0.02  -0.02     0.02  -0.01  -0.05     0.01   0.03  -0.00
  36   1     0.03  -0.01  -0.02     0.02  -0.01  -0.05     0.03   0.03  -0.03
  37   8     0.02   0.25  -0.07    -0.18  -0.17   0.09    -0.23  -0.02  -0.07
  38   1     0.01   0.06  -0.04    -0.04  -0.04   0.03    -0.05  -0.00  -0.02
  39   1     0.00   0.04  -0.01    -0.03  -0.03   0.02    -0.04  -0.01  -0.02
  40   8     0.14  -0.05   0.06    -0.13   0.02  -0.07     0.03   0.13  -0.14
  41   1     0.03  -0.01   0.02    -0.03  -0.01  -0.02    -0.00   0.03  -0.02
  42   1     0.03  -0.01   0.01    -0.03   0.02  -0.01     0.02  -0.00  -0.03
  43   8     0.15   0.13  -0.09    -0.01   0.19  -0.01     0.08  -0.07   0.00
  44   1     0.03   0.02  -0.01    -0.01   0.04  -0.00     0.01  -0.03  -0.00
  45   1     0.01   0.03  -0.03    -0.01   0.04  -0.01     0.02  -0.01   0.01
  46   8     0.06  -0.22  -0.10    -0.05   0.06  -0.00     0.11  -0.08   0.08
  47   1     0.03  -0.03  -0.02    -0.01   0.02   0.01     0.04  -0.00   0.03
  48   1     0.01  -0.09  -0.04    -0.02   0.02  -0.00     0.04  -0.00   0.04
  49   8     0.02  -0.08   0.17    -0.13   0.08   0.07     0.03  -0.10  -0.13
  50   1     0.00  -0.01   0.04    -0.03   0.02   0.02     0.01  -0.01  -0.03
  51   1     0.00  -0.04   0.03    -0.04   0.01   0.01     0.01  -0.03  -0.04
  52   8     0.20   0.10  -0.01    -0.05   0.04   0.07     0.20   0.12   0.20
  53   1     0.04   0.02   0.00    -0.03   0.01   0.01     0.01   0.03   0.03
  54   1     0.03   0.02  -0.01     0.00   0.01   0.02     0.04   0.04   0.05
  55   8     0.09  -0.04  -0.01     0.02  -0.13  -0.03    -0.16   0.09   0.11
  56   1     0.02  -0.03  -0.02     0.01  -0.04  -0.01    -0.03   0.03   0.04
  57   1     0.02  -0.01   0.01    -0.00  -0.02  -0.00    -0.03   0.01   0.01
  58   8     0.07  -0.05  -0.06     0.07  -0.09   0.03     0.03   0.05   0.15
  59   1     0.01  -0.00  -0.03     0.00  -0.01  -0.01     0.02   0.01   0.03
  60   1     0.02  -0.01  -0.01     0.02  -0.01  -0.00    -0.00   0.00   0.01
  61   8     0.04  -0.07   0.12     0.02  -0.11   0.14    -0.06   0.16   0.02
  62   1     0.02  -0.00   0.01     0.01  -0.02   0.02    -0.01   0.03   0.01
  63   1     0.01  -0.02   0.04     0.00  -0.03   0.04    -0.02   0.04   0.00
  64   8    -0.07  -0.13   0.06    -0.05   0.07   0.09    -0.01  -0.16  -0.12
  65   1    -0.04  -0.02   0.02    -0.02   0.02   0.03    -0.00  -0.04  -0.03
  66   1    -0.00  -0.04   0.01    -0.01   0.02   0.02     0.01  -0.04  -0.03
  67   8    -0.20   0.02   0.13     0.21   0.07   0.05     0.07  -0.03  -0.00
  68   1    -0.03   0.01   0.04     0.05   0.03   0.02     0.02  -0.02  -0.01
  69   1    -0.06  -0.00   0.04     0.03   0.01   0.02     0.01   0.00  -0.01
  70   8     0.01  -0.05  -0.02    -0.02  -0.22  -0.02    -0.04  -0.03   0.22
  71   1     0.02  -0.01  -0.01    -0.00  -0.06  -0.00    -0.02  -0.01   0.05
  72   1     0.00  -0.01   0.01    -0.02  -0.05  -0.02    -0.01  -0.01   0.05
  73   8    -0.06   0.06   0.06    -0.04   0.08   0.20     0.19   0.09  -0.06
  74   1    -0.03   0.03   0.02     0.03   0.03   0.05     0.06   0.03  -0.01
  75   1    -0.00   0.01   0.00     0.00   0.02   0.02     0.04   0.02  -0.02
                     19                     20                     21
                        a                      a                      a 
 Frequencies --    72.4700                73.7246                77.4277
 Red. masses --    14.4056                14.5515                14.5123
 Frc consts  --     0.0000                 0.0000                 0.0000
 IR Inten    --     1.8371                 0.7120                 1.0144
 Raman Activ --     0.0000                 0.0000                 0.0000
 Depolar     --     0.0000                 0.0000                 0.0000
 Atom AN      X      Y      Z        X      Y      Z        X      Y      Z
   1   8    -0.07   0.05  -0.03    -0.06   0.03   0.04    -0.08   0.08   0.13
   2   1    -0.03   0.02  -0.01    -0.01  -0.00   0.01    -0.01   0.01   0.03
   3   1    -0.01   0.01  -0.02    -0.02  -0.00   0.01    -0.03  -0.00   0.03
   4   8     0.20  -0.09  -0.12    -0.12   0.11  -0.07    -0.11   0.20   0.07
   5   1     0.06  -0.03  -0.02    -0.03   0.02  -0.02    -0.02   0.05   0.03
   6   1     0.04  -0.02  -0.03    -0.02   0.01  -0.01    -0.03   0.02   0.03
   7   8     0.03  -0.05  -0.22    -0.03  -0.08  -0.06    -0.04  -0.08  -0.06
   8   1     0.02  -0.00  -0.01     0.00  -0.01   0.01    -0.01  -0.02  -0.01
   9   1    -0.00  -0.00  -0.03    -0.01  -0.01  -0.01    -0.01  -0.02  -0.03
  10   8     0.03   0.01   0.17    -0.03  -0.09   0.03    -0.02  -0.12  -0.02
  11   1     0.02   0.01   0.02    -0.01  -0.04   0.03    -0.03  -0.05   0.04
  12   1     0.01   0.01   0.03    -0.00  -0.02  -0.02    -0.00  -0.03  -0.01
  13   8    -0.11  -0.06   0.01     0.11  -0.01   0.04     0.02   0.16   0.11
  14   1    -0.02  -0.01   0.01     0.02  -0.01   0.00     0.01   0.05   0.02
  15   1    -0.04  -0.00  -0.03     0.03  -0.00   0.00    -0.00   0.04   0.05
  16   8     0.18  -0.05  -0.14    -0.24  -0.11  -0.18     0.11   0.05  -0.02
  17   1     0.02  -0.02  -0.05    -0.05  -0.03  -0.04     0.02   0.01  -0.01
  18   1     0.06  -0.01  -0.05    -0.08  -0.01  -0.04     0.05  -0.01  -0.01
  19   8    -0.05   0.06   0.00     0.11  -0.06   0.10     0.06  -0.21   0.13
  20   1     0.01   0.02  -0.00     0.01  -0.03   0.01    -0.01  -0.07   0.00
  21   1    -0.02   0.00   0.02     0.03   0.01   0.02     0.02  -0.02   0.01
  22   8     0.10  -0.03  -0.01    -0.00  -0.01   0.26    -0.14   0.12  -0.36
  23   1     0.01  -0.00  -0.00     0.00  -0.00   0.05    -0.02   0.03  -0.06
  24   1     0.02  -0.01  -0.00     0.00   0.01   0.07    -0.02   0.01  -0.09
  25   8     0.02  -0.09   0.08    -0.03  -0.13  -0.07     0.01   0.01   0.10
  26   1     0.01  -0.02   0.02     0.00  -0.06  -0.02    -0.01   0.02   0.03
  27   1     0.01  -0.03   0.02    -0.00  -0.01  -0.00     0.00   0.00   0.01
  28   8    -0.08   0.41  -0.00    -0.02   0.19   0.04     0.09   0.08  -0.09
  29   1    -0.02   0.08  -0.03     0.00   0.03   0.00     0.02   0.02  -0.03
  30   1    -0.02   0.11   0.00     0.00   0.05   0.00     0.02   0.02  -0.02
  31   8     0.08   0.05   0.00     0.04  -0.03  -0.24     0.06  -0.09  -0.03
  32   1     0.02   0.00   0.00    -0.03  -0.00  -0.04    -0.00  -0.01  -0.00
  33   1     0.03   0.02   0.01     0.03  -0.00  -0.03     0.02  -0.02  -0.00
  34   8    -0.00  -0.07  -0.02    -0.01   0.19   0.28     0.15  -0.11  -0.28
  35   1    -0.01  -0.01   0.00     0.00   0.05   0.06     0.03  -0.02  -0.06
  36   1    -0.00  -0.02  -0.00    -0.00   0.05   0.05     0.02  -0.03  -0.04
  37   8    -0.14  -0.03   0.21     0.17   0.14  -0.03     0.19   0.17  -0.10
  38   1    -0.01  -0.01   0.03     0.03   0.03  -0.02     0.04   0.04  -0.02
  39   1    -0.03  -0.02   0.06     0.03   0.02  -0.00     0.04   0.04  -0.02
  40   8     0.06  -0.09   0.07    -0.17   0.23  -0.03    -0.04  -0.06   0.18
  41   1     0.02  -0.03   0.00    -0.03   0.04  -0.02    -0.00  -0.01   0.04
  42   1     0.00  -0.01   0.01    -0.05   0.04  -0.01    -0.02   0.01   0.05
  43   8    -0.17  -0.09  -0.03     0.03  -0.06  -0.01    -0.09  -0.01   0.03
  44   1    -0.03  -0.01  -0.00    -0.00  -0.03  -0.01    -0.02  -0.00   0.00
  45   1    -0.04  -0.02  -0.01     0.00  -0.02  -0.01    -0.02  -0.00   0.01
  46   8    -0.11  -0.22  -0.14     0.13  -0.04  -0.04     0.03   0.02   0.15
  47   1    -0.02  -0.03  -0.01     0.03  -0.01  -0.01    -0.00  -0.02   0.03
  48   1    -0.06  -0.11  -0.07     0.04  -0.00  -0.00     0.02   0.04   0.05
  49   8    -0.03   0.00  -0.04    -0.10  -0.03  -0.19    -0.13   0.03  -0.13
  50   1    -0.01  -0.00  -0.01    -0.02   0.01  -0.04    -0.03   0.00  -0.03
  51   1    -0.01  -0.00  -0.01    -0.01   0.02  -0.02    -0.04   0.00  -0.04
  52   8     0.03   0.03   0.04     0.14  -0.03   0.01    -0.05  -0.19   0.10
  53   1     0.00   0.01   0.01     0.04  -0.01   0.02    -0.00  -0.05   0.03
  54   1     0.02   0.01   0.01     0.01  -0.02  -0.01    -0.01  -0.05   0.03
  55   8    -0.10   0.11   0.02    -0.14  -0.15  -0.01    -0.14  -0.05   0.04
  56   1    -0.02   0.03   0.01    -0.03  -0.03   0.01    -0.04  -0.01   0.01
  57   1    -0.02   0.03  -0.00    -0.03  -0.04  -0.02    -0.03  -0.01   0.00
  58   8     0.11  -0.03   0.00    -0.09  -0.11  -0.04    -0.08  -0.03   0.15
  59   1     0.03  -0.01   0.01    -0.03  -0.03  -0.01    -0.01  -0.01   0.04
  60   1     0.03  -0.00  -0.01    -0.01  -0.02   0.01    -0.03   0.00  -0.00
  61   8    -0.06   0.14  -0.25     0.06  -0.02  -0.04     0.07   0.06  -0.15
  62   1    -0.02   0.03  -0.05     0.02  -0.01  -0.01     0.01   0.01  -0.03
  63   1    -0.03   0.02  -0.04    -0.01  -0.02   0.00     0.01   0.01  -0.02
  64   8     0.02  -0.09   0.05    -0.01   0.03   0.06    -0.00  -0.03  -0.04
  65   1    -0.00   0.02   0.01    -0.01   0.03   0.02     0.01  -0.01  -0.01
  66   1    -0.01  -0.03  -0.02     0.00  -0.00   0.00    -0.00  -0.01  -0.01
  67   8     0.09   0.17   0.25     0.11   0.09   0.13     0.02  -0.01   0.01
  68   1     0.00   0.03   0.05     0.03   0.02   0.03     0.01   0.00   0.01
  69   1     0.01   0.05   0.05     0.01   0.02   0.03     0.00  -0.00   0.00
  70   8    -0.02   0.05   0.06     0.07  -0.17   0.06     0.07   0.07  -0.00
  71   1    -0.01   0.01   0.02    -0.02  -0.05   0.01     0.01   0.01   0.00
  72   1     0.00   0.01   0.01     0.01  -0.04  -0.01     0.01   0.02  -0.01
  73   8     0.01  -0.09   0.02     0.09   0.14  -0.05     0.05  -0.05   0.08
  74   1     0.02  -0.03   0.00     0.02   0.02  -0.02     0.06  -0.01   0.02
  75   1    -0.00  -0.02   0.01     0.02   0.03   0.01     0.02  -0.01  -0.00
                     22                     23                     24
                        a                      a                      a 
 Frequencies --    79.1719                80.6822                85.1941
 Red. masses --    14.2921                14.5177                14.4711
 Frc consts  --     0.0000                 0.0000                 0.0000
 IR Inten    --     0.8838                 2.8815                 0.8381
 Raman Activ --     0.0000                 0.0000                 0.0000
 Depolar     --     0.0000                 0.0000                 0.0000
 Atom AN      X      Y      Z        X      Y      Z        X      Y      Z
   1   8    -0.17  -0.18   0.06    -0.02  -0.03   0.14    -0.15   0.10  -0.03
   2   1    -0.03  -0.05   0.02    -0.01  -0.01   0.03    -0.03   0.03  -0.01
   3   1    -0.05  -0.04   0.03    -0.00  -0.01   0.03    -0.04   0.03  -0.01
   4   8     0.25  -0.06  -0.16     0.13   0.12  -0.01    -0.11   0.07   0.06
   5   1     0.06   0.01  -0.03     0.04   0.03   0.01    -0.03   0.01   0.01
   6   1     0.04   0.01  -0.05     0.02   0.02  -0.00    -0.02   0.02   0.02
   7   8    -0.08   0.04   0.06     0.16  -0.03  -0.14    -0.06   0.06  -0.18
   8   1    -0.01   0.01   0.01     0.03  -0.01  -0.01    -0.01   0.02  -0.05
   9   1    -0.02   0.01   0.01     0.04  -0.01  -0.03    -0.01   0.02  -0.04
  10   8    -0.02  -0.09   0.04     0.12   0.14  -0.02     0.06  -0.06  -0.01
  11   1    -0.01  -0.02   0.02     0.03   0.05  -0.02     0.02  -0.02   0.01
  12   1     0.00  -0.02   0.00     0.02   0.03   0.02     0.01  -0.02  -0.01
  13   8     0.03   0.02  -0.14    -0.12  -0.32  -0.14    -0.02  -0.11  -0.22
  14   1     0.01  -0.00  -0.03    -0.03  -0.09  -0.02    -0.00  -0.05   0.00
  15   1     0.01   0.01  -0.05    -0.02  -0.07  -0.08    -0.00  -0.02  -0.08
  16   8     0.01   0.05   0.10     0.04   0.03  -0.20     0.01  -0.15  -0.08
  17   1    -0.00   0.02   0.02     0.01   0.00  -0.05    -0.01  -0.03  -0.03
  18   1     0.01  -0.01   0.03     0.00   0.03  -0.06     0.01  -0.01  -0.04
  19   8    -0.01  -0.22   0.15    -0.03  -0.15   0.14     0.06  -0.02   0.04
  20   1    -0.02  -0.04   0.06    -0.03  -0.04   0.03     0.02  -0.03  -0.02
  21   1     0.00  -0.05   0.03    -0.00  -0.02   0.02     0.02   0.00   0.01
  22   8    -0.13  -0.18  -0.09     0.08  -0.07   0.01     0.04  -0.01  -0.08
  23   1    -0.06  -0.04  -0.03     0.02  -0.02   0.01     0.00  -0.00  -0.02
  24   1    -0.02  -0.04  -0.02     0.01  -0.02  -0.00     0.01  -0.00  -0.02
  25   8    -0.08   0.23   0.12    -0.02   0.06  -0.20    -0.10  -0.11  -0.17
  26   1    -0.01   0.09   0.03    -0.00   0.04  -0.05     0.00  -0.01  -0.05
  27   1    -0.02   0.05   0.03    -0.01  -0.00  -0.05    -0.02  -0.01  -0.01
  28   8    -0.02  -0.01   0.19    -0.08  -0.02  -0.07     0.03  -0.06   0.13
  29   1    -0.01  -0.00   0.04    -0.01   0.01   0.02    -0.01  -0.00   0.02
  30   1    -0.01  -0.01   0.05    -0.01  -0.00  -0.03    -0.00  -0.03   0.04
  31   8     0.14  -0.00  -0.03    -0.01   0.05   0.18     0.10  -0.05  -0.10
  32   1     0.06  -0.00  -0.02     0.01   0.01   0.04     0.01  -0.00  -0.02
  33   1     0.02   0.00  -0.02    -0.00   0.01   0.04     0.02  -0.00  -0.02
  34   8     0.04   0.10  -0.08    -0.03   0.05  -0.04     0.02   0.00  -0.09
  35   1     0.01   0.02  -0.02    -0.01   0.01  -0.01    -0.01  -0.00  -0.00
  36   1     0.01   0.02  -0.01    -0.01   0.01  -0.01    -0.00   0.00  -0.01
  37   8     0.06  -0.04   0.03     0.06   0.13  -0.01     0.09   0.06  -0.02
  38   1     0.04  -0.01  -0.01     0.03   0.03  -0.01     0.01   0.01   0.00
  39   1     0.01  -0.02   0.01     0.02   0.03  -0.00     0.03   0.02  -0.01
  40   8    -0.00   0.12   0.10    -0.08   0.07   0.09    -0.03   0.02   0.09
  41   1    -0.00   0.03   0.03    -0.01   0.00   0.01     0.00  -0.02   0.01
  42   1    -0.00   0.01   0.02    -0.03   0.02   0.02    -0.02   0.02   0.02
  43   8     0.04  -0.13  -0.11     0.30   0.21   0.06     0.01  -0.08  -0.11
  44   1     0.00  -0.06  -0.01     0.05   0.02   0.00     0.02   0.00  -0.01
  45   1     0.00   0.00  -0.01     0.05   0.04   0.00    -0.01  -0.03  -0.04
  46   8     0.04   0.05  -0.20    -0.12  -0.05   0.04     0.02   0.07   0.10
  47   1     0.01   0.00  -0.04    -0.03  -0.02   0.01     0.00   0.01   0.02
  48   1    -0.01  -0.01  -0.07    -0.05  -0.03  -0.01     0.01   0.03   0.03
  49   8    -0.03  -0.21   0.07    -0.12  -0.10  -0.02     0.31  -0.00   0.24
  50   1    -0.00  -0.02   0.02    -0.02  -0.01   0.00     0.06  -0.00   0.04
  51   1    -0.01  -0.08  -0.01    -0.03  -0.03  -0.01     0.06  -0.03   0.03
  52   8     0.00  -0.09  -0.12    -0.14  -0.10   0.01    -0.02  -0.04   0.07
  53   1     0.00  -0.02  -0.03    -0.02  -0.02   0.01    -0.00  -0.01   0.03
  54   1     0.01  -0.01  -0.02    -0.02  -0.03   0.01    -0.01  -0.02   0.01
  55   8    -0.03  -0.02  -0.10    -0.14  -0.00  -0.04     0.16   0.26   0.20
  56   1    -0.01   0.01  -0.02    -0.02  -0.01  -0.01     0.03   0.05   0.04
  57   1    -0.01  -0.01  -0.02    -0.03  -0.01  -0.01     0.04   0.05   0.06
  58   8     0.06   0.21   0.02     0.08  -0.07   0.01    -0.03  -0.16  -0.01
  59   1     0.02   0.05   0.01     0.02  -0.01  -0.01    -0.01  -0.04  -0.00
  60   1     0.01   0.04  -0.00     0.02  -0.02  -0.00    -0.01  -0.03  -0.00
  61   8    -0.11  -0.05   0.04     0.04   0.18   0.30    -0.15   0.06  -0.03
  62   1    -0.01  -0.02  -0.00     0.04   0.02   0.07    -0.04   0.03  -0.02
  63   1    -0.03  -0.01  -0.01    -0.01   0.04   0.03    -0.02   0.03  -0.01
  64   8    -0.09   0.23   0.19    -0.02  -0.10  -0.10    -0.06   0.07   0.15
  65   1    -0.01   0.06   0.04    -0.02  -0.03  -0.02    -0.02   0.01   0.04
  66   1    -0.00   0.04   0.03    -0.01  -0.02  -0.01    -0.01   0.02   0.04
  67   8     0.06   0.11  -0.03    -0.00  -0.08   0.05    -0.03   0.10  -0.12
  68   1     0.01   0.03  -0.01    -0.01  -0.04   0.00    -0.02   0.02  -0.04
  69   1     0.01   0.02  -0.00     0.00  -0.01   0.00     0.01   0.02  -0.02
  70   8     0.02   0.01  -0.11    -0.06   0.04  -0.05    -0.22  -0.03   0.27
  71   1     0.00   0.01  -0.03    -0.01   0.00  -0.01    -0.02   0.00   0.07
  72   1     0.01   0.00  -0.02     0.00   0.00  -0.01    -0.04  -0.01   0.08
  73   8     0.02   0.13   0.01    -0.01   0.05   0.05     0.05   0.01  -0.09
  74   1    -0.01   0.05   0.01     0.01   0.02   0.02    -0.02   0.02  -0.01
  75   1     0.01   0.03  -0.01    -0.00   0.01   0.00     0.01   0.01  -0.03
                     25                     26                     27
                        a                      a                      a 
 Frequencies --    90.5258                92.3710                93.6110
 Red. masses --    14.6491                14.4256                14.2276
 Frc consts  --     0.0000                 0.0000                 0.0000
 IR Inten    --     2.3590                 0.9521                 1.3346
 Raman Activ --     0.0000                 0.0000                 0.0000
 Depolar     --     0.0000                 0.0000                 0.0000
 Atom AN      X      Y      Z        X      Y      Z        X      Y      Z
   1   8     0.10   0.04  -0.02    -0.01  -0.13   0.07     0.00   0.07  -0.07
   2   1     0.02   0.01  -0.00    -0.01  -0.03   0.02     0.00   0.01  -0.02
   3   1     0.03   0.01  -0.00     0.00  -0.02   0.02    -0.00   0.02  -0.01
   4   8     0.04  -0.02  -0.09     0.18   0.08   0.02     0.15   0.14   0.19
   5   1     0.02  -0.03  -0.02     0.04   0.03   0.00     0.04   0.04   0.06
   6   1     0.02   0.01  -0.03     0.04   0.02   0.00     0.02   0.02   0.05
   7   8    -0.03  -0.01   0.09     0.11   0.03  -0.02    -0.17  -0.04   0.10
   8   1    -0.02  -0.01   0.00     0.02   0.00  -0.01    -0.04  -0.01   0.02
   9   1    -0.00  -0.01   0.02     0.03   0.00  -0.01    -0.04  -0.02  -0.00
  10   8    -0.06  -0.04  -0.01     0.14   0.08  -0.11    -0.14  -0.33  -0.06
  11   1    -0.02  -0.01   0.00     0.04   0.03  -0.05    -0.11  -0.10   0.09
  12   1    -0.01  -0.01  -0.01     0.02   0.01   0.02    -0.00  -0.06  -0.01
  13   8    -0.07  -0.02  -0.07     0.04   0.24   0.28     0.04   0.08  -0.15
  14   1    -0.01   0.01  -0.01     0.01   0.07   0.05     0.01   0.01  -0.04
  15   1    -0.03   0.00  -0.03     0.00   0.05   0.10     0.02   0.02  -0.04
  16   8     0.06   0.14   0.11    -0.14  -0.20  -0.10    -0.01   0.05   0.15
  17   1     0.01   0.02   0.03    -0.01  -0.03  -0.02    -0.01   0.01   0.03
  18   1     0.02   0.04   0.02    -0.05  -0.05  -0.01     0.02  -0.03   0.05
  19   8    -0.01   0.10  -0.06    -0.10  -0.05   0.10    -0.04   0.07  -0.14
  20   1     0.00   0.02  -0.03    -0.04  -0.00   0.05    -0.01   0.01  -0.04
  21   1    -0.00   0.02  -0.01    -0.02  -0.01   0.01    -0.01   0.02  -0.04
  22   8     0.17  -0.00   0.03     0.01  -0.11   0.01     0.18  -0.05   0.12
  23   1     0.04  -0.00   0.01     0.00  -0.03   0.00     0.03  -0.01   0.02
  24   1     0.03  -0.01   0.00     0.01  -0.02   0.00     0.03  -0.01   0.03
  25   8    -0.22  -0.10  -0.15    -0.06  -0.07  -0.02     0.01  -0.08  -0.08
  26   1    -0.02  -0.02  -0.05    -0.01  -0.03  -0.01     0.01  -0.03  -0.02
  27   1    -0.05  -0.00  -0.00    -0.01  -0.02   0.00     0.00  -0.03  -0.01
  28   8     0.44  -0.13   0.14     0.20  -0.09  -0.02    -0.09   0.11  -0.01
  29   1     0.08  -0.00   0.02     0.03  -0.01  -0.02    -0.02   0.03   0.00
  30   1     0.09  -0.07   0.04     0.03  -0.05   0.00    -0.02   0.04  -0.00
  31   8    -0.05  -0.02  -0.02    -0.03  -0.05   0.37     0.36  -0.11   0.15
  32   1    -0.00  -0.01  -0.01     0.04  -0.01   0.07     0.11  -0.02   0.03
  33   1    -0.02  -0.01  -0.01    -0.04  -0.01   0.06     0.06  -0.02   0.02
  34   8    -0.00  -0.03   0.00     0.09   0.05   0.06    -0.07   0.02   0.06
  35   1    -0.01   0.00   0.01     0.01   0.01   0.03    -0.01   0.00   0.01
  36   1    -0.00  -0.01  -0.01     0.02   0.01   0.00    -0.01   0.00   0.01
  37   8    -0.05   0.00  -0.01    -0.01   0.07  -0.07    -0.01   0.07  -0.16
  38   1    -0.01   0.00  -0.01     0.02   0.02  -0.02     0.01   0.02  -0.02
  39   1    -0.02  -0.00   0.00     0.01   0.02  -0.02    -0.01   0.02  -0.04
  40   8     0.06  -0.06  -0.06    -0.06   0.08  -0.05     0.03   0.01  -0.01
  41   1     0.01   0.00  -0.00    -0.01   0.01  -0.02     0.00   0.01   0.01
  42   1     0.03  -0.01  -0.01    -0.02   0.00  -0.01     0.01   0.00   0.00
  43   8     0.05   0.02   0.02    -0.12  -0.06  -0.07     0.03  -0.02  -0.03
  44   1     0.00  -0.01   0.00    -0.02  -0.01  -0.01     0.00  -0.01  -0.01
  45   1    -0.01  -0.01  -0.01    -0.03  -0.02  -0.02     0.00  -0.00  -0.01
  46   8     0.04   0.04  -0.12    -0.10  -0.01   0.05    -0.15   0.01   0.30
  47   1     0.01   0.01  -0.01    -0.02   0.00   0.00    -0.04   0.01   0.05
  48   1    -0.01  -0.01  -0.05    -0.04  -0.05  -0.01    -0.02  -0.01   0.08
  49   8    -0.20  -0.10  -0.15     0.04  -0.02   0.00    -0.07  -0.08   0.01
  50   1    -0.04  -0.02  -0.03     0.01   0.01   0.00    -0.01  -0.01   0.01
  51   1    -0.04  -0.02  -0.04     0.01  -0.02  -0.01    -0.02  -0.02   0.00
  52   8     0.06   0.03   0.12    -0.11   0.03  -0.18    -0.17   0.05  -0.07
  53   1     0.00   0.01   0.03    -0.02   0.01  -0.03    -0.04   0.01  -0.02
  54   1     0.02  -0.00   0.03    -0.02   0.00  -0.05    -0.03   0.02  -0.01
  55   8    -0.28  -0.02   0.06    -0.01   0.18  -0.05    -0.03   0.00  -0.12
  56   1    -0.05  -0.02   0.02     0.00   0.05  -0.01    -0.00  -0.01  -0.04
  57   1    -0.06  -0.01   0.00     0.00   0.03  -0.02    -0.01  -0.00  -0.02
  58   8     0.07  -0.20   0.03     0.04   0.04  -0.18     0.12  -0.03  -0.11
  59   1    -0.01  -0.04  -0.01     0.01   0.00  -0.03     0.03  -0.00  -0.03
  60   1     0.03  -0.02   0.00     0.01  -0.00  -0.03     0.03  -0.01  -0.01
  61   8     0.08   0.21  -0.09    -0.03   0.12  -0.23    -0.02   0.05  -0.00
  62   1     0.03   0.04  -0.02    -0.03   0.04  -0.05     0.00   0.00  -0.00
  63   1     0.00   0.04  -0.03     0.01   0.03  -0.03    -0.02   0.01  -0.01
  64   8    -0.19   0.19   0.22    -0.07  -0.02   0.02     0.01  -0.12   0.01
  65   1    -0.01   0.03   0.05     0.00  -0.02   0.00    -0.01  -0.03   0.01
  66   1    -0.03   0.04   0.05    -0.03   0.00   0.01    -0.02  -0.02   0.02
  67   8    -0.04  -0.06  -0.07    -0.11  -0.11  -0.01     0.10   0.13  -0.03
  68   1    -0.01  -0.01  -0.02    -0.02  -0.01   0.01     0.02   0.03  -0.01
  69   1     0.04  -0.02  -0.00     0.00  -0.04   0.01     0.01   0.04  -0.02
  70   8     0.01   0.12   0.09     0.06  -0.17   0.13     0.02   0.02  -0.12
  71   1    -0.02   0.03   0.02    -0.01  -0.03   0.02    -0.00   0.02  -0.03
  72   1     0.00   0.03   0.01    -0.00  -0.04   0.02    -0.00   0.01  -0.02
  73   8     0.01  -0.06   0.05     0.07   0.09  -0.01    -0.04  -0.01   0.03
  74   1     0.04  -0.02   0.01     0.01   0.02  -0.00    -0.01   0.00   0.01
  75   1     0.00  -0.02   0.01     0.02   0.02  -0.00    -0.01  -0.00   0.01
                     28                     29                     30
                        a                      a                      a 
 Frequencies --   103.9494               120.6691               136.7150
 Red. masses --    14.1995                13.7624                13.1691
 Frc consts  --     0.0000                 0.0000                 0.0000
 IR Inten    --     6.7066                 3.9413                 2.9143
 Raman Activ --     0.0000                 0.0000                 0.0000
 Depolar     --     0.0000                 0.0000                 0.0000
 Atom AN      X      Y      Z        X      Y      Z        X      Y      Z
   1   8     0.11   0.30   0.06     0.07   0.14  -0.00    -0.28   0.02  -0.24
   2   1     0.02   0.05   0.00     0.01   0.03  -0.00    -0.06   0.01  -0.05
   3   1     0.02   0.06   0.00     0.01   0.02  -0.01    -0.07   0.02  -0.05
   4   8    -0.15  -0.04   0.05     0.23   0.03  -0.11     0.09  -0.00   0.01
   5   1    -0.05   0.00   0.01     0.07  -0.00  -0.01     0.03  -0.01   0.01
   6   1    -0.03  -0.01   0.02     0.05   0.02  -0.03     0.01   0.00   0.00
   7   8     0.05  -0.04  -0.00     0.03  -0.02   0.07    -0.07  -0.00   0.07
   8   1     0.01  -0.01  -0.00     0.01  -0.01   0.02    -0.00   0.01   0.02
   9   1     0.01  -0.01   0.01     0.01  -0.01   0.01    -0.02   0.00   0.01
  10   8     0.00   0.06   0.04     0.03  -0.01  -0.05     0.14   0.09  -0.06
  11   1     0.01   0.01  -0.00    -0.00   0.02  -0.03     0.13   0.08  -0.20
  12   1    -0.00   0.01  -0.00     0.01  -0.00   0.02     0.02   0.01  -0.01
  13   8    -0.05   0.08   0.10     0.09  -0.02  -0.01    -0.04  -0.08   0.18
  14   1    -0.01   0.03   0.02     0.02  -0.01  -0.00    -0.01  -0.02   0.04
  15   1    -0.02   0.02   0.03     0.02  -0.00  -0.01    -0.01  -0.02   0.04
  16   8    -0.02  -0.02  -0.06    -0.04   0.04   0.04    -0.07   0.08   0.10
  17   1    -0.00  -0.01  -0.01    -0.00   0.01   0.01    -0.02   0.01   0.03
  18   1    -0.01   0.01  -0.02    -0.02   0.03   0.01    -0.03   0.06   0.01
  19   8     0.08   0.03  -0.13    -0.02   0.06  -0.20     0.17   0.08  -0.32
  20   1     0.04   0.01  -0.04     0.01  -0.02  -0.10     0.10  -0.03  -0.17
  21   1     0.02  -0.00  -0.02    -0.01   0.03  -0.04     0.02   0.02  -0.03
  22   8     0.15   0.14   0.01    -0.35   0.27  -0.10    -0.05  -0.21  -0.01
  23   1     0.03   0.04   0.03    -0.04   0.06  -0.01    -0.06  -0.05  -0.04
  24   1     0.03   0.00  -0.00    -0.08   0.05  -0.03     0.00  -0.03   0.01
  25   8     0.06   0.09   0.10     0.05  -0.15  -0.09    -0.02  -0.00  -0.03
  26   1     0.01   0.02   0.03     0.02  -0.09  -0.03    -0.01   0.01  -0.01
  27   1     0.01   0.02   0.01     0.02  -0.00  -0.01    -0.01  -0.01  -0.02
  28   8    -0.03  -0.06  -0.06    -0.05  -0.02   0.01     0.09  -0.15  -0.04
  29   1    -0.02   0.00  -0.01    -0.01  -0.01   0.00     0.02  -0.02  -0.01
  30   1    -0.02  -0.03  -0.01    -0.01  -0.01  -0.01     0.01  -0.06  -0.02
  31   8    -0.09   0.03  -0.11     0.14  -0.01   0.32     0.10   0.05  -0.11
  32   1    -0.05   0.00  -0.01     0.10   0.00   0.05    -0.01   0.00  -0.01
  33   1     0.00   0.00  -0.01    -0.01  -0.01   0.04     0.06   0.01  -0.00
  34   8     0.05  -0.02  -0.01    -0.08   0.03   0.06     0.03   0.00  -0.02
  35   1     0.00  -0.00   0.01    -0.01   0.00   0.00     0.01  -0.01  -0.01
  36   1     0.01  -0.00  -0.00    -0.02   0.01   0.02    -0.01  -0.00   0.03
  37   8     0.01  -0.07   0.03    -0.04   0.12  -0.04     0.02   0.03   0.09
  38   1    -0.02  -0.02   0.02     0.02   0.03  -0.03     0.01   0.01   0.01
  39   1    -0.00  -0.01   0.00    -0.01   0.02  -0.00    -0.00  -0.01   0.03
  40   8    -0.04   0.00   0.06    -0.02   0.03   0.06    -0.13   0.10   0.42
  41   1    -0.01  -0.00   0.01    -0.00   0.00   0.01    -0.01   0.00   0.08
  42   1    -0.01   0.03   0.02    -0.00   0.02   0.02    -0.07   0.04   0.09
  43   8     0.25  -0.33  -0.22     0.14  -0.13  -0.11    -0.10   0.07   0.06
  44   1     0.04  -0.13  -0.03     0.03  -0.04  -0.02    -0.02   0.03   0.01
  45   1     0.05  -0.03  -0.03     0.03  -0.02  -0.02    -0.02   0.00   0.01
  46   8     0.00   0.01   0.04    -0.02  -0.09  -0.18    -0.02   0.06   0.04
  47   1     0.00   0.00  -0.01    -0.00  -0.01  -0.00    -0.01   0.01   0.01
  48   1     0.03   0.04   0.04    -0.09  -0.14  -0.14     0.00   0.03   0.02
  49   8    -0.09  -0.44   0.20     0.02  -0.03   0.08    -0.03  -0.03  -0.07
  50   1    -0.01  -0.07   0.06     0.01  -0.02   0.02    -0.01  -0.01  -0.02
  51   1    -0.05  -0.16   0.00    -0.01  -0.01   0.02     0.00  -0.00  -0.01
  52   8    -0.02   0.04  -0.12     0.09  -0.05   0.18    -0.02   0.07  -0.04
  53   1     0.00   0.01  -0.04     0.01  -0.01   0.04     0.01   0.02  -0.01
  54   1    -0.01   0.02  -0.03     0.01  -0.01   0.04    -0.00   0.02  -0.01
  55   8    -0.18   0.06  -0.02     0.01  -0.03   0.04    -0.02  -0.01   0.01
  56   1    -0.05   0.02  -0.01    -0.02  -0.00  -0.00     0.00  -0.01   0.00
  57   1    -0.04  -0.01   0.00    -0.00  -0.01   0.03    -0.00  -0.01  -0.00
  58   8     0.02   0.13  -0.02    -0.34  -0.08   0.02     0.06  -0.00  -0.02
  59   1     0.01   0.03   0.00    -0.08  -0.02  -0.00     0.02  -0.00  -0.01
  60   1     0.01   0.04  -0.01    -0.09  -0.01  -0.02     0.01  -0.01  -0.00
  61   8    -0.10   0.10  -0.03    -0.01  -0.06   0.03     0.01  -0.03   0.00
  62   1    -0.00   0.01  -0.02     0.01  -0.02  -0.00    -0.01   0.00   0.00
  63   1    -0.03   0.02  -0.02    -0.01  -0.02   0.00     0.01  -0.00   0.01
  64   8     0.03  -0.06  -0.06     0.06   0.10  -0.04    -0.01  -0.06  -0.10
  65   1     0.01  -0.02  -0.02     0.01   0.03  -0.01     0.00  -0.03  -0.03
  66   1     0.01  -0.01  -0.01     0.00   0.03  -0.01    -0.01  -0.01  -0.01
  67   8     0.03  -0.06   0.03     0.08  -0.03   0.01     0.14  -0.05   0.13
  68   1     0.00  -0.01   0.01     0.02  -0.00   0.01     0.03  -0.01   0.03
  69   1     0.00  -0.02   0.01     0.01  -0.01   0.00     0.04  -0.01   0.04
  70   8     0.02   0.01   0.06     0.02  -0.02   0.04    -0.05  -0.01   0.01
  71   1    -0.01   0.00   0.01     0.00  -0.00   0.01     0.00  -0.00   0.01
  72   1     0.00   0.00   0.00    -0.00  -0.00   0.01    -0.01  -0.00   0.02
  73   8    -0.07   0.07   0.07    -0.06  -0.02   0.01     0.02  -0.01  -0.03
  74   1    -0.07   0.05   0.03    -0.05   0.00   0.01     0.02  -0.01  -0.01
  75   1     0.00   0.01  -0.00    -0.02  -0.00   0.00     0.01  -0.00  -0.00
                     31                     32                     33
                        a                      a                      a 
 Frequencies --   148.7380               151.0965               152.7657
 Red. masses --     9.0753                10.9838                13.2489
 Frc consts  --     0.0000                 0.0000                 0.0000
 IR Inten    --    18.4164                 5.6914                 3.9881
 Raman Activ --     0.0000                 0.0000                 0.0000
 Depolar     --     0.0000                 0.0000                 0.0000
 Atom AN      X      Y      Z        X      Y      Z        X      Y      Z
   1   8    -0.08   0.08  -0.04     0.13  -0.21   0.07    -0.04   0.04  -0.02
   2   1    -0.00   0.01  -0.01     0.02  -0.04   0.02    -0.00   0.00  -0.01
   3   1    -0.03  -0.00  -0.01     0.04  -0.03   0.01    -0.02   0.00  -0.00
   4   8    -0.22   0.06   0.17    -0.26  -0.02   0.15     0.06   0.02  -0.03
   5   1    -0.07   0.01  -0.00    -0.08  -0.00  -0.01     0.01   0.02  -0.01
   6   1    -0.00   0.01   0.06    -0.02  -0.00   0.05     0.00   0.00  -0.01
   7   8    -0.18  -0.21   0.01     0.14   0.06   0.02    -0.02   0.01  -0.04
   8   1    -0.02  -0.04   0.00     0.03   0.01  -0.01    -0.01   0.01  -0.01
   9   1    -0.06  -0.05  -0.02     0.04   0.01   0.00    -0.00   0.00  -0.01
  10   8     0.07   0.02  -0.23    -0.06  -0.05   0.12     0.01   0.00   0.02
  11   1     0.19   0.14  -0.42    -0.14  -0.09   0.27    -0.00   0.00   0.01
  12   1    -0.00  -0.01  -0.00     0.00   0.00   0.01     0.00   0.00   0.01
  13   8    -0.02   0.06  -0.09     0.02   0.04  -0.06     0.23  -0.14   0.09
  14   1    -0.00   0.01  -0.01     0.01   0.00   0.00     0.06  -0.05   0.06
  15   1    -0.01   0.01  -0.01     0.01   0.00  -0.00     0.06  -0.04   0.02
  16   8     0.02   0.02   0.11    -0.07   0.04  -0.17     0.07   0.17   0.01
  17   1    -0.01  -0.02   0.02     0.01   0.00  -0.03     0.01   0.02   0.01
  18   1     0.03  -0.01   0.02    -0.07   0.13  -0.07    -0.02   0.17  -0.06
  19   8     0.07  -0.11   0.15     0.01   0.07  -0.20    -0.05   0.03   0.13
  20   1     0.02  -0.03   0.03     0.02  -0.00  -0.09    -0.04   0.07   0.13
  21   1     0.02  -0.01   0.05     0.00   0.01  -0.06    -0.01  -0.01   0.02
  22   8     0.11  -0.01   0.05     0.05  -0.11  -0.02    -0.05   0.07  -0.12
  23   1     0.00   0.00   0.00     0.03  -0.03  -0.00    -0.01   0.02  -0.03
  24   1     0.03  -0.00   0.01     0.01  -0.02  -0.00    -0.03   0.02  -0.03
  25   8     0.06  -0.00   0.07     0.05   0.02   0.06    -0.04  -0.09  -0.00
  26   1    -0.00  -0.06   0.02     0.00  -0.03   0.02    -0.03  -0.10   0.00
  27   1     0.02   0.03   0.01     0.02   0.02   0.01    -0.01  -0.02  -0.00
  28   8    -0.05   0.02  -0.04    -0.05   0.05  -0.02     0.01   0.02   0.02
  29   1    -0.01   0.00  -0.01    -0.01   0.00  -0.01     0.01  -0.01   0.00
  30   1    -0.01   0.00  -0.02    -0.01   0.02  -0.01     0.01   0.02   0.00
  31   8     0.07  -0.04   0.07    -0.00  -0.01   0.12     0.06   0.02   0.03
  32   1     0.00  -0.01   0.02     0.01   0.01   0.02     0.02   0.00   0.01
  33   1     0.02  -0.00   0.02    -0.02  -0.01   0.01     0.01   0.01   0.00
  34   8     0.04  -0.02  -0.02     0.04  -0.01  -0.07    -0.17   0.09  -0.08
  35   1     0.00  -0.00   0.01    -0.00  -0.01  -0.01    -0.06   0.02  -0.00
  36   1     0.01  -0.01  -0.02    -0.00  -0.00   0.01    -0.02   0.02  -0.03
  37   8    -0.03   0.04   0.18     0.02  -0.08  -0.17     0.01  -0.01  -0.01
  38   1    -0.02   0.01   0.01    -0.03  -0.02   0.00     0.01  -0.00  -0.00
  39   1    -0.02  -0.03   0.07     0.02   0.02  -0.07     0.01  -0.00  -0.00
  40   8     0.02  -0.05  -0.16    -0.03   0.01   0.35     0.13   0.03  -0.04
  41   1    -0.00   0.01  -0.03     0.01  -0.04   0.06     0.03  -0.02  -0.01
  42   1     0.01  -0.01  -0.04    -0.02   0.00   0.08     0.03   0.01  -0.01
  43   8     0.08   0.04  -0.06     0.00   0.10  -0.00     0.09  -0.03  -0.05
  44   1     0.01  -0.00  -0.02    -0.00   0.02  -0.00     0.01  -0.02  -0.01
  45   1     0.03   0.03  -0.00     0.01   0.03   0.01     0.02   0.01  -0.01
  46   8    -0.04  -0.16   0.03    -0.04  -0.18  -0.05     0.04   0.04  -0.00
  47   1     0.01  -0.00   0.01     0.01  -0.00  -0.01     0.01   0.01  -0.05
  48   1    -0.13  -0.35  -0.18    -0.10  -0.30  -0.17     0.07   0.07   0.06
  49   8    -0.03   0.04  -0.03    -0.00   0.01  -0.02    -0.07   0.06  -0.07
  50   1    -0.01   0.01  -0.01    -0.00   0.00  -0.01    -0.03  -0.00  -0.03
  51   1    -0.00   0.02   0.00     0.01   0.01  -0.00     0.00   0.04   0.01
  52   8     0.07   0.03  -0.07     0.08   0.10  -0.12    -0.07   0.10  -0.43
  53   1     0.04   0.01   0.00     0.02   0.03  -0.03    -0.01   0.02  -0.09
  54   1    -0.00  -0.00  -0.03     0.00   0.02  -0.04    -0.03   0.02  -0.11
  55   8    -0.01  -0.04   0.03    -0.02  -0.04   0.08    -0.09  -0.18   0.23
  56   1     0.00  -0.01   0.01     0.00  -0.00   0.03    -0.02  -0.02   0.08
  57   1    -0.00  -0.00   0.00    -0.00  -0.01   0.01    -0.02  -0.03   0.04
  58   8     0.04   0.04  -0.02     0.07   0.03  -0.01     0.07   0.09  -0.08
  59   1     0.01   0.01   0.00     0.02   0.01  -0.00     0.01   0.02  -0.01
  60   1     0.01   0.01   0.01     0.02  -0.00   0.00     0.02   0.02  -0.01
  61   8     0.02  -0.05  -0.01     0.02  -0.05  -0.02     0.10  -0.21  -0.01
  62   1     0.01  -0.01  -0.01     0.00  -0.00  -0.01     0.03  -0.04  -0.02
  63   1     0.00  -0.02   0.01     0.01  -0.02   0.01     0.01  -0.06   0.03
  64   8    -0.01   0.25  -0.03    -0.02   0.24   0.00    -0.02  -0.11   0.01
  65   1    -0.00   0.05  -0.00    -0.00   0.06   0.00    -0.01  -0.02   0.00
  66   1    -0.03   0.09   0.01    -0.03   0.07   0.01    -0.00  -0.03   0.00
  67   8     0.06  -0.01  -0.05    -0.00  -0.01  -0.08     0.02   0.02   0.01
  68   1     0.01  -0.00  -0.01    -0.00  -0.00  -0.02     0.03   0.00   0.01
  69   1     0.01   0.00  -0.02    -0.00   0.00  -0.02     0.00   0.01  -0.00
  70   8    -0.03   0.03   0.04    -0.08   0.02   0.08    -0.16   0.05   0.33
  71   1    -0.01   0.01   0.01    -0.01  -0.01   0.03    -0.03  -0.01   0.10
  72   1    -0.01   0.01   0.02    -0.01  -0.00   0.01    -0.02   0.00   0.07
  73   8    -0.02   0.02   0.03     0.03   0.02   0.00    -0.11  -0.11   0.06
  74   1     0.00   0.01   0.01     0.02   0.01  -0.00     0.00  -0.02   0.02
  75   1    -0.00   0.00   0.00     0.01   0.01  -0.01    -0.05  -0.02   0.00
                     34                     35                     36
                        a                      a                      a 
 Frequencies --   156.4045               159.3455               166.0087
 Red. masses --    13.9235                10.7911                13.8011
 Frc consts  --     0.0000                 0.0000                 0.0000
 IR Inten    --     5.5452                 5.5216                 4.4718
 Raman Activ --     0.0000                 0.0000                 0.0000
 Depolar     --     0.0000                 0.0000                 0.0000
 Atom AN      X      Y      Z        X      Y      Z        X      Y      Z
   1   8     0.08  -0.06   0.01     0.21  -0.16   0.06     0.07   0.12   0.08
   2   1     0.02  -0.01   0.00     0.05  -0.04   0.02     0.02   0.02   0.02
   3   1     0.02  -0.02   0.01     0.05  -0.06   0.01     0.01   0.01   0.01
   4   8    -0.09   0.01   0.02     0.12   0.01  -0.10    -0.16   0.03  -0.04
   5   1    -0.02  -0.01   0.01     0.04   0.01   0.00    -0.04   0.02  -0.01
   6   1    -0.01  -0.00   0.01    -0.00  -0.00  -0.03    -0.04   0.00  -0.01
   7   8    -0.02  -0.08  -0.02    -0.04  -0.23   0.04    -0.01  -0.09   0.01
   8   1    -0.01  -0.02   0.00    -0.00  -0.06   0.02     0.01  -0.02  -0.00
   9   1    -0.01  -0.02  -0.00    -0.02  -0.05   0.01    -0.01  -0.02  -0.00
  10   8     0.00  -0.01  -0.06    -0.02  -0.02  -0.09     0.02  -0.01  -0.02
  11   1     0.05   0.02  -0.10     0.12   0.08  -0.27     0.03   0.03  -0.08
  12   1    -0.02  -0.02  -0.00    -0.02  -0.02   0.00     0.00  -0.01   0.03
  13   8     0.53  -0.08   0.11    -0.11   0.19  -0.23     0.02   0.06  -0.14
  14   1     0.12  -0.04  -0.00    -0.03   0.05  -0.04     0.01   0.01  -0.02
  15   1     0.15  -0.01  -0.01    -0.03   0.04  -0.03     0.00   0.01  -0.02
  16   8    -0.00   0.07  -0.03    -0.16   0.04  -0.14     0.03  -0.02   0.02
  17   1    -0.00   0.00  -0.00    -0.02  -0.03  -0.02    -0.00  -0.01   0.00
  18   1    -0.02   0.09  -0.04    -0.13   0.27  -0.13     0.03  -0.05   0.01
  19   8     0.03  -0.03  -0.01     0.07   0.03  -0.09     0.02   0.06  -0.03
  20   1     0.01  -0.02  -0.02     0.02   0.01  -0.02     0.00   0.03   0.01
[...]
  70   8    -0.00  -0.00   0.00    -0.01  -0.01   0.00     0.00  -0.00  -0.00
  71   1     0.00  -0.00  -0.00     0.00  -0.00  -0.01    -0.00   0.00   0.01
  72   1     0.00   0.00   0.00     0.02   0.05   0.00    -0.00  -0.00  -0.00
  73   8     0.00   0.00  -0.00     0.00   0.00   0.00    -0.00   0.00   0.00
  74   1    -0.00   0.00   0.00     0.00   0.00  -0.00     0.00  -0.00   0.00
  75   1    -0.00  -0.00   0.00    -0.00  -0.01  -0.00     0.00  -0.00  -0.00
                    211                    212                    213
                        a                      a                      a 
 Frequencies --  3571.1998              3597.1025              3662.8205
 Red. masses --     1.8043                 1.8254                 1.8347
 Frc consts  --     0.0000                 0.0000                 0.0000
 IR Inten    --    72.0319                62.4572                14.3300
 Raman Activ --     0.0000                 0.0000                 0.0000
 Depolar     --     0.0000                 0.0000                 0.0000
 Atom AN      X      Y      Z        X      Y      Z        X      Y      Z
   1   8    -0.00  -0.00  -0.00    -0.00   0.00  -0.00     0.00   0.00  -0.00
   2   1     0.00   0.00  -0.00    -0.00  -0.00   0.00    -0.00  -0.00   0.00
   3   1     0.00  -0.00   0.00     0.00  -0.00   0.00    -0.00   0.00  -0.00
   4   8    -0.00   0.00   0.00    -0.00  -0.00  -0.00     0.00   0.00  -0.00
   5   1     0.00  -0.00  -0.00     0.00   0.00   0.00    -0.00  -0.00   0.00
   6   1     0.00  -0.00  -0.00    -0.00   0.00   0.00    -0.00   0.00   0.00
   7   8    -0.00   0.00  -0.00    -0.00   0.00  -0.00     0.00   0.00   0.00
   8   1     0.00  -0.00   0.00     0.00  -0.00   0.00    -0.00   0.00  -0.00
   9   1     0.00   0.00   0.00    -0.00  -0.00   0.00    -0.00  -0.00   0.00
  10   8    -0.00   0.00  -0.00    -0.00  -0.00  -0.00    -0.00  -0.00  -0.00
  11   1     0.00   0.00   0.00     0.00   0.00   0.00     0.00   0.00   0.00
  12   1     0.00  -0.00   0.00     0.00  -0.00   0.00    -0.00  -0.00  -0.00
  13   8    -0.00  -0.00  -0.00    -0.05  -0.21  -0.09     0.00  -0.00  -0.00
  14   1    -0.00  -0.00  -0.00     0.03  -0.04  -0.02    -0.00   0.00  -0.00
  15   1     0.00   0.00   0.00     0.16   0.89   0.35     0.00   0.00   0.00
  16   8    -0.00   0.00  -0.00    -0.00   0.00  -0.00    -0.00  -0.00  -0.00
  17   1    -0.00  -0.00   0.00    -0.00  -0.00   0.00    -0.00  -0.00  -0.00
  18   1     0.00   0.00   0.00     0.00   0.00   0.00     0.00   0.00   0.00
  19   8    -0.00  -0.00  -0.00    -0.00  -0.00   0.00     0.00  -0.00   0.00
  20   1     0.00  -0.00   0.00    -0.00   0.00  -0.00    -0.00   0.00  -0.00
  21   1     0.00   0.00   0.00     0.00  -0.00   0.00    -0.00  -0.00   0.00
  22   8    -0.00  -0.01  -0.00    -0.00   0.00  -0.00     0.00   0.00  -0.00
  23   1     0.01   0.03  -0.01     0.00  -0.00   0.00    -0.00  -0.00   0.00
  24   1    -0.01  -0.00   0.03     0.00   0.00   0.00    -0.00  -0.00   0.00
  25   8     0.00   0.00  -0.00    -0.00  -0.00   0.00     0.00  -0.00   0.00
  26   1    -0.00  -0.00  -0.00     0.00   0.00   0.00    -0.00   0.00  -0.00
  27   1    -0.00  -0.00   0.00     0.00   0.00  -0.00    -0.00   0.00   0.00
  28   8     0.00   0.00  -0.00    -0.00  -0.00   0.00     0.00  -0.00   0.00
  29   1    -0.00  -0.00   0.00     0.01   0.01  -0.01    -0.00  -0.00   0.00
  30   1     0.00  -0.00   0.00    -0.00   0.00   0.00    -0.00   0.00  -0.00
  31   8     0.00   0.00  -0.00     0.00   0.00  -0.00     0.00   0.00   0.00
  32   1     0.00   0.00   0.00     0.00   0.00   0.00    -0.00  -0.00  -0.00
  33   1    -0.00  -0.00   0.00    -0.00  -0.00   0.00    -0.00  -0.00   0.00
  34   8     0.00   0.00  -0.00    -0.00   0.00  -0.00     0.00   0.00   0.00
  35   1    -0.00   0.00  -0.00     0.00  -0.00   0.00    -0.00   0.00  -0.00
  36   1    -0.00  -0.00   0.00     0.00  -0.00  -0.00    -0.00  -0.00   0.00
  37   8    -0.00  -0.00  -0.00    -0.00  -0.00  -0.00     0.00   0.00   0.00
  38   1     0.00  -0.00   0.00    -0.00   0.00   0.00    -0.00  -0.00   0.00
  39   1     0.00   0.00   0.00     0.00   0.00   0.00    -0.00  -0.00  -0.00
  40   8    -0.00   0.00  -0.00    -0.00   0.00  -0.00     0.00   0.00   0.00
  41   1     0.00  -0.00   0.00     0.00  -0.00   0.00    -0.00   0.00  -0.00
  42   1    -0.00   0.00   0.00    -0.00  -0.00   0.00    -0.00  -0.00   0.00
  43   8     0.02  -0.01  -0.01     0.00  -0.00   0.00     0.00   0.00  -0.00
  44   1    -0.06   0.04   0.02    -0.01   0.00   0.00    -0.00  -0.00   0.00
  45   1    -0.00  -0.00   0.00     0.00   0.00  -0.00    -0.00  -0.00   0.00
  46   8    -0.00   0.00  -0.00     0.00  -0.00   0.00    -0.00  -0.00   0.00
  47   1     0.00  -0.00  -0.00    -0.00   0.00   0.00    -0.00   0.00   0.00
  48   1    -0.00  -0.00   0.00     0.00   0.00  -0.00     0.00   0.00  -0.00
  49   8    -0.05   0.17  -0.15     0.00  -0.00   0.00     0.00  -0.00  -0.00
  50   1     0.05   0.02  -0.07    -0.00   0.00   0.00    -0.01  -0.00   0.02
  51   1     0.15  -0.69   0.66    -0.00   0.00  -0.00    -0.00   0.01  -0.01
  52   8    -0.00  -0.00  -0.00     0.00  -0.00  -0.00     0.00   0.00  -0.00
  53   1     0.00   0.00   0.00    -0.00   0.00   0.00    -0.00  -0.00  -0.00
  54   1     0.00  -0.00   0.00    -0.00  -0.00   0.00    -0.00  -0.00   0.00
  55   8     0.01   0.01   0.00    -0.00  -0.00  -0.00    -0.00  -0.00  -0.00
  56   1    -0.00  -0.00   0.01    -0.00  -0.00   0.00    -0.00  -0.00   0.00
  57   1    -0.05  -0.02  -0.02     0.00   0.00   0.00     0.00   0.00   0.00
  58   8    -0.00   0.00   0.00     0.00  -0.00  -0.00    -0.00  -0.00  -0.00
  59   1    -0.00  -0.00  -0.00     0.00   0.00   0.00     0.00   0.00   0.00
  60   1     0.02  -0.01  -0.00    -0.00   0.00   0.00     0.00  -0.00   0.00
  61   8     0.00  -0.00   0.00     0.01  -0.00   0.00     0.00  -0.00   0.00
  62   1    -0.00  -0.00  -0.00    -0.01  -0.01  -0.01    -0.00   0.00  -0.00
  63   1    -0.00   0.00   0.00    -0.01   0.03   0.00    -0.00   0.00   0.00
  64   8     0.00   0.00  -0.00    -0.00  -0.00   0.00     0.00   0.00  -0.00
  65   1     0.00  -0.00   0.00     0.00   0.00  -0.00    -0.00   0.00  -0.00
  66   1    -0.00  -0.00   0.00     0.00   0.00  -0.00    -0.00  -0.00   0.00
  67   8     0.00   0.00  -0.00     0.00   0.00  -0.01     0.00  -0.00   0.00
  68   1    -0.00  -0.00   0.00    -0.01  -0.02   0.03     0.00   0.00  -0.00
  69   1    -0.00  -0.00   0.00    -0.00   0.01   0.01    -0.00   0.00   0.00
  70   8     0.00   0.00   0.00    -0.00   0.00  -0.00     0.00  -0.00   0.00
  71   1     0.00  -0.00  -0.00     0.00   0.00   0.00    -0.00  -0.00  -0.00
  72   1    -0.00  -0.00  -0.00    -0.00  -0.00   0.00    -0.00   0.00  -0.00
  73   8    -0.00   0.00   0.00    -0.00  -0.00  -0.00     0.02  -0.09   0.22
  74   1    -0.00   0.01  -0.01     0.00  -0.00   0.00    -0.06   0.39  -0.89
  75   1    -0.00  -0.01  -0.00     0.00   0.00   0.00    -0.01  -0.03   0.02
                    214                    215                    216
                        a                      a                      a 
 Frequencies --  3677.2412              3678.0498              3687.9522
 Red. masses --     1.8383                 1.8412                 1.8409
 Frc consts  --     0.0000                 0.0000                 0.0000
 IR Inten    --    20.7348                 8.4366                10.1239
 Raman Activ --     0.0000                 0.0000                 0.0000
 Depolar     --     0.0000                 0.0000                 0.0000
 Atom AN      X      Y      Z        X      Y      Z        X      Y      Z
   1   8    -0.00  -0.00  -0.00     0.00  -0.00   0.00     0.00   0.00  -0.00
   2   1     0.00   0.00  -0.00     0.00   0.00  -0.00    -0.00  -0.00   0.01
   3   1     0.00  -0.00   0.00    -0.00   0.00  -0.00     0.00  -0.00   0.00
   4   8    -0.00  -0.00  -0.00     0.00   0.00   0.00    -0.00  -0.00  -0.00
   5   1     0.00   0.00  -0.00    -0.00  -0.00   0.00     0.00   0.00  -0.00
   6   1     0.00   0.00   0.00     0.00  -0.00  -0.00    -0.00   0.00   0.00
   7   8    -0.00   0.00  -0.00     0.00  -0.00   0.00     0.00   0.00  -0.00
   8   1     0.00  -0.00   0.00    -0.00   0.00  -0.00    -0.00   0.00   0.00
   9   1     0.00   0.00   0.00     0.00   0.00  -0.00    -0.01  -0.00   0.00
  10   8     0.00   0.00   0.00     0.00   0.00   0.00    -0.00  -0.01  -0.00
  11   1    -0.00  -0.00  -0.00    -0.00  -0.00  -0.00     0.02   0.03   0.02
  12   1     0.00  -0.00   0.00    -0.00   0.00   0.00    -0.00  -0.00  -0.00
  13   8    -0.00  -0.00   0.00     0.00  -0.00  -0.00    -0.00  -0.00   0.00
  14   1     0.00  -0.00  -0.00    -0.00   0.00   0.00     0.00  -0.00  -0.00
  15   1     0.00   0.00  -0.00    -0.00   0.00   0.00     0.00   0.00   0.00
  16   8     0.00   0.00   0.00     0.00   0.00   0.00     0.15   0.10   0.13
  17   1     0.00   0.00   0.00    -0.00   0.00   0.00     0.01   0.01   0.03
  18   1    -0.00  -0.00  -0.00    -0.00  -0.00  -0.00    -0.62  -0.43  -0.56
  19   8     0.00  -0.00   0.00    -0.00   0.00  -0.00     0.00  -0.05   0.03
  20   1    -0.00   0.00  -0.00     0.00  -0.01   0.00    -0.02   0.19  -0.12
  21   1     0.00   0.00   0.00    -0.00   0.00  -0.00     0.00  -0.00   0.00
  22   8     0.00  -0.00  -0.00     0.00  -0.00  -0.00    -0.00  -0.00   0.00
  23   1     0.00   0.00  -0.00     0.00   0.00  -0.00     0.00   0.00  -0.00
  24   1    -0.00   0.00   0.00    -0.00   0.00   0.00    -0.00  -0.00  -0.00
  25   8     0.09  -0.00   0.20     0.04  -0.00   0.09    -0.00   0.00  -0.00
  26   1    -0.38   0.02  -0.80    -0.17   0.01  -0.35     0.00  -0.00   0.00
  27   1     0.03  -0.00   0.02     0.01  -0.00   0.01    -0.00   0.00  -0.00
  28   8     0.08  -0.04   0.02    -0.19   0.09  -0.05     0.00  -0.00   0.00
  29   1     0.01  -0.00  -0.00    -0.03   0.00   0.00     0.00  -0.00   0.00
  30   1    -0.34   0.16  -0.08     0.78  -0.37   0.19    -0.00   0.00  -0.00
  31   8     0.00   0.00  -0.00    -0.00  -0.00  -0.00     0.00   0.00  -0.00
  32   1     0.00  -0.00   0.00     0.00   0.00   0.00    -0.00   0.00   0.00
  33   1    -0.00  -0.00  -0.00     0.00   0.00   0.00    -0.00  -0.00   0.00
  34   8    -0.00  -0.00  -0.00     0.00  -0.00   0.00    -0.00   0.00  -0.00
  35   1     0.00  -0.00   0.00    -0.00   0.00  -0.00     0.00  -0.00   0.00
  36   1     0.00   0.00   0.00    -0.00   0.00   0.00    -0.00   0.00   0.00
  37   8    -0.00   0.00  -0.00     0.00  -0.00  -0.00    -0.00   0.00   0.00
  38   1     0.00  -0.00   0.00    -0.00   0.00  -0.00    -0.00   0.00   0.00
  39   1     0.00   0.00   0.00     0.00   0.00   0.00    -0.00  -0.00  -0.00
  40   8    -0.00  -0.00  -0.00    -0.00   0.00  -0.00    -0.01   0.00  -0.00
  41   1     0.00  -0.00   0.00     0.00   0.00   0.00     0.02  -0.00   0.02
  42   1    -0.00   0.00   0.00    -0.00   0.00   0.00     0.00   0.00  -0.01
  43   8     0.00   0.00  -0.01     0.00   0.00  -0.00    -0.00   0.00   0.00
  44   1     0.00  -0.00  -0.00     0.00  -0.00  -0.00     0.00  -0.00  -0.00
  45   1    -0.01  -0.01   0.02    -0.00  -0.01   0.01     0.00   0.00  -0.00
  46   8    -0.00  -0.00   0.00     0.00   0.00  -0.00    -0.00  -0.00   0.00
  47   1     0.00   0.00  -0.00    -0.00   0.00  -0.00    -0.00   0.00   0.00
  48   1     0.00   0.00  -0.01    -0.00  -0.00   0.00     0.01   0.01  -0.01
  49   8     0.00   0.00  -0.00     0.00  -0.00  -0.00    -0.00   0.00  -0.00
  50   1    -0.00   0.00   0.00    -0.00   0.00   0.00    -0.00  -0.00   0.00
  51   1    -0.00  -0.00   0.00    -0.00   0.00  -0.00     0.00  -0.00   0.00
  52   8     0.00  -0.00   0.00     0.00  -0.00  -0.00    -0.00   0.00   0.00
  53   1    -0.00  -0.00  -0.00    -0.00   0.00   0.00     0.00  -0.01  -0.00
  54   1     0.00   0.00   0.00    -0.00   0.00   0.00     0.00   0.00  -0.00
  55   8    -0.00   0.00  -0.00     0.00   0.00  -0.00    -0.00  -0.00   0.00
  56   1    -0.00  -0.00   0.00    -0.00  -0.00   0.00     0.00   0.00  -0.00
  57   1     0.00   0.00   0.00     0.00   0.00   0.00     0.00   0.00   0.00
  58   8    -0.00  -0.00  -0.00    -0.00  -0.00  -0.00    -0.00  -0.00  -0.00
  59   1     0.00   0.02   0.01     0.00   0.01   0.01     0.00   0.00   0.00
  60   1    -0.00   0.00   0.00    -0.00   0.00   0.00     0.00  -0.00  -0.00
  61   8    -0.00  -0.00   0.00     0.00   0.00  -0.00    -0.00  -0.00  -0.00
  62   1     0.00   0.00   0.00    -0.00   0.00   0.00     0.00   0.00   0.00
  63   1     0.00  -0.00  -0.00     0.00  -0.00  -0.00     0.00   0.00   0.00
  64   8    -0.00  -0.00  -0.00     0.00   0.00   0.00     0.00   0.00  -0.00
  65   1     0.00   0.00   0.01    -0.01  -0.00  -0.02     0.00   0.00   0.00
  66   1     0.00   0.00  -0.00     0.00   0.00  -0.00    -0.00  -0.00   0.00
  67   8    -0.00   0.00   0.00     0.00  -0.00  -0.00     0.00  -0.00  -0.00
  68   1     0.00   0.00  -0.00    -0.00  -0.00   0.00    -0.00   0.00  -0.00
  69   1     0.00  -0.01  -0.01    -0.00   0.02   0.01    -0.00   0.00   0.00
  70   8    -0.00  -0.00  -0.00    -0.00  -0.00   0.00    -0.00  -0.01  -0.00
  71   1     0.00   0.00   0.00    -0.00  -0.00  -0.00     0.00  -0.00  -0.00
  72   1     0.00   0.00   0.00     0.00   0.00   0.00     0.01   0.03   0.00
  73   8     0.00   0.00  -0.00     0.00   0.00  -0.00     0.00   0.00   0.00
  74   1     0.00  -0.00   0.00    -0.00  -0.00   0.00    -0.00   0.00  -0.00
  75   1    -0.00   0.00  -0.00    -0.00   0.00   0.00    -0.00  -0.00   0.00
                    217                    218                    219
                        a                      a                      a 
 Frequencies --  3688.1426              3688.7725              3690.5895
 Red. masses --     1.8415                 1.8402                 1.8418
 Frc consts  --     0.0000                 0.0000                 0.0000
 IR Inten    --     6.5678                12.9391                 8.8539
 Raman Activ --     0.0000                 0.0000                 0.0000
 Depolar     --     0.0000                 0.0000                 0.0000
 Atom AN      X      Y      Z        X      Y      Z        X      Y      Z
   1   8    -0.00  -0.00   0.00    -0.00  -0.00   0.00    -0.00   0.00  -0.00
   2   1     0.01   0.01  -0.02     0.00   0.00  -0.01    -0.00  -0.00   0.00
   3   1     0.00  -0.00   0.00     0.00  -0.00   0.00     0.00  -0.00   0.00
   4   8    -0.00  -0.00  -0.00    -0.00   0.00   0.01    -0.00  -0.00  -0.00
   5   1     0.00   0.00  -0.00    -0.01  -0.00   0.00     0.00   0.00  -0.00
   6   1    -0.00   0.00   0.01     0.01  -0.01  -0.03    -0.00   0.00   0.00
   7   8     0.00   0.00  -0.00     0.00   0.00  -0.00     0.00   0.00   0.00
   8   1    -0.00   0.00   0.00    -0.00   0.00  -0.00    -0.00   0.00  -0.00
   9   1    -0.00  -0.00   0.00    -0.00  -0.00   0.00    -0.02  -0.02   0.00
  10   8    -0.01  -0.01  -0.01    -0.01  -0.01  -0.01    -0.13  -0.16  -0.12
  11   1     0.04   0.05   0.04     0.03   0.04   0.03     0.51   0.66   0.49
  12   1    -0.00  -0.00  -0.00    -0.00  -0.00  -0.00    -0.00  -0.03  -0.01
  13   8    -0.00  -0.00  -0.00    -0.00  -0.00  -0.00     0.00   0.00   0.00
  14   1     0.00  -0.00  -0.00     0.00  -0.00  -0.00    -0.00   0.00   0.00
  15   1     0.00   0.00   0.00     0.00   0.00   0.00    -0.00  -0.00  -0.00
  16   8     0.03   0.02   0.03     0.01   0.01   0.01    -0.01  -0.01  -0.01
  17   1     0.00   0.00   0.01     0.00   0.00   0.00     0.00  -0.00  -0.01
  18   1    -0.14  -0.10  -0.13    -0.05  -0.03  -0.04     0.04   0.03   0.03
  19   8    -0.02   0.19  -0.12    -0.01   0.05  -0.03     0.00  -0.02   0.01
  20   1     0.09  -0.77   0.48     0.02  -0.19   0.12    -0.01   0.06  -0.04
  21   1    -0.02   0.02  -0.02    -0.00   0.00  -0.00     0.00  -0.00   0.00
  22   8     0.00   0.00   0.00    -0.00  -0.00   0.00    -0.00   0.00  -0.00
  23   1    -0.00  -0.00  -0.00    -0.00  -0.00  -0.00     0.00  -0.00   0.00
  24   1     0.00   0.00  -0.00     0.00   0.00  -0.00     0.00  -0.00   0.00
  25   8    -0.00   0.00  -0.00     0.00  -0.00   0.00     0.00  -0.00   0.00
  26   1     0.00  -0.00   0.00    -0.00   0.00  -0.01    -0.00   0.00  -0.00
  27   1     0.00   0.00  -0.00    -0.00  -0.00  -0.00     0.00   0.00   0.00
  28   8     0.00  -0.00   0.00     0.00  -0.00   0.00    -0.00   0.00  -0.00
  29   1     0.00   0.00  -0.00     0.00   0.00  -0.00    -0.00  -0.00   0.00
  30   1    -0.00   0.00  -0.00    -0.01   0.00  -0.00     0.00  -0.00   0.00
  31   8     0.00   0.00   0.00    -0.00  -0.00  -0.00    -0.00   0.00  -0.00
  32   1    -0.00  -0.00   0.00     0.00   0.00   0.00     0.00   0.00   0.00
  33   1    -0.00  -0.00  -0.00     0.00   0.00  -0.00     0.00   0.00  -0.00
  34   8    -0.00  -0.00  -0.00     0.00  -0.00   0.00     0.00   0.00   0.00
  35   1    -0.00  -0.00   0.00    -0.00  -0.00  -0.00     0.00   0.00  -0.00
  36   1    -0.00   0.00  -0.00    -0.00   0.00  -0.00     0.00  -0.00  -0.00
  37   8     0.00   0.00   0.00     0.00  -0.00   0.00     0.00   0.00   0.01
  38   1     0.00  -0.00   0.00     0.00   0.00  -0.00    -0.00   0.00   0.00
  39   1    -0.00  -0.00  -0.00    -0.00  -0.00  -0.00    -0.01  -0.01  -0.03
  40   8    -0.00   0.00  -0.00    -0.00   0.00  -0.00     0.00  -0.00   0.00
  41   1     0.00  -0.00   0.00     0.00  -0.00   0.00    -0.00   0.00  -0.00
  42   1     0.00   0.00  -0.00     0.00   0.00  -0.00     0.00  -0.00  -0.00
  43   8    -0.00  -0.00   0.00    -0.00   0.00   0.00     0.00  -0.00  -0.00
  44   1     0.00  -0.00  -0.00     0.00  -0.00  -0.00    -0.00   0.00   0.00
  45   1     0.00   0.00  -0.00     0.00   0.00  -0.00    -0.00  -0.00   0.00
  46   8    -0.03  -0.02   0.05     0.11   0.07  -0.19    -0.00  -0.00   0.01
  47   1    -0.01  -0.00   0.00     0.03  -0.00  -0.02    -0.00   0.00   0.00
  48   1     0.12   0.07  -0.20    -0.45  -0.29   0.77     0.02   0.01  -0.03
  49   8     0.00  -0.00   0.00    -0.00  -0.00   0.00     0.00  -0.00   0.00
  50   1     0.00   0.00  -0.00     0.00  -0.00  -0.00    -0.00   0.00   0.00
  51   1    -0.00   0.00  -0.00    -0.00   0.00  -0.00     0.00   0.00  -0.00
  52   8     0.00  -0.01  -0.00    -0.00  -0.00  -0.00    -0.00   0.00   0.00
  53   1    -0.00   0.03   0.00     0.00   0.00  -0.00     0.00  -0.00  -0.00
  54   1    -0.00  -0.00   0.00    -0.00  -0.00   0.00     0.00   0.00  -0.00
  55   8    -0.00  -0.00  -0.00     0.00   0.00  -0.00    -0.00  -0.00   0.00
  56   1    -0.00  -0.00   0.00    -0.00  -0.00   0.00     0.00   0.00  -0.00
  57   1     0.00   0.00   0.00     0.00   0.00  -0.00    -0.00  -0.00  -0.00
  58   8     0.00  -0.00  -0.00    -0.00   0.00   0.00    -0.00  -0.00  -0.00
  59   1     0.00   0.00   0.00    -0.00  -0.00  -0.00    -0.00   0.00   0.00
  60   1    -0.00  -0.00   0.00     0.00  -0.00  -0.00     0.00  -0.00  -0.00
  61   8    -0.00  -0.00  -0.00    -0.00   0.00   0.00     0.00   0.00   0.00
  62   1     0.00   0.00   0.00    -0.00  -0.00  -0.00    -0.00  -0.00  -0.00
  63   1    -0.00   0.00   0.00     0.00  -0.00   0.00    -0.00   0.00   0.00
  64   8     0.00   0.00  -0.00    -0.00  -0.00   0.00     0.00   0.00  -0.00
  65   1    -0.00   0.00  -0.00     0.00  -0.00   0.00    -0.00   0.00  -0.00
  66   1    -0.00  -0.01   0.00     0.01   0.02  -0.01    -0.00  -0.00   0.00
  67   8     0.00  -0.00   0.00    -0.00   0.00   0.00     0.00   0.00  -0.00
  68   1     0.00   0.00  -0.00     0.00   0.00  -0.00    -0.00  -0.00   0.00
  69   1     0.00   0.00  -0.00     0.00  -0.00  -0.00    -0.00  -0.00  -0.00
  70   8    -0.00  -0.00  -0.00    -0.00  -0.00  -0.00     0.00   0.00   0.00
  71   1     0.00  -0.00  -0.00     0.00  -0.00  -0.00     0.00   0.00  -0.00
  72   1     0.00   0.01   0.00     0.00   0.00   0.00    -0.00  -0.00  -0.00
  73   8     0.00  -0.00   0.00     0.00  -0.00   0.00    -0.00   0.00  -0.00
  74   1    -0.00   0.00  -0.00    -0.00   0.00  -0.00     0.00  -0.00   0.00
  75   1    -0.00  -0.00   0.00    -0.00  -0.00   0.00     0.00   0.00  -0.00
