      -----------------------------------------------------------      
     |                   =====================                   |     
     |                           x T B                           |     
     |                   =====================                   |     
     |                         S. Grimme                         |     
     |          Mulliken Center for Theoretical Chemistry        |     
     |                    University of Bonn                     |     
      -----------------------------------------------------------      

   * xtb version 6.5.1 (579679a) compiled by 'ehlert@majestix' on 2022-07-11

   xtb is free software: you can redistribute it and/or modify it under
   the terms of the GNU Lesser General Public License as published by
   the Free Software Foundation, either version 3 of the License, or
   (at your option) any later version.
   
   xtb is distributed in the hope that it will be useful,
   but WITHOUT ANY WARRANTY; without even the implied warranty of
   MERCHANTABILITY or FITNESS FOR A PARTICULAR PURPOSE.  See the
   GNU Lesser General Public License for more details.
   
   Cite this work as:
   * C. Bannwarth, E. Caldeweyher, S. Ehlert, A. Hansen, P. Pracht,
     J. Seibert, S. Spicher, S. Grimme, WIREs Comput. Mol. Sci., 2020, 11,
     e01493. DOI: 10.1002/wcms.1493
   
   for GFN2-xTB:
   * C. Bannwarth, S. Ehlert and S. Grimme., J. Chem. Theory Comput., 2019,
     15, 1652-1671. DOI: 10.1021/acs.jctc.8b01176
   for GFN1-xTB:
   * S. Grimme, C. Bannwarth, P. Shushkov, J. Chem. Theory Comput., 2017,
     13, 1989-2009. DOI: 10.1021/acs.jctc.7b00118
   for GFN0-xTB:
   * P. Pracht, E. Caldeweyher, S. Ehlert, S. Grimme, ChemRxiv, 2019, preprint.
     DOI: 10.26434/chemrxiv.8326202.v1
   for GFN-FF:
   * S. Spicher and S. Grimme, Angew. Chem. Int. Ed., 2020, 59, 15665-15673.
     DOI: 10.1002/anie.202004239
   
   for ALPB and GBSA implicit solvation:
   * S. Ehlert, M. Stahn, S. Spicher, S. Grimme, J. Chem. Theory Comput.,
     2021, 17, 4250-4261. DOI: 10.1021/acs.jctc.1c00471
   
   for DFT-D4:
   * E. Caldeweyher, C. Bannwarth and S. Grimme, J. Chem. Phys., 2017,
     147, 034112. DOI: 10.1063/1.4993215
   * E. Caldeweyher, S. Ehlert, A. Hansen, H. Neugebauer, S. Spicher,
     C. Bannwarth and S. Grimme, J. Chem. Phys., 2019, 150, 154122.
     DOI: 10.1063/1.5090222
   * E. Caldeweyher, J.-M. Mewes, S. Ehlert and S. Grimme, Phys. Chem. Chem. Phys.
     2020, 22, 8499-8512. DOI: 10.1039/D0CP00502A
   
   for sTDA-xTB:
   * S. Grimme and C. Bannwarth, J. Chem. Phys., 2016, 145, 054103.
     DOI: 10.1063/1.4959605
   
   in the mass-spec context:
   * V. Asgeirsson, C. Bauer and S. Grimme, Chem. Sci., 2017, 8, 4879.
     DOI: 10.1039/c7sc00601b
   * J. Koopman and S. Grimme, ACS Omega 2019, 4, 12, 15120-15133.
     DOI: 10.1021/acsomega.9b02011
   
   for metadynamics refer to:
   * S. Grimme, J. Chem. Theory Comput., 2019, 155, 2847-2862
     DOI: 10.1021/acs.jctc.9b00143
   
   for SPH calculations refer to:
   * S. Spicher and S. Grimme, J. Chem. Theory Comput., 2021, 17, 1701-1714
     DOI: 10.1021/acs.jctc.0c01306
   
   with help from (in alphabetical order)
   P. Atkinson, C. Bannwarth, F. Bohle, G. Brandenburg, E. Caldeweyher
   M. Checinski, S. Dohm, S. Ehlert, S. Ehrlich, I. Gerasimov, C. Hölzer
   A. Katbashev, J. Koopman, C. Lavigne, S. Lehtola, F. März, M. Müller,
   F. Musil, H. Neugebauer, J. Pisarek, C. Plett, P. Pracht, F. Pultar,
   J. Seibert, P. Shushkov, S. Spicher, M. Stahn, M. Steiner, T. Strunk,
   J. Stückrath, T. Rose, and J. Unsleber
   
 * started run on 2022/10/12 at 03:16:08.990     

           -------------------------------------------------
          |                Calculation Setup                |
           -------------------------------------------------

          program call               : xtb solvent_cut.coord --gfn2 --ohess
          hostname                   : cn1257
          coordinate file            : solvent_cut.coord
          omp threads                :                    10

   ID    Z sym.   atoms
    1    8 o      1, 4, 7, 10, 13, 16, 19, 22, 25, 28, 31, 34, 37, 40, 43,
                  46, 49, 52, 55, 58, 61, 64, 67, 70, 73
    2    1 h      2, 3, 5, 6, 8, 9, 11, 12, 14, 15, 17, 18, 20, 21, 23, 24,
                  26, 27, 29, 30, 32, 33, 35, 36, 38, 39, 41, 42, 44, 45, 47,
                  48, 50, 51, 53, 54, 56, 57, 59, 60, 62, 63, 65, 66, 68, 69,
                  71, 72, 74, 75

molecular fragmentation (1/2 indicates fragments):
111222222222222222222222222222222222222222222222222222222222222222222222
222
# atoms in fragment 1/2:     3    72
 fragment masses (1/2) :       18.02      432.37
CMA distance (Bohr)    :   8.716
constraining FC (au)   :  0.0500

           -------------------------------------------------
          |                 G F N 2 - x T B                 |
           -------------------------------------------------

        Reference                      10.1021/acs.jctc.8b01176
      * Hamiltonian:
        H0-scaling (s, p, d)           1.850000    2.230000    2.230000
        zeta-weighting                 0.500000
      * Dispersion:
        s8                             2.700000
        a1                             0.520000
        a2                             5.000000
        s9                             5.000000
      * Repulsion:
        kExp                           1.500000    1.000000
        rExp                           1.000000
      * Coulomb:
        alpha                          2.000000
        third order                    shell-resolved
        anisotropic                    true
        a3                             3.000000
        a5                             4.000000
        cn-shift                       1.200000
        cn-exp                         4.000000
        max-rad                        5.000000


          ...................................................
          :                      SETUP                      :
          :.................................................:
          :  # basis functions                 150          :
          :  # atomic orbitals                 150          :
          :  # shells                          100          :
          :  # electrons                       200          :
          :  max. iterations                   250          :
          :  Hamiltonian                  GFN2-xTB          :
          :  restarted?                      false          :
          :  GBSA solvation                  false          :
          :  PC potential                    false          :
          :  electronic temp.          300.0000000     K    :
          :  accuracy                    1.0000000          :
          :  -> integral cutoff          0.2500000E+02      :
          :  -> integral neglect         0.1000000E-07      :
          :  -> SCF convergence          0.1000000E-05 Eh   :
          :  -> wf. convergence          0.1000000E-03 e    :
          :  Broyden damping             0.4000000          :
          ...................................................

 iter      E             dE          RMSdq      gap      omega  full diag
   1   -127.8763596 -0.127876E+03  0.403E+00   11.09       0.0  T
   2   -127.8864292 -0.100695E-01  0.239E+00   10.67       1.0  T
   3   -127.8899025 -0.347332E-02  0.237E-01    9.96       1.0  T
   4   -127.8905888 -0.686357E-03  0.562E-02   10.17       1.0  T
   5   -127.8906216 -0.327605E-04  0.337E-02   10.12       1.0  T
   6   -127.8906277 -0.606464E-05  0.279E-03   10.14       4.1  T
   7   -127.8906278 -0.905899E-07  0.821E-04   10.14      14.1  T
   8   -127.8906278 -0.291304E-08  0.467E-04   10.14      24.7  T

   *** convergence criteria satisfied after 8 iterations ***

         #    Occupation            Energy/Eh            Energy/eV
      -------------------------------------------------------------
         1        2.0000           -0.7143531             -19.4385
       ...           ...                  ...                  ...
        94        2.0000           -0.4260653             -11.5938
        95        2.0000           -0.4243013             -11.5458
        96        2.0000           -0.4242327             -11.5440
        97        2.0000           -0.4233727             -11.5206
        98        2.0000           -0.4204069             -11.4399
        99        2.0000           -0.4159989             -11.3199
       100        2.0000           -0.4115400             -11.1986 (HOMO)
       101                         -0.0389285              -1.0593 (LUMO)
       102                         -0.0230576              -0.6274
       103                         -0.0085523              -0.2327
       104                          0.0144647               0.3936
       105                          0.0297183               0.8087
       ...                                ...                  ...
       150                          0.3619880               9.8502
      -------------------------------------------------------------
                  HL-Gap            0.3726115 Eh           10.1393 eV
             Fermi-level           -0.2252342 Eh           -6.1289 eV

 SCC (total)                   0 d,  0 h,  0 min,  0.071 sec
 SCC setup                      ...        0 min,  0.001 sec (  0.737%)
 Dispersion                     ...        0 min,  0.001 sec (  1.285%)
 classical contributions        ...        0 min,  0.000 sec (  0.701%)
 integral evaluation            ...        0 min,  0.004 sec (  5.406%)
 iterations                     ...        0 min,  0.051 sec ( 72.207%)
 molecular gradient             ...        0 min,  0.013 sec ( 18.497%)
 printout                       ...        0 min,  0.001 sec (  1.027%)

         :::::::::::::::::::::::::::::::::::::::::::::::::::::
         ::                     SUMMARY                     ::
         :::::::::::::::::::::::::::::::::::::::::::::::::::::
         :: total energy            -127.126087090840 Eh    ::
         :: gradient norm              0.046799444943 Eh/a0 ::
         :: HOMO-LUMO gap             10.139274792689 eV    ::
         ::.................................................::
         :: SCC energy              -127.890627767289 Eh    ::
         :: -> isotropic ES            0.763483906835 Eh    ::
         :: -> anisotropic ES         -0.126766154623 Eh    ::
         :: -> anisotropic XC         -0.015890161949 Eh    ::
         :: -> dispersion             -0.037398912737 Eh    ::
         :: repulsion energy           0.762344675088 Eh    ::
         :: add. restraining           0.000000000000 Eh    ::
         :: total charge              -0.000000000000 e     ::
         :::::::::::::::::::::::::::::::::::::::::::::::::::::

      ----------------------------------------------------------- 
     |                   =====================                   |
     |                        A N C O P T                        |
     |                   =====================                   |
     |               Approximate Normal Coordinate               |
     |                Rational Function Optimizer                |
      ----------------------------------------------------------- 

          ...................................................
          :                      SETUP                      :
          :.................................................:
          :   optimization level            normal          :
          :   max. optcycles                   225          :
          :   ANC micro-cycles                  20          :
          :   degrees of freedom               219          :
          :.................................................:
          :   RF solver                   davidson          :
          :   write xtbopt.log                true          :
          :   linear?                        false          :
          :   energy convergence         0.5000000E-05 Eh   :
          :   grad. convergence          0.1000000E-02 Eh/α :
          :   maximium RF displ.         1.0000000          :
          :   Hlow (freq-cutoff)         0.1000000E-01      :
          :   Hmax (freq-cutoff)         5.0000000          :
          :   S6 in model hess.         20.0000000          :
          ...................................................

generating ANC from model Hessian ...
Using Lindh-Hessian (1995)
 Shifting diagonal of input Hessian by   1.015248335644762E-002
 Lowest  eigenvalues of input Hessian
    0.010000    0.010019    0.010052    0.010067    0.010095    0.010150
    0.000000    0.000000    0.000000    0.000000    0.000000    0.000000
    0.010184    0.010213    0.010234    0.010262    0.010273    0.010290
 Highest eigenvalues
    1.404593    1.405690    1.405761    1.413537    1.414160    1.428420
 

........................................................................
.............................. CYCLE    1 ..............................
........................................................................
   1   -127.8906278 -0.127891E+03  0.365E-05   10.14       0.0  T
   2   -127.8906278 -0.562750E-11  0.213E-05   10.14     541.0  T
   3   -127.8906278 -0.159162E-11  0.458E-06   10.14    2519.8  T
     SCC iter.                  ...        0 min,  0.015 sec
     gradient                   ...        0 min,  0.013 sec
 * total energy  :  -127.1260871 Eh     change       -0.2528694E-08 Eh
   gradient norm :     0.0468011 Eh/α   predicted     0.0000000E+00 (-100.00%)
   displ. norm   :     0.4270796 α      lambda       -0.6926873E-02
   maximum displ.:     0.1098874 α      in ANC's #44, #16, #46, ...

........................................................................
.............................. CYCLE    2 ..............................
........................................................................
   1   -127.8978980 -0.127898E+03  0.868E-02   10.27       0.0  T
   2   -127.8979280 -0.299889E-04  0.517E-02   10.29       1.0  T
   3   -127.8979333 -0.533758E-05  0.100E-02   10.32       1.2  T
   4   -127.8979342 -0.856216E-06  0.171E-03   10.32       6.7  T
   5   -127.8979342 -0.779910E-08  0.280E-04   10.31      41.3  T
   6   -127.8979342 -0.329649E-09  0.107E-04   10.31     108.2  T
     SCC iter.                  ...        0 min,  0.029 sec
     gradient                   ...        0 min,  0.013 sec
 * total energy  :  -127.1308527 Eh     change       -0.4765594E-02 Eh
   gradient norm :     0.0216286 Eh/α   predicted    -0.4096081E-02 ( -14.05%)
   displ. norm   :     0.5199516 α      lambda       -0.4127175E-02
   maximum displ.:     0.1425677 α      in ANC's #27, #16, #13, ...

........................................................................
.............................. CYCLE    3 ..............................
........................................................................
   1   -127.9058616 -0.127906E+03  0.684E-02   10.37       0.0  T
   2   -127.9058996 -0.380236E-04  0.395E-02   10.39       1.0  T
   3   -127.9059052 -0.555632E-05  0.115E-02   10.40       1.0  T
   4   -127.9059058 -0.655783E-06  0.159E-03   10.40       7.3  T
   5   -127.9059058 -0.932064E-08  0.306E-04   10.40      37.7  T
   6   -127.9059058 -0.402608E-09  0.113E-04   10.40     102.6  T
     SCC iter.                  ...        0 min,  0.027 sec
     gradient                   ...        0 min,  0.013 sec
 * total energy  :  -127.1337888 Eh     change       -0.2936111E-02 Eh
   gradient norm :     0.0150306 Eh/α   predicted    -0.2621479E-02 ( -10.72%)
   displ. norm   :     0.5976825 α      lambda       -0.2915271E-02
   maximum displ.:     0.1942736 α      in ANC's #27, #16, #25, ...

........................................................................
.............................. CYCLE    4 ..............................
........................................................................
   1   -127.9080863 -0.127908E+03  0.687E-02   10.41       0.0  T
   2   -127.9081084 -0.221608E-04  0.413E-02   10.43       1.0  T
   3   -127.9081122 -0.370390E-05  0.861E-03   10.44       1.3  T
   4   -127.9081128 -0.628677E-06  0.140E-03   10.44       8.3  T
   5   -127.9081128 -0.647023E-08  0.237E-04   10.44      48.8  T
   6   -127.9081128 -0.259433E-09  0.924E-05   10.44     125.0  T
     SCC iter.                  ...        0 min,  0.028 sec
     gradient                   ...        0 min,  0.013 sec
 * total energy  :  -127.1360904 Eh     change       -0.2301650E-02 Eh
   gradient norm :     0.0163601 Eh/α   predicted    -0.1978597E-02 ( -14.04%)
   displ. norm   :     0.7036164 α      lambda       -0.2810516E-02
   maximum displ.:     0.2384741 α      in ANC's #16, #27, #25, ...

........................................................................
.............................. CYCLE    5 ..............................
........................................................................
   1   -127.9069643 -0.127907E+03  0.690E-02   10.41       0.0  T
   2   -127.9069776 -0.133355E-04  0.419E-02   10.41       1.0  T
   3   -127.9069802 -0.254985E-05  0.629E-03   10.42       1.8  T
   4   -127.9069806 -0.466669E-06  0.127E-03   10.41       9.1  T
   5   -127.9069806 -0.494514E-08  0.200E-04   10.41      57.7  T
   6   -127.9069806 -0.195513E-09  0.794E-05   10.41     145.4  T
     SCC iter.                  ...        0 min,  0.028 sec
     gradient                   ...        0 min,  0.013 sec
 * total energy  :  -127.1382764 Eh     change       -0.2185991E-02 Eh
   gradient norm :     0.0184190 Eh/α   predicted    -0.2100968E-02 (  -3.89%)
   displ. norm   :     0.6831004 α      lambda       -0.2692631E-02
   maximum displ.:     0.2584589 α      in ANC's #16, #27, #25, ...

........................................................................
.............................. CYCLE    6 ..............................
........................................................................
   1   -127.9093939 -0.127909E+03  0.602E-02   10.41       0.0  T
   2   -127.9094027 -0.874763E-05  0.363E-02   10.41       1.0  T
   3   -127.9094052 -0.253413E-05  0.544E-03   10.41       2.1  T
   4   -127.9094055 -0.287730E-06  0.141E-03   10.41       8.2  T
   5   -127.9094055 -0.617214E-08  0.196E-04   10.41      59.0  T
   6   -127.9094055 -0.241542E-09  0.704E-05   10.41     164.1  T
     SCC iter.                  ...        0 min,  0.028 sec
     gradient                   ...        0 min,  0.013 sec
 * total energy  :  -127.1400511 Eh     change       -0.1774612E-02 Eh
   gradient norm :     0.0232885 Eh/α   predicted    -0.1974544E-02 (  11.27%)
   displ. norm   :     0.6681353 α      lambda       -0.2833530E-02
   maximum displ.:     0.2102994 α      in ANC's #16, #20, #46, ...

........................................................................
.............................. CYCLE    7 ..............................
........................................................................
   1   -127.9030264 -0.127903E+03  0.789E-02   10.35       0.0  T
   2   -127.9030398 -0.134246E-04  0.477E-02   10.35       1.0  T
   3   -127.9030432 -0.342496E-05  0.662E-03   10.35       1.7  T
   4   -127.9030437 -0.464406E-06  0.161E-03   10.35       7.2  T
   5   -127.9030437 -0.631115E-08  0.199E-04   10.35      58.1  T
   6   -127.9030437 -0.234337E-09  0.798E-05   10.35     144.7  T
     SCC iter.                  ...        0 min,  0.027 sec
     gradient                   ...        0 min,  0.013 sec
 * total energy  :  -127.1416773 Eh     change       -0.1626251E-02 Eh
   gradient norm :     0.0290762 Eh/α   predicted    -0.2049218E-02 (  26.01%)
   displ. norm   :     0.5519455 α      lambda       -0.2565488E-02
   maximum displ.:     0.1956878 α      in ANC's #16, #8, #20, ...

........................................................................
.............................. CYCLE    8 ..............................
........................................................................
   1   -127.9027528 -0.127903E+03  0.670E-02   10.34       0.0  T
   2   -127.9027626 -0.982941E-05  0.406E-02   10.34       1.0  T
   3   -127.9027654 -0.277417E-05  0.559E-03   10.35       2.1  T
   4   -127.9027657 -0.316892E-06  0.142E-03   10.34       8.2  T
   5   -127.9027657 -0.495763E-08  0.201E-04   10.34      57.4  T
   6   -127.9027657 -0.199677E-09  0.776E-05   10.34     148.9  T
     SCC iter.                  ...        0 min,  0.028 sec
     gradient                   ...        0 min,  0.013 sec
 * total energy  :  -127.1432800 Eh     change       -0.1602731E-02 Eh
   gradient norm :     0.0220442 Eh/α   predicted    -0.1673524E-02 (   4.42%)
   displ. norm   :     0.5917799 α      lambda       -0.2332303E-02
   maximum displ.:     0.2108815 α      in ANC's #16, #8, #7, ...

........................................................................
.............................. CYCLE    9 ..............................
........................................................................
   1   -127.9045651 -0.127905E+03  0.639E-02   10.35       0.0  T
   2   -127.9045726 -0.742730E-05  0.390E-02   10.35       1.0  T
   3   -127.9045750 -0.242637E-05  0.481E-03   10.35       2.4  T
   4   -127.9045752 -0.236467E-06  0.128E-03   10.35       9.0  T
   5   -127.9045752 -0.391277E-08  0.173E-04   10.35      66.6  T
   6   -127.9045752 -0.161563E-09  0.679E-05   10.35     170.0  T
     SCC iter.                  ...        0 min,  0.028 sec
     gradient                   ...        0 min,  0.013 sec
 * total energy  :  -127.1450013 Eh     change       -0.1721218E-02 Eh
   gradient norm :     0.0158378 Eh/α   predicted    -0.1574548E-02 (  -8.52%)
   displ. norm   :     0.7469819 α      lambda       -0.2172833E-02
   maximum displ.:     0.2489777 α      in ANC's #16, #8, #20, ...

........................................................................
.............................. CYCLE   10 ..............................
........................................................................
   1   -127.9031148 -0.127903E+03  0.652E-02   10.32       0.0  T
   2   -127.9031220 -0.725618E-05  0.398E-02   10.31       1.0  T
   3   -127.9031243 -0.230995E-05  0.464E-03   10.31       2.5  T
   4   -127.9031246 -0.238729E-06  0.124E-03   10.31       9.3  T
   5   -127.9031246 -0.432946E-08  0.180E-04   10.31      64.3  T
   6   -127.9031246 -0.180819E-09  0.703E-05   10.31     164.2  T
     SCC iter.                  ...        0 min,  0.028 sec
     gradient                   ...        0 min,  0.013 sec
 * total energy  :  -127.1468287 Eh     change       -0.1827403E-02 Eh
   gradient norm :     0.0159264 Eh/α   predicted    -0.1692624E-02 (  -7.38%)
   displ. norm   :     0.7820927 α      lambda       -0.2295156E-02
   maximum displ.:     0.2510578 α      in ANC's #16, #8, #43, ...

........................................................................
.............................. CYCLE   11 ..............................
........................................................................
   1   -127.9063345 -0.127906E+03  0.739E-02   10.29       0.0  T
   2   -127.9063417 -0.720475E-05  0.452E-02   10.29       1.0  T
   3   -127.9063446 -0.285345E-05  0.466E-03   10.28       2.5  T
   4   -127.9063448 -0.197280E-06  0.137E-03   10.28       8.4  T
   5   -127.9063448 -0.526110E-08  0.190E-04   10.28      60.9  T
   6   -127.9063448 -0.179384E-09  0.781E-05   10.28     147.8  T
     SCC iter.                  ...        0 min,  0.028 sec
     gradient                   ...        0 min,  0.013 sec
 * total energy  :  -127.1484073 Eh     change       -0.1578693E-02 Eh
   gradient norm :     0.0267490 Eh/α   predicted    -0.1849519E-02 (  17.16%)
   displ. norm   :     0.7139522 α      lambda       -0.2282104E-02
   maximum displ.:     0.2315894 α      in ANC's #16, #8, #7, ...

........................................................................
.............................. CYCLE   12 ..............................
........................................................................
   1   -127.9026923 -0.127903E+03  0.698E-02   10.23       0.0  T
   2   -127.9026984 -0.607464E-05  0.428E-02   10.23       1.0  T
   3   -127.9027010 -0.261347E-05  0.423E-03   10.23       2.7  T
   4   -127.9027012 -0.151208E-06  0.129E-03   10.23       9.0  T
   5   -127.9027012 -0.452428E-08  0.156E-04   10.23      74.0  T
   6   -127.9027012 -0.111456E-09  0.713E-05   10.23     161.8  T
     SCC iter.                  ...        0 min,  0.028 sec
     gradient                   ...        0 min,  0.013 sec
 * total energy  :  -127.1500645 Eh     change       -0.1657104E-02 Eh
   gradient norm :     0.0223240 Eh/α   predicted    -0.1722681E-02 (   3.96%)
   displ. norm   :     0.6442092 α      lambda       -0.2553310E-02
   maximum displ.:     0.1979467 α      in ANC's #16, #7, #8, ...

........................................................................
.............................. CYCLE   13 ..............................
........................................................................
   1   -127.9219101 -0.127922E+03  0.663E-02   10.28       0.0  T
   2   -127.9219191 -0.902021E-05  0.397E-02   10.28       1.0  T
   3   -127.9219223 -0.321652E-05  0.562E-03   10.27       2.1  T
   4   -127.9219226 -0.256827E-06  0.158E-03   10.27       7.3  T
   5   -127.9219226 -0.789571E-08  0.218E-04   10.27      53.0  T
   6   -127.9219226 -0.256904E-09  0.824E-05   10.27     140.2  T
     SCC iter.                  ...        0 min,  0.027 sec
     gradient                   ...        0 min,  0.013 sec
 * total energy  :  -127.1507725 Eh     change       -0.7080434E-03 Eh
   gradient norm :     0.0382366 Eh/α   predicted    -0.1806478E-02 ( 155.14%)
   displ. norm   :     0.5466212 α      lambda       -0.3158652E-02
   maximum displ.:     0.1748087 α      in ANC's #16, #7, #8, ...

........................................................................
.............................. CYCLE   14 ..............................
........................................................................
   1   -127.9084988 -0.127908E+03  0.783E-02   10.19       0.0  T
   2   -127.9085098 -0.110112E-04  0.474E-02   10.19       1.0  T
   3   -127.9085138 -0.399649E-05  0.603E-03   10.19       1.9  T
   4   -127.9085141 -0.312381E-06  0.170E-03   10.19       6.8  T
   5   -127.9085141 -0.650003E-08  0.187E-04   10.19      61.9  T
   6   -127.9085141 -0.200970E-09  0.819E-05   10.19     141.0  T
     SCC iter.                  ...        0 min,  0.028 sec
     gradient                   ...        0 min,  0.013 sec
 * total energy  :  -127.1526906 Eh     change       -0.1918086E-02 Eh
   gradient norm :     0.0303585 Eh/α   predicted    -0.2051226E-02 (   6.94%)
   displ. norm   :     0.5229813 α      lambda       -0.3540315E-02
   maximum displ.:     0.1831254 α      in ANC's #43, #16, #22, ...

........................................................................
.............................. CYCLE   15 ..............................
........................................................................
   1   -127.9071492 -0.127907E+03  0.100E-01   10.11       0.0  T
   2   -127.9071742 -0.250200E-04  0.595E-02   10.10       1.0  T
   3   -127.9071822 -0.796194E-05  0.961E-03   10.10       1.2  T
   4   -127.9071830 -0.749804E-06  0.266E-03   10.10       4.3  T
   5   -127.9071830 -0.185405E-07  0.327E-04   10.10      35.3  T
   6   -127.9071830 -0.743526E-09  0.117E-04   10.10      98.4  T
     SCC iter.                  ...        0 min,  0.028 sec
     gradient                   ...        0 min,  0.013 sec
 * total energy  :  -127.1516804 Eh     change        0.1010207E-02 Eh
   gradient norm :     0.0618754 Eh/α   predicted    -0.2254316E-02 (-323.15%)
   displ. norm   :     0.3400190 α      lambda       -0.5901224E-02
   maximum displ.:     0.0953393 α      in ANC's #48, #7, #8, ...

........................................................................
.............................. CYCLE   16 ..............................
........................................................................
   1   -127.9129752 -0.127913E+03  0.794E-02   10.16       0.0  T
   2   -127.9129904 -0.152736E-04  0.476E-02   10.16       1.0  T
   3   -127.9129959 -0.545294E-05  0.755E-03   10.16       1.5  T
   4   -127.9129963 -0.455670E-06  0.207E-03   10.16       5.6  T
   5   -127.9129964 -0.125474E-07  0.241E-04   10.16      47.9  T
   6   -127.9129964 -0.375096E-09  0.969E-05   10.16     119.1  T
     SCC iter.                  ...        0 min,  0.028 sec
     gradient                   ...        0 min,  0.013 sec
 * total energy  :  -127.1549746 Eh     change       -0.3294199E-02 Eh
   gradient norm :     0.0222600 Eh/α   predicted    -0.3291741E-02 (  -0.07%)
   displ. norm   :     0.6451905 α      lambda       -0.3153046E-02
   maximum displ.:     0.2010519 α      in ANC's #16, #7, #25, ...

........................................................................
.............................. CYCLE   17 ..............................
........................................................................
   1   -127.9039820 -0.127904E+03  0.913E-02   10.08       0.0  T
   2   -127.9039992 -0.172839E-04  0.556E-02   10.09       1.0  T
   3   -127.9040070 -0.779243E-05  0.755E-03   10.09       1.5  T
   4   -127.9040074 -0.420631E-06  0.232E-03   10.09       5.0  T
   5   -127.9040075 -0.187806E-07  0.304E-04   10.09      37.9  T
   6   -127.9040075 -0.444288E-09  0.134E-04   10.09      86.4  T
     SCC iter.                  ...        0 min,  0.028 sec
     gradient                   ...        0 min,  0.013 sec
 * total energy  :  -127.1552592 Eh     change       -0.2846255E-03 Eh
   gradient norm :     0.0531406 Eh/α   predicted    -0.2232792E-02 ( 684.47%)
   displ. norm   :     0.4241933 α      lambda       -0.4452251E-02
   maximum displ.:     0.1004785 α      in ANC's #7, #15, #43, ...

........................................................................
.............................. CYCLE   18 ..............................
........................................................................
   1   -127.9156034 -0.127916E+03  0.683E-02   10.12       0.0  T
   2   -127.9156195 -0.161349E-04  0.406E-02   10.12       1.0  T
   3   -127.9156242 -0.464206E-05  0.749E-03   10.12       1.5  T
   4   -127.9156247 -0.471331E-06  0.195E-03   10.12       5.9  T
   5   -127.9156247 -0.986552E-08  0.237E-04   10.12      48.7  T
   6   -127.9156247 -0.358867E-09  0.879E-05   10.12     131.4  T
     SCC iter.                  ...        0 min,  0.028 sec
     gradient                   ...        0 min,  0.013 sec
 * total energy  :  -127.1576499 Eh     change       -0.2390735E-02 Eh
   gradient norm :     0.0385719 Eh/α   predicted    -0.2626694E-02 (   9.87%)
   displ. norm   :     0.4844421 α      lambda       -0.5130415E-02
   maximum displ.:     0.1421664 α      in ANC's #29, #43, #9, ...

........................................................................
.............................. CYCLE   19 ..............................
........................................................................
   1   -127.9225780 -0.127923E+03  0.122E-01   10.04       0.0  T
   2   -127.9226154 -0.373750E-04  0.734E-02   10.04       1.0  T
   3   -127.9226316 -0.162255E-04  0.118E-02   10.05       1.0  T
   4   -127.9226327 -0.103286E-05  0.358E-03   10.05       3.2  T
   5   -127.9226327 -0.416356E-07  0.442E-04   10.05      26.1  T
   6   -127.9226327 -0.103044E-08  0.174E-04   10.05      66.4  T
     SCC iter.                  ...        0 min,  0.029 sec
     gradient                   ...        0 min,  0.013 sec
 * total energy  :  -127.1549739 Eh     change        0.2676047E-02 Eh
   gradient norm :     0.0764019 Eh/α   predicted    -0.3167227E-02 (-218.35%)
   displ. norm   :     0.3147849 α      lambda       -0.9761429E-02
   maximum displ.:     0.0699029 α      in ANC's #32, #48, #57, ...

........................................................................
.............................. CYCLE   20 ..............................
........................................................................
   1   -127.9167315 -0.127917E+03  0.101E-01   10.09       0.0  T
   2   -127.9167610 -0.294651E-04  0.606E-02   10.09       1.0  T
   3   -127.9167733 -0.123202E-04  0.102E-02   10.09       1.1  T
   4   -127.9167741 -0.795191E-06  0.328E-03   10.09       3.5  T
   5   -127.9167741 -0.339437E-07  0.362E-04   10.09      31.9  T
   6   -127.9167741 -0.716042E-09  0.155E-04   10.09      74.6  T
     SCC iter.                  ...        0 min,  0.028 sec
     gradient                   ...        0 min,  0.013 sec
 * total energy  :  -127.1588790 Eh     change       -0.3905122E-02 Eh
   gradient norm :     0.0473442 Eh/α   predicted    -0.5364342E-02 (  37.37%)
   displ. norm   :     0.4504174 α      lambda       -0.8391096E-02
   maximum displ.:     0.1292230 α      in ANC's #50, #28, #48, ...
 * RMSD in coord.:     1.0802120 α      energy gain  -0.3279192E-01 Eh

generating ANC from model Hessian ...
Using Lindh-Hessian (1995)
 Shifting diagonal of input Hessian by   1.019852734747616E-002
 Lowest  eigenvalues of input Hessian
    0.010000    0.010040    0.010068    0.010106    0.010125    0.010176
    0.000000    0.000000    0.000000    0.000000    0.000000    0.000000
    0.010259    0.010290    0.010321    0.010378    0.010387    0.010430
 Highest eigenvalues
    1.415758    1.426677    1.430067    1.440950    1.461596    1.581484
 

........................................................................
.............................. CYCLE   21 ..............................
........................................................................
   1   -127.9192940 -0.127919E+03  0.159E-01   10.07       0.0  T
   2   -127.9193552 -0.612277E-04  0.963E-02   10.08       1.0  T
   3   -127.9193804 -0.251858E-04  0.145E-02   10.07       1.0  T
   4   -127.9193821 -0.165750E-05  0.446E-03   10.07       2.6  T
   5   -127.9193821 -0.580382E-07  0.538E-04   10.07      21.5  T
   6   -127.9193821 -0.161108E-08  0.218E-04   10.07      53.0  T
     SCC iter.                  ...        0 min,  0.028 sec
     gradient                   ...        0 min,  0.013 sec
 * total energy  :  -127.1538456 Eh     change        0.5033434E-02 Eh
   gradient norm :     0.1187752 Eh/α   predicted     0.0000000E+00 (-100.00%)
   displ. norm   :     0.2403742 α      lambda       -0.1192643E-01
   maximum displ.:     0.0653283 α      in ANC's #96, #219, #99, ...

........................................................................
.............................. CYCLE   22 ..............................
........................................................................
   1   -127.9181816 -0.127918E+03  0.831E-02   10.10       0.0  T
   2   -127.9181982 -0.166656E-04  0.499E-02   10.10       1.0  T
   3   -127.9182045 -0.626245E-05  0.761E-03   10.10       1.5  T
   4   -127.9182050 -0.459925E-06  0.229E-03   10.10       5.1  T
   5   -127.9182050 -0.158400E-07  0.258E-04   10.10      44.7  T
   6   -127.9182050 -0.365489E-09  0.114E-04   10.10     101.1  T
     SCC iter.                  ...        0 min,  0.028 sec
     gradient                   ...        0 min,  0.013 sec
 * total energy  :  -127.1610077 Eh     change       -0.7162110E-02 Eh
   gradient norm :     0.0305774 Eh/α   predicted    -0.6308256E-02 ( -11.92%)
   displ. norm   :     0.2372507 α      lambda       -0.1964405E-02
   maximum displ.:     0.0715816 α      in ANC's #35, #20, #7, ...

........................................................................
.............................. CYCLE   23 ..............................
........................................................................
   1   -127.9208384 -0.127921E+03  0.461E-02   10.11       0.0  T
   2   -127.9208429 -0.453626E-05  0.278E-02   10.11       1.0  T
   3   -127.9208446 -0.168969E-05  0.391E-03   10.11       3.0  T
   4   -127.9208447 -0.130033E-06  0.117E-03   10.11       9.8  T
   5   -127.9208447 -0.460753E-08  0.148E-04   10.11      78.1  T
   6   -127.9208447 -0.114525E-09  0.603E-05   10.11     191.6  T
     SCC iter.                  ...        0 min,  0.028 sec
     gradient                   ...        0 min,  0.013 sec
 * total energy  :  -127.1620835 Eh     change       -0.1075817E-02 Eh
   gradient norm :     0.0074895 Eh/α   predicted    -0.1037505E-02 (  -3.56%)
   displ. norm   :     0.2423897 α      lambda       -0.7013757E-03
   maximum displ.:     0.0676901 α      in ANC's #7, #20, #35, ...

........................................................................
.............................. CYCLE   24 ..............................
........................................................................
   1   -127.9209988 -0.127921E+03  0.339E-02   10.10       0.0  T
   2   -127.9210009 -0.213942E-05  0.206E-02   10.10       1.0  T
   3   -127.9210015 -0.557732E-06  0.249E-03   10.09       4.6  T
   4   -127.9210016 -0.710932E-07  0.564E-04   10.09      20.5  T
   5   -127.9210016 -0.719069E-09  0.829E-05   10.10     139.2  T
     SCC iter.                  ...        0 min,  0.023 sec
     gradient                   ...        0 min,  0.013 sec
 * total energy  :  -127.1625924 Eh     change       -0.5089368E-03 Eh
   gradient norm :     0.0118571 Eh/α   predicted    -0.3714207E-03 ( -27.02%)
   displ. norm   :     0.4349526 α      lambda       -0.8766971E-03
   maximum displ.:     0.1281133 α      in ANC's #7, #20, #8, ...

........................................................................
.............................. CYCLE   25 ..............................
........................................................................
   1   -127.9200703 -0.127920E+03  0.440E-02   10.08       0.0  T
   2   -127.9200742 -0.394913E-05  0.266E-02   10.08       1.0  T
   3   -127.9200751 -0.825830E-06  0.344E-03   10.08       3.4  T
   4   -127.9200752 -0.140950E-06  0.712E-04   10.07      16.2  T
   5   -127.9200752 -0.161920E-08  0.126E-04   10.07      91.7  T
     SCC iter.                  ...        0 min,  0.023 sec
     gradient                   ...        0 min,  0.013 sec
 * total energy  :  -127.1632745 Eh     change       -0.6821047E-03 Eh
   gradient norm :     0.0110892 Eh/α   predicted    -0.5212775E-03 ( -23.58%)
   displ. norm   :     0.5341071 α      lambda       -0.8539917E-03
   maximum displ.:     0.1672280 α      in ANC's #7, #8, #20, ...

........................................................................
.............................. CYCLE   26 ..............................
........................................................................
   1   -127.9187641 -0.127919E+03  0.479E-02   10.05       0.0  T
   2   -127.9187680 -0.389396E-05  0.291E-02   10.05       1.0  T
   3   -127.9187690 -0.991060E-06  0.337E-03   10.05       3.4  T
   4   -127.9187691 -0.136786E-06  0.807E-04   10.05      14.3  T
   5   -127.9187691 -0.188967E-08  0.127E-04   10.05      91.1  T
     SCC iter.                  ...        0 min,  0.024 sec
     gradient                   ...        0 min,  0.013 sec
 * total energy  :  -127.1639019 Eh     change       -0.6273334E-03 Eh
   gradient norm :     0.0079684 Eh/α   predicted    -0.5488068E-03 ( -12.52%)
   displ. norm   :     0.5339184 α      lambda       -0.7189692E-03
   maximum displ.:     0.1804262 α      in ANC's #7, #8, #28, ...

........................................................................
.............................. CYCLE   27 ..............................
........................................................................
   1   -127.9179375 -0.127918E+03  0.467E-02   10.01       0.0  T
   2   -127.9179408 -0.332225E-05  0.285E-02   10.02       1.0  T
   3   -127.9179419 -0.101869E-05  0.314E-03   10.03       3.7  T
   4   -127.9179420 -0.110119E-06  0.830E-04   10.02      13.9  T
   5   -127.9179420 -0.184562E-08  0.112E-04   10.02     102.8  T
     SCC iter.                  ...        0 min,  0.024 sec
     gradient                   ...        0 min,  0.013 sec
 * total energy  :  -127.1644120 Eh     change       -0.5100873E-03 Eh
   gradient norm :     0.0096932 Eh/α   predicted    -0.4619632E-03 (  -9.43%)
   displ. norm   :     0.5517790 α      lambda       -0.7637359E-03
   maximum displ.:     0.2054954 α      in ANC's #8, #7, #1, ...

........................................................................
.............................. CYCLE   28 ..............................
........................................................................
   1   -127.9168871 -0.127917E+03  0.512E-02    9.98       0.0  T
   2   -127.9168910 -0.387825E-05  0.311E-02    9.99       1.0  T
   3   -127.9168921 -0.111778E-05  0.341E-03   10.00       3.4  T
   4   -127.9168922 -0.133133E-06  0.867E-04   10.00      13.3  T
   5   -127.9168922 -0.205081E-08  0.125E-04   10.00      92.7  T
     SCC iter.                  ...        0 min,  0.024 sec
     gradient                   ...        0 min,  0.013 sec
 * total energy  :  -127.1650182 Eh     change       -0.6062487E-03 Eh
   gradient norm :     0.0104077 Eh/α   predicted    -0.4981340E-03 ( -17.83%)
   displ. norm   :     0.6063917 α      lambda       -0.9049364E-03
   maximum displ.:     0.2249177 α      in ANC's #8, #1, #7, ...

........................................................................
.............................. CYCLE   29 ..............................
........................................................................
   1   -127.9170722 -0.127917E+03  0.587E-02    9.95       0.0  T
   2   -127.9170777 -0.553915E-05  0.357E-02    9.96       1.0  T
   3   -127.9170792 -0.143238E-05  0.404E-03    9.97       2.9  T
   4   -127.9170794 -0.201231E-06  0.101E-03    9.97      11.4  T
   5   -127.9170794 -0.321704E-08  0.157E-04    9.97      73.7  T
   6   -127.9170794 -0.131806E-09  0.609E-05    9.97     189.5  T
     SCC iter.                  ...        0 min,  0.027 sec
     gradient                   ...        0 min,  0.013 sec
 * total energy  :  -127.1657391 Eh     change       -0.7209277E-03 Eh
   gradient norm :     0.0132336 Eh/α   predicted    -0.6188469E-03 ( -14.16%)
   displ. norm   :     0.6246790 α      lambda       -0.1103487E-02
   maximum displ.:     0.2502998 α      in ANC's #1, #8, #7, ...

........................................................................
.............................. CYCLE   30 ..............................
........................................................................
   1   -127.9203152 -0.127920E+03  0.640E-02    9.92       0.0  T
   2   -127.9203232 -0.803825E-05  0.387E-02    9.94       1.0  T
   3   -127.9203254 -0.216559E-05  0.500E-03    9.95       2.3  T
   4   -127.9203256 -0.277172E-06  0.131E-03    9.95       8.8  T
   5   -127.9203256 -0.568936E-08  0.189E-04    9.95      61.0  T
   6   -127.9203256 -0.186020E-09  0.739E-05    9.95     156.1  T
     SCC iter.                  ...        0 min,  0.028 sec
     gradient                   ...        0 min,  0.013 sec
 * total energy  :  -127.1662364 Eh     change       -0.4972361E-03 Eh
   gradient norm :     0.0240175 Eh/α   predicted    -0.7670475E-03 (  54.26%)
   displ. norm   :     0.4694595 α      lambda       -0.1359217E-02
   maximum displ.:     0.1899203 α      in ANC's #1, #8, #18, ...

........................................................................
.............................. CYCLE   31 ..............................
........................................................................
   1   -127.9158055 -0.127916E+03  0.594E-02    9.90       0.0  T
   2   -127.9158121 -0.659946E-05  0.358E-02    9.91       1.0  T
   3   -127.9158141 -0.200199E-05  0.477E-03    9.91       2.4  T
   4   -127.9158143 -0.215255E-06  0.132E-03    9.91       8.8  T
   5   -127.9158143 -0.402824E-08  0.144E-04    9.91      80.3  T
   6   -127.9158143 -0.119456E-09  0.602E-05    9.91     191.7  T
     SCC iter.                  ...        0 min,  0.028 sec
     gradient                   ...        0 min,  0.013 sec
 * total energy  :  -127.1667962 Eh     change       -0.5598078E-03 Eh
   gradient norm :     0.0220531 Eh/α   predicted    -0.8293898E-03 (  48.16%)
   displ. norm   :     0.2420764 α      lambda       -0.1059828E-02
   maximum displ.:     0.0895209 α      in ANC's #1, #8, #7, ...

........................................................................
.............................. CYCLE   32 ..............................
........................................................................
   1   -127.9252314 -0.127925E+03  0.406E-02    9.97       0.0  T
   2   -127.9252343 -0.286259E-05  0.247E-02    9.96       1.0  T
   3   -127.9252354 -0.111880E-05  0.298E-03    9.96       3.9  T
   4   -127.9252355 -0.744469E-07  0.914E-04    9.97      12.6  T
   5   -127.9252355 -0.234517E-08  0.122E-04    9.97      94.8  T
     SCC iter.                  ...        0 min,  0.024 sec
     gradient                   ...        0 min,  0.013 sec
 * total energy  :  -127.1672082 Eh     change       -0.4120470E-03 Eh
   gradient norm :     0.0164940 Eh/α   predicted    -0.5609675E-03 (  36.14%)
   displ. norm   :     0.4392830 α      lambda       -0.9859245E-03
   maximum displ.:     0.1942496 α      in ANC's #1, #8, #7, ...

........................................................................
.............................. CYCLE   33 ..............................
........................................................................
   1   -127.9218923 -0.127922E+03  0.486E-02    9.89       0.0  T
   2   -127.9218963 -0.391899E-05  0.297E-02    9.90       1.0  T
   3   -127.9218978 -0.149362E-05  0.350E-03    9.90       3.3  T
   4   -127.9218979 -0.119607E-06  0.108E-03    9.90      10.7  T
   5   -127.9218979 -0.343022E-08  0.117E-04    9.90      98.8  T
   6   -127.9218979 -0.688232E-10  0.533E-05    9.90     216.6  T
     SCC iter.                  ...        0 min,  0.028 sec
     gradient                   ...        0 min,  0.013 sec
 * total energy  :  -127.1677078 Eh     change       -0.4995607E-03 Eh
   gradient norm :     0.0126254 Eh/α   predicted    -0.5880999E-03 (  17.72%)
   displ. norm   :     0.3277781 α      lambda       -0.6650599E-03
   maximum displ.:     0.1573348 α      in ANC's #1, #8, #7, ...

........................................................................
.............................. CYCLE   34 ..............................
........................................................................
   1   -127.9262271 -0.127926E+03  0.319E-02    9.91       0.0  T
   2   -127.9262288 -0.174782E-05  0.192E-02    9.92       1.0  T
   3   -127.9262293 -0.467078E-06  0.232E-03    9.92       5.0  T
   4   -127.9262294 -0.567159E-07  0.599E-04    9.92      19.3  T
   5   -127.9262294 -0.924913E-09  0.775E-05    9.92     148.9  T
     SCC iter.                  ...        0 min,  0.023 sec
     gradient                   ...        0 min,  0.013 sec
 * total energy  :  -127.1681153 Eh     change       -0.4075137E-03 Eh
   gradient norm :     0.0109746 Eh/α   predicted    -0.3682577E-03 (  -9.63%)
   displ. norm   :     0.5392830 α      lambda       -0.6956074E-03
   maximum displ.:     0.2595860 α      in ANC's #1, #8, #7, ...

........................................................................
.............................. CYCLE   35 ..............................
........................................................................
   1   -127.9234668 -0.127923E+03  0.445E-02    9.89       0.0  T
   2   -127.9234695 -0.260961E-05  0.270E-02    9.90       1.0  T
   3   -127.9234703 -0.888350E-06  0.285E-03    9.91       4.1  T
   4   -127.9234704 -0.818882E-07  0.845E-04    9.91      13.7  T
   5   -127.9234704 -0.175029E-08  0.955E-05    9.91     120.9  T
     SCC iter.                  ...        0 min,  0.023 sec
     gradient                   ...        0 min,  0.013 sec
 * total energy  :  -127.1685351 Eh     change       -0.4198103E-03 Eh
   gradient norm :     0.0144625 Eh/α   predicted    -0.4489565E-03 (   6.94%)
   displ. norm   :     0.4432810 α      lambda       -0.6071549E-03
   maximum displ.:     0.2218328 α      in ANC's #1, #8, #7, ...

........................................................................
.............................. CYCLE   36 ..............................
........................................................................
   1   -127.9265495 -0.127927E+03  0.321E-02    9.91       0.0  T
   2   -127.9265514 -0.193956E-05  0.194E-02    9.91       1.0  T
   3   -127.9265519 -0.517778E-06  0.241E-03    9.91       4.8  T
   4   -127.9265520 -0.656915E-07  0.623E-04    9.91      18.5  T
   5   -127.9265520 -0.100411E-08  0.809E-05    9.91     142.8  T
     SCC iter.                  ...        0 min,  0.023 sec
     gradient                   ...        0 min,  0.013 sec
 * total energy  :  -127.1689832 Eh     change       -0.4481123E-03 Eh
   gradient norm :     0.0140095 Eh/α   predicted    -0.3632309E-03 ( -18.94%)
   displ. norm   :     0.6067636 α      lambda       -0.8250184E-03
   maximum displ.:     0.3095472 α      in ANC's #1, #8, #7, ...

........................................................................
.............................. CYCLE   37 ..............................
........................................................................
   1   -127.9243724 -0.127924E+03  0.435E-02    9.87       0.0  T
   2   -127.9243754 -0.302761E-05  0.263E-02    9.87       1.0  T
   3   -127.9243763 -0.955095E-06  0.309E-03    9.87       3.7  T
   4   -127.9243764 -0.965289E-07  0.877E-04    9.87      13.2  T
   5   -127.9243764 -0.256911E-08  0.126E-04    9.87      91.4  T
     SCC iter.                  ...        0 min,  0.024 sec
     gradient                   ...        0 min,  0.013 sec
 * total energy  :  -127.1695376 Eh     change       -0.5543940E-03 Eh
   gradient norm :     0.0122020 Eh/α   predicted    -0.5643798E-03 (   1.80%)
   displ. norm   :     0.6110564 α      lambda       -0.8085713E-03
   maximum displ.:     0.3091715 α      in ANC's #1, #8, #7, ...

........................................................................
.............................. CYCLE   38 ..............................
........................................................................
   1   -127.9248874 -0.127925E+03  0.419E-02    9.83       0.0  T
   2   -127.9248904 -0.298398E-05  0.255E-02    9.84       1.0  T
   3   -127.9248914 -0.107236E-05  0.297E-03    9.85       3.9  T
   4   -127.9248915 -0.905613E-07  0.882E-04    9.85      13.1  T
   5   -127.9248915 -0.261024E-08  0.120E-04    9.85      95.8  T
     SCC iter.                  ...        0 min,  0.024 sec
     gradient                   ...        0 min,  0.013 sec
 * total energy  :  -127.1702129 Eh     change       -0.6752816E-03 Eh
   gradient norm :     0.0116734 Eh/α   predicted    -0.5552457E-03 ( -17.78%)
   displ. norm   :     0.6974715 α      lambda       -0.1168686E-02
   maximum displ.:     0.3230784 α      in ANC's #1, #8, #7, ...

........................................................................
.............................. CYCLE   39 ..............................
........................................................................
   1   -127.9237246 -0.127924E+03  0.557E-02    9.81       0.0  T
   2   -127.9237291 -0.450289E-05  0.340E-02    9.82       1.0  T
   3   -127.9237311 -0.198055E-05  0.361E-03    9.82       3.2  T
   4   -127.9237312 -0.119036E-06  0.119E-03    9.82       9.7  T
   5   -127.9237312 -0.560432E-08  0.164E-04    9.82      70.3  T
   6   -127.9237312 -0.114653E-09  0.715E-05    9.82     161.5  T
     SCC iter.                  ...        0 min,  0.028 sec
     gradient                   ...        0 min,  0.013 sec
 * total energy  :  -127.1711429 Eh     change       -0.9300199E-03 Eh
   gradient norm :     0.0159206 Eh/α   predicted    -0.8686125E-03 (  -6.60%)
   displ. norm   :     0.7044249 α      lambda       -0.1262370E-02
   maximum displ.:     0.3334296 α      in ANC's #1, #8, #38, ...

........................................................................
.............................. CYCLE   40 ..............................
........................................................................
   1   -127.9213248 -0.127921E+03  0.564E-02    9.77       0.0  T
   2   -127.9213292 -0.435246E-05  0.342E-02    9.77       1.0  T
   3   -127.9213308 -0.162740E-05  0.365E-03    9.78       3.2  T
   4   -127.9213309 -0.131461E-06  0.113E-03    9.78      10.2  T
   5   -127.9213309 -0.480331E-08  0.155E-04    9.78      74.5  T
   6   -127.9213309 -0.101224E-09  0.676E-05    9.78     170.9  T
     SCC iter.                  ...        0 min,  0.028 sec
     gradient                   ...        0 min,  0.013 sec
 * total energy  :  -127.1721052 Eh     change       -0.9622879E-03 Eh
   gradient norm :     0.0216929 Eh/α   predicted    -0.9443921E-03 (  -1.86%)
   displ. norm   :     0.5819246 α      lambda       -0.1529361E-02
   maximum displ.:     0.2247163 α      in ANC's #1, #25, #8, ...

........................................................................
.............................. CYCLE   41 ..............................
........................................................................
   1   -127.9256008 -0.127926E+03  0.562E-02    9.80       0.0  T
   2   -127.9256064 -0.556329E-05  0.337E-02    9.80       1.0  T
   3   -127.9256080 -0.164206E-05  0.428E-03    9.80       2.7  T
   4   -127.9256082 -0.180198E-06  0.108E-03    9.80      10.7  T
   5   -127.9256082 -0.369950E-08  0.161E-04    9.80      71.8  T
   6   -127.9256082 -0.130044E-09  0.610E-05    9.80     189.3  T
     SCC iter.                  ...        0 min,  0.028 sec
     gradient                   ...        0 min,  0.013 sec
 * total energy  :  -127.1728907 Eh     change       -0.7854857E-03 Eh
   gradient norm :     0.0195018 Eh/α   predicted    -0.1023631E-02 (  30.32%)
   displ. norm   :     0.6006362 α      lambda       -0.1369733E-02
   maximum displ.:     0.3191552 α      in ANC's #1, #8, #7, ...

........................................................................
.............................. CYCLE   42 ..............................
........................................................................
   1   -127.9163892 -0.127916E+03  0.576E-02    9.71       0.0  T
   2   -127.9164055 -0.163761E-04  0.340E-02    9.71       1.0  T
   3   -127.9164082 -0.271413E-05  0.747E-03    9.71       1.5  T
   4   -127.9164087 -0.411296E-06  0.127E-03    9.70       9.1  T
   5   -127.9164087 -0.544465E-08  0.214E-04    9.70      54.0  T
   6   -127.9164087 -0.208829E-09  0.844E-05    9.70     136.8  T
     SCC iter.                  ...        0 min,  0.028 sec
     gradient                   ...        0 min,  0.013 sec
 * total energy  :  -127.1733719 Eh     change       -0.4812259E-03 Eh
   gradient norm :     0.0243526 Eh/α   predicted    -0.9319423E-03 (  93.66%)
   displ. norm   :     0.3502281 α      lambda       -0.1583820E-02
   maximum displ.:     0.1129935 α      in ANC's #7, #13, #11, ...
 * RMSD in coord.:     0.9258862 α      energy gain  -0.1449291E-01 Eh

generating ANC from model Hessian ...
Using Lindh-Hessian (1995)
 Shifting diagonal of input Hessian by   1.017258040337168E-002
 Lowest  eigenvalues of input Hessian
    0.010000    0.010047    0.010110    0.000000    0.000000    0.000000
    0.000000    0.000000    0.000000    0.010198    0.010207    0.010284
    0.010352    0.010377    0.010391    0.010482    0.010539    0.010566
 Highest eigenvalues
    1.406121    1.406218    1.409393    1.414479    1.416401    1.420888
 

........................................................................
.............................. CYCLE   43 ..............................
........................................................................
   1   -127.9257839 -0.127926E+03  0.585E-02    9.74       0.0  T
   2   -127.9258025 -0.185626E-04  0.340E-02    9.74       1.0  T
   3   -127.9258057 -0.321987E-05  0.801E-03    9.74       1.4  T
   4   -127.9258061 -0.436508E-06  0.144E-03    9.74       8.0  T
   5   -127.9258061 -0.659676E-08  0.224E-04    9.74      51.5  T
   6   -127.9258061 -0.290797E-09  0.796E-05    9.74     145.0  T
     SCC iter.                  ...        0 min,  0.028 sec
     gradient                   ...        0 min,  0.013 sec
 * total energy  :  -127.1733663 Eh     change        0.5615999E-05 Eh
   gradient norm :     0.0324013 Eh/α   predicted     0.0000000E+00 (-100.00%)
   displ. norm   :     0.2126557 α      lambda       -0.2001740E-02
   maximum displ.:     0.0849582 α      in ANC's #57, #61, #30, ...

........................................................................
.............................. CYCLE   44 ..............................
........................................................................
   1   -127.9266481 -0.127927E+03  0.465E-02    9.76       0.0  T
   2   -127.9266510 -0.282603E-05  0.284E-02    9.76       1.0  T
   3   -127.9266523 -0.136508E-05  0.282E-03    9.76       4.1  T
   4   -127.9266524 -0.555171E-07  0.930E-04    9.76      12.4  T
   5   -127.9266524 -0.273766E-08  0.106E-04    9.76     108.6  T
     SCC iter.                  ...        0 min,  0.024 sec
     gradient                   ...        0 min,  0.013 sec
 * total energy  :  -127.1746723 Eh     change       -0.1305969E-02 Eh
   gradient norm :     0.0111084 Eh/α   predicted    -0.1046195E-02 ( -19.89%)
   displ. norm   :     0.1923543 α      lambda       -0.6219588E-03
   maximum displ.:     0.0489049 α      in ANC's #28, #20, #14, ...

........................................................................
.............................. CYCLE   45 ..............................
........................................................................
   1   -127.9271834 -0.127927E+03  0.300E-02    9.76       0.0  T
   2   -127.9271852 -0.178440E-05  0.181E-02    9.75       1.0  T
   3   -127.9271857 -0.521934E-06  0.236E-03    9.75       4.9  T
   4   -127.9271858 -0.594267E-07  0.657E-04    9.75      17.6  T
   5   -127.9271858 -0.139303E-08  0.769E-05    9.75     150.1  T
     SCC iter.                  ...        0 min,  0.024 sec
     gradient                   ...        0 min,  0.013 sec
 * total energy  :  -127.1750634 Eh     change       -0.3911604E-03 Eh
   gradient norm :     0.0064600 Eh/α   predicted    -0.3226631E-03 ( -17.51%)
   displ. norm   :     0.2027556 α      lambda       -0.2948097E-03
   maximum displ.:     0.0636952 α      in ANC's #14, #20, #28, ...

........................................................................
.............................. CYCLE   46 ..............................
........................................................................
   1   -127.9275187 -0.127928E+03  0.216E-02    9.75       0.0  T
   2   -127.9275193 -0.669774E-06  0.131E-02    9.75       1.0  T
   3   -127.9275195 -0.212675E-06  0.137E-03    9.75       8.4  T
   4   -127.9275196 -0.225387E-07  0.400E-04    9.75      28.9  T
   5   -127.9275196 -0.542286E-09  0.561E-05    9.75     205.7  T
     SCC iter.                  ...        0 min,  0.024 sec
     gradient                   ...        0 min,  0.013 sec
 * total energy  :  -127.1752938 Eh     change       -0.2303830E-03 Eh
   gradient norm :     0.0076225 Eh/α   predicted    -0.1534702E-03 ( -33.38%)
   displ. norm   :     0.3963100 α      lambda       -0.4440052E-03
   maximum displ.:     0.1219730 α      in ANC's #14, #10, #20, ...

........................................................................
.............................. CYCLE   47 ..............................
........................................................................
   1   -127.9274150 -0.127927E+03  0.363E-02    9.74       0.0  T
   2   -127.9274167 -0.171177E-05  0.221E-02    9.74       1.0  T
   3   -127.9274173 -0.589190E-06  0.218E-03    9.74       5.3  T
   4   -127.9274174 -0.552018E-07  0.656E-04    9.74      17.6  T
   5   -127.9274174 -0.151016E-08  0.952E-05    9.74     121.3  T
     SCC iter.                  ...        0 min,  0.023 sec
     gradient                   ...        0 min,  0.013 sec
 * total energy  :  -127.1756116 Eh     change       -0.3177641E-03 Eh
   gradient norm :     0.0063132 Eh/α   predicted    -0.2568805E-03 ( -19.16%)
   displ. norm   :     0.3958709 α      lambda       -0.3298828E-03
   maximum displ.:     0.1233622 α      in ANC's #14, #10, #22, ...

........................................................................
.............................. CYCLE   48 ..............................
........................................................................
   1   -127.9275938 -0.127928E+03  0.327E-02    9.74       0.0  T
   2   -127.9275952 -0.142345E-05  0.200E-02    9.74       1.0  T
   3   -127.9275958 -0.528587E-06  0.199E-03    9.75       5.8  T
   4   -127.9275958 -0.427065E-07  0.592E-04    9.75      19.5  T
   5   -127.9275958 -0.104528E-08  0.782E-05    9.75     147.6  T
     SCC iter.                  ...        0 min,  0.023 sec
     gradient                   ...        0 min,  0.013 sec
 * total energy  :  -127.1758624 Eh     change       -0.2507764E-03 Eh
   gradient norm :     0.0062257 Eh/α   predicted    -0.1908230E-03 ( -23.91%)
   displ. norm   :     0.4580306 α      lambda       -0.3639148E-03
   maximum displ.:     0.1508023 α      in ANC's #10, #14, #3, ...

........................................................................
.............................. CYCLE   49 ..............................
........................................................................
   1   -127.9282814 -0.127928E+03  0.382E-02    9.75       0.0  T
   2   -127.9282837 -0.229735E-05  0.234E-02    9.75       1.0  T
   3   -127.9282844 -0.691837E-06  0.255E-03    9.76       4.5  T
   4   -127.9282845 -0.769951E-07  0.654E-04    9.76      17.7  T
   5   -127.9282845 -0.901608E-09  0.783E-05    9.76     147.5  T
     SCC iter.                  ...        0 min,  0.023 sec
     gradient                   ...        0 min,  0.013 sec
 * total energy  :  -127.1761485 Eh     change       -0.2861407E-03 Eh
   gradient norm :     0.0090170 Eh/α   predicted    -0.2201336E-03 ( -23.07%)
   displ. norm   :     0.5414279 α      lambda       -0.4573555E-03
   maximum displ.:     0.1812951 α      in ANC's #14, #10, #3, ...

........................................................................
.............................. CYCLE   50 ..............................
........................................................................
   1   -127.9276120 -0.127928E+03  0.479E-02    9.75       0.0  T
   2   -127.9276160 -0.401580E-05  0.293E-02    9.76       1.0  T
   3   -127.9276172 -0.118232E-05  0.341E-03    9.77       3.4  T
   4   -127.9276173 -0.136265E-06  0.869E-04    9.77      13.3  T
   5   -127.9276173 -0.173890E-08  0.107E-04    9.77     108.1  T
     SCC iter.                  ...        0 min,  0.024 sec
     gradient                   ...        0 min,  0.013 sec
 * total energy  :  -127.1764836 Eh     change       -0.3350536E-03 Eh
   gradient norm :     0.0100520 Eh/α   predicted    -0.2957403E-03 ( -11.73%)
   displ. norm   :     0.4992206 α      lambda       -0.5634653E-03
   maximum displ.:     0.1708966 α      in ANC's #14, #10, #3, ...

........................................................................
.............................. CYCLE   51 ..............................
........................................................................
   1   -127.9303157 -0.127930E+03  0.453E-02    9.78       0.0  T
   2   -127.9303186 -0.295039E-05  0.277E-02    9.79       1.0  T
   3   -127.9303195 -0.904893E-06  0.286E-03    9.79       4.0  T
   4   -127.9303196 -0.970459E-07  0.815E-04    9.79      14.2  T
   5   -127.9303196 -0.167013E-08  0.105E-04    9.79     109.8  T
     SCC iter.                  ...        0 min,  0.023 sec
     gradient                   ...        0 min,  0.013 sec
 * total energy  :  -127.1768352 Eh     change       -0.3516618E-03 Eh
   gradient norm :     0.0131374 Eh/α   predicted    -0.3519602E-03 (   0.08%)
   displ. norm   :     0.4666032 α      lambda       -0.5438625E-03
   maximum displ.:     0.1667800 α      in ANC's #14, #10, #3, ...

........................................................................
.............................. CYCLE   52 ..............................
........................................................................
   1   -127.9275173 -0.127928E+03  0.513E-02    9.78       0.0  T
   2   -127.9275204 -0.310576E-05  0.315E-02    9.78       1.0  T
   3   -127.9275217 -0.122893E-05  0.287E-03    9.78       4.0  T
   4   -127.9275218 -0.799453E-07  0.830E-04    9.78      13.9  T
   5   -127.9275218 -0.158327E-08  0.106E-04    9.78     109.0  T
     SCC iter.                  ...        0 min,  0.023 sec
     gradient                   ...        0 min,  0.013 sec
 * total energy  :  -127.1771543 Eh     change       -0.3191015E-03 Eh
   gradient norm :     0.0176570 Eh/α   predicted    -0.3311424E-03 (   3.77%)
   displ. norm   :     0.3861705 α      lambda       -0.9138870E-03
   maximum displ.:     0.1162928 α      in ANC's #14, #3, #2, ...

........................................................................
.............................. CYCLE   53 ..............................
........................................................................
   1   -127.9314856 -0.127931E+03  0.438E-02    9.78       0.0  T
   2   -127.9314917 -0.605330E-05  0.257E-02    9.77       1.0  T
   3   -127.9314930 -0.136211E-05  0.461E-03    9.76       2.5  T
   4   -127.9314932 -0.175017E-06  0.103E-03    9.77      11.2  T
   5   -127.9314932 -0.285409E-08  0.137E-04    9.77      84.1  T
   6   -127.9314932 -0.915463E-10  0.529E-05    9.77     218.4  T
     SCC iter.                  ...        0 min,  0.027 sec
     gradient                   ...        0 min,  0.013 sec
 * total energy  :  -127.1773745 Eh     change       -0.2201388E-03 Eh
   gradient norm :     0.0201258 Eh/α   predicted    -0.5250923E-03 ( 138.53%)
   displ. norm   :     0.3668133 α      lambda       -0.1010893E-02
   maximum displ.:     0.1178018 α      in ANC's #3, #1, #14, ...

........................................................................
.............................. CYCLE   54 ..............................
........................................................................
   1   -127.9267732 -0.127927E+03  0.549E-02    9.75       0.0  T
   2   -127.9267800 -0.677072E-05  0.331E-02    9.75       1.0  T
   3   -127.9267820 -0.205441E-05  0.480E-03    9.74       2.4  T
   4   -127.9267822 -0.212242E-06  0.118E-03    9.74       9.8  T
   5   -127.9267822 -0.322802E-08  0.135E-04    9.74      85.8  T
   6   -127.9267822 -0.123563E-09  0.562E-05    9.74     205.6  T
     SCC iter.                  ...        0 min,  0.028 sec
     gradient                   ...        0 min,  0.013 sec
 * total energy  :  -127.1778429 Eh     change       -0.4684641E-03 Eh
   gradient norm :     0.0168755 Eh/α   predicted    -0.5734586E-03 (  22.41%)
   displ. norm   :     0.2782760 α      lambda       -0.6649724E-03
   maximum displ.:     0.0882947 α      in ANC's #14, #9, #10, ...

........................................................................
.............................. CYCLE   55 ..............................
........................................................................
   1   -127.9263327 -0.127926E+03  0.341E-02    9.74       0.0  T
   2   -127.9263343 -0.163607E-05  0.207E-02    9.74       1.0  T
   3   -127.9263348 -0.524965E-06  0.221E-03    9.74       5.2  T
   4   -127.9263349 -0.517670E-07  0.657E-04    9.74      17.6  T
   5   -127.9263349 -0.122456E-08  0.783E-05    9.74     147.6  T
     SCC iter.                  ...        0 min,  0.024 sec
     gradient                   ...        0 min,  0.013 sec
 * total energy  :  -127.1782069 Eh     change       -0.3639740E-03 Eh
   gradient norm :     0.0132606 Eh/α   predicted    -0.3582337E-03 (  -1.58%)
   displ. norm   :     0.3520534 α      lambda       -0.4594137E-03
   maximum displ.:     0.1198135 α      in ANC's #3, #9, #2, ...

........................................................................
.............................. CYCLE   56 ..............................
........................................................................
   1   -127.9273457 -0.127927E+03  0.288E-02    9.75       0.0  T
   2   -127.9273471 -0.137684E-05  0.176E-02    9.74       1.0  T
   3   -127.9273475 -0.454714E-06  0.196E-03    9.74       5.9  T
   4   -127.9273476 -0.432891E-07  0.588E-04    9.74      19.6  T
   5   -127.9273476 -0.933582E-09  0.735E-05    9.74     157.0  T
     SCC iter.                  ...        0 min,  0.024 sec
     gradient                   ...        0 min,  0.013 sec
 * total energy  :  -127.1785407 Eh     change       -0.3337590E-03 Eh
   gradient norm :     0.0101792 Eh/α   predicted    -0.2581778E-03 ( -22.65%)
   displ. norm   :     0.4923539 α      lambda       -0.7587039E-03
   maximum displ.:     0.1533624 α      in ANC's #2, #9, #3, ...

........................................................................
.............................. CYCLE   57 ..............................
........................................................................
   1   -127.9344912 -0.127934E+03  0.488E-02    9.77       0.0  T
   2   -127.9344974 -0.620596E-05  0.294E-02    9.75       1.0  T
   3   -127.9344988 -0.136205E-05  0.438E-03    9.74       2.6  T
   4   -127.9344990 -0.200288E-06  0.949E-04    9.74      12.2  T
   5   -127.9344990 -0.235327E-08  0.140E-04    9.74      82.8  T
     SCC iter.                  ...        0 min,  0.024 sec
     gradient                   ...        0 min,  0.013 sec
 * total energy  :  -127.1787327 Eh     change       -0.1920562E-03 Eh
   gradient norm :     0.0165531 Eh/α   predicted    -0.4713096E-03 ( 145.40%)
   displ. norm   :     0.4498931 α      lambda       -0.7807179E-03
   maximum displ.:     0.1700575 α      in ANC's #10, #3, #2, ...

........................................................................
.............................. CYCLE   58 ..............................
........................................................................
   1   -127.9257605 -0.127926E+03  0.527E-02    9.69       0.0  T
   2   -127.9257654 -0.489188E-05  0.319E-02    9.69       1.0  T
   3   -127.9257671 -0.167914E-05  0.393E-03    9.68       2.9  T
   4   -127.9257672 -0.155019E-06  0.117E-03    9.68       9.9  T
   5   -127.9257672 -0.427467E-08  0.130E-04    9.68      88.7  T
   6   -127.9257672 -0.101323E-09  0.567E-05    9.68     203.8  T
     SCC iter.                  ...        0 min,  0.028 sec
     gradient                   ...        0 min,  0.013 sec
 * total energy  :  -127.1790541 Eh     change       -0.3214385E-03 Eh
   gradient norm :     0.0146597 Eh/α   predicted    -0.4693727E-03 (  46.02%)
   displ. norm   :     0.1552370 α      lambda       -0.4580861E-03
   maximum displ.:     0.0512954 α      in ANC's #14, #37, #1, ...

........................................................................
.............................. CYCLE   59 ..............................
........................................................................
   1   -127.9284567 -0.127928E+03  0.326E-02    9.68       0.0  T
   2   -127.9284591 -0.249502E-05  0.200E-02    9.69       1.0  T
   3   -127.9284602 -0.107749E-05  0.289E-03    9.69       4.0  T
   4   -127.9284603 -0.669982E-07  0.918E-04    9.69      12.6  T
   5   -127.9284603 -0.296593E-08  0.115E-04    9.69     100.2  T
     SCC iter.                  ...        0 min,  0.024 sec
     gradient                   ...        0 min,  0.013 sec
 * total energy  :  -127.1790401 Eh     change        0.1400825E-04 Eh
   gradient norm :     0.0185817 Eh/α   predicted    -0.2345670E-03 (*******%)
   displ. norm   :     0.1743186 α      lambda       -0.6120091E-03
   maximum displ.:     0.0561899 α      in ANC's #2, #37, #38, ...

........................................................................
.............................. CYCLE   60 ..............................
........................................................................
   1   -127.9303728 -0.127930E+03  0.295E-02    9.71       0.0  T
   2   -127.9303743 -0.152462E-05  0.179E-02    9.72       1.0  T
   3   -127.9303751 -0.806916E-06  0.229E-03    9.72       5.1  T
   4   -127.9303752 -0.343089E-07  0.759E-04    9.72      15.2  T
   5   -127.9303752 -0.264134E-08  0.873E-05    9.72     132.3  T
     SCC iter.                  ...        0 min,  0.024 sec
     gradient                   ...        0 min,  0.013 sec
 * total energy  :  -127.1792217 Eh     change       -0.1815133E-03 Eh
   gradient norm :     0.0144192 Eh/α   predicted    -0.3153035E-03 (  73.71%)
   displ. norm   :     0.2358796 α      lambda       -0.5182071E-03
   maximum displ.:     0.0934332 α      in ANC's #10, #2, #9, ...

........................................................................
.............................. CYCLE   61 ..............................
........................................................................
   1   -127.9280806 -0.127928E+03  0.413E-02    9.72       0.0  T
   2   -127.9280839 -0.329441E-05  0.251E-02    9.72       1.0  T
   3   -127.9280852 -0.133305E-05  0.338E-03    9.72       3.4  T
   4   -127.9280853 -0.932297E-07  0.101E-03    9.73      11.5  T
   5   -127.9280853 -0.297571E-08  0.109E-04    9.72     105.8  T
   6   -127.9280853 -0.754738E-10  0.481E-05    9.72     240.1  T
     SCC iter.                  ...        0 min,  0.029 sec
     gradient                   ...        0 min,  0.013 sec
 * total energy  :  -127.1792421 Eh     change       -0.2042374E-04 Eh
   gradient norm :     0.0166376 Eh/α   predicted    -0.2735211E-03 (1239.23%)
   displ. norm   :     0.1413737 α      lambda       -0.4788977E-03
   maximum displ.:     0.0446710 α      in ANC's #14, #17, #20, ...

........................................................................
.............................. CYCLE   62 ..............................
........................................................................
   1   -127.9295686 -0.127930E+03  0.260E-02    9.70       0.0  T
   2   -127.9295703 -0.171582E-05  0.159E-02    9.69       1.0  T
   3   -127.9295709 -0.647552E-06  0.236E-03    9.67       4.9  T
   4   -127.9295710 -0.512135E-07  0.725E-04    9.67      15.9  T
   5   -127.9295710 -0.153970E-08  0.803E-05    9.67     143.8  T
     SCC iter.                  ...        0 min,  0.024 sec
     gradient                   ...        0 min,  0.013 sec
 * total energy  :  -127.1794560 Eh     change       -0.2139525E-03 Eh
   gradient norm :     0.0068691 Eh/α   predicted    -0.2442323E-03 (  14.15%)
   displ. norm   :     0.2718203 α      lambda       -0.2382977E-03
   maximum displ.:     0.1118530 α      in ANC's #10, #3, #2, ...

........................................................................
.............................. CYCLE   63 ..............................
........................................................................
   1   -127.9277362 -0.127928E+03  0.292E-02    9.69       0.0  T
   2   -127.9277388 -0.253011E-05  0.175E-02    9.71       1.0  T
   3   -127.9277394 -0.600996E-06  0.292E-03    9.72       4.0  T
   4   -127.9277394 -0.790376E-07  0.621E-04    9.72      18.6  T
   5   -127.9277394 -0.959062E-09  0.769E-05    9.72     150.3  T
     SCC iter.                  ...        0 min,  0.024 sec
     gradient                   ...        0 min,  0.013 sec
 * total energy  :  -127.1794534 Eh     change        0.2676578E-05 Eh
   gradient norm :     0.0122399 Eh/α   predicted    -0.1279614E-03 (*******%)
   displ. norm   :     0.1804022 α      lambda       -0.3176181E-03
   maximum displ.:     0.0689512 α      in ANC's #14, #1, #17, ...

........................................................................
.............................. CYCLE   64 ..............................
........................................................................
   1   -127.9306473 -0.127931E+03  0.248E-02    9.72       0.0  T
   2   -127.9306497 -0.234285E-05  0.143E-02    9.71       1.0  T
   3   -127.9306502 -0.503957E-06  0.292E-03    9.71       4.0  T
   4   -127.9306502 -0.628272E-07  0.580E-04    9.71      19.9  T
   5   -127.9306502 -0.965116E-09  0.818E-05    9.71     141.2  T
     SCC iter.                  ...        0 min,  0.024 sec
     gradient                   ...        0 min,  0.013 sec
 * total energy  :  -127.1795392 Eh     change       -0.8584617E-04 Eh
   gradient norm :     0.0104445 Eh/α   predicted    -0.1639775E-03 (  91.01%)
   displ. norm   :     0.1902467 α      lambda       -0.3501966E-03
   maximum displ.:     0.0517337 α      in ANC's #32, #3, #10, ...

........................................................................
.............................. CYCLE   65 ..............................
........................................................................
   1   -127.9301217 -0.127930E+03  0.331E-02    9.70       0.0  T
   2   -127.9301241 -0.246704E-05  0.201E-02    9.69       1.0  T
   3   -127.9301249 -0.821994E-06  0.286E-03    9.68       4.0  T
   4   -127.9301250 -0.769874E-07  0.787E-04    9.68      14.7  T
   5   -127.9301250 -0.172732E-08  0.872E-05    9.68     132.4  T
     SCC iter.                  ...        0 min,  0.023 sec
     gradient                   ...        0 min,  0.013 sec
 * total energy  :  -127.1795845 Eh     change       -0.4526140E-04 Eh
   gradient norm :     0.0119809 Eh/α   predicted    -0.1814366E-03 ( 300.86%)
   displ. norm   :     0.1095521 α      lambda       -0.2648583E-03
   maximum displ.:     0.0518691 α      in ANC's #10, #9, #15, ...

........................................................................
.............................. CYCLE   66 ..............................
........................................................................
   1   -127.9305989 -0.127931E+03  0.229E-02    9.69       0.0  T
   2   -127.9305999 -0.106452E-05  0.138E-02    9.69       1.0  T
   3   -127.9306003 -0.380820E-06  0.197E-03    9.69       5.9  T
   4   -127.9306003 -0.329756E-07  0.556E-04    9.69      20.8  T
   5   -127.9306003 -0.984983E-09  0.583E-05    9.69     197.9  T
     SCC iter.                  ...        0 min,  0.023 sec
     gradient                   ...        0 min,  0.013 sec
 * total energy  :  -127.1796728 Eh     change       -0.8831093E-04 Eh
   gradient norm :     0.0088653 Eh/α   predicted    -0.1340195E-03 (  51.76%)
   displ. norm   :     0.1690604 α      lambda       -0.2225137E-03
   maximum displ.:     0.0684426 α      in ANC's #10, #3, #9, ...
 * RMSD in coord.:     0.6306468 α      energy gain  -0.6300849E-02 Eh

generating ANC from model Hessian ...
Using Lindh-Hessian (1995)
 Shifting diagonal of input Hessian by   1.015338126268470E-002
 Lowest  eigenvalues of input Hessian
    0.010000    0.010077    0.010108    0.010151    0.000000    0.000000
    0.000000    0.000000    0.000000    0.000000    0.010203    0.010224
    0.010263    0.010346    0.010390    0.010443    0.010485    0.010541
 Highest eigenvalues
    1.408330    1.408526    1.414845    1.415984    1.417534    1.425481
 

........................................................................
[...]
    58   8 o       60   1 h                                       0.9887104
    61   8 o       62   1 h                                       0.9804985
    61   8 o       63   1 h                                       0.9821916
    64   8 o       65   1 h                                       0.9763335
    64   8 o       66   1 h                                       0.9696587
    67   8 o       68   1 h                                       0.9821068
    67   8 o       69   1 h                                       0.9763128
    70   8 o       71   1 h                                       0.9811842
    70   8 o       72   1 h                                       0.9725070
    73   8 o       74   1 h                                       0.9584514
    73   8 o       75   1 h                                       0.9773316

 * 1 distinct bonds (by element types)

   Z      Z             #   av. dist./Å        max./Å        min./Å
   1 H    8 O          49     0.9748169     0.9991759     0.9563660

           -------------------------------------------------
          |               Frequency Printout                |
           -------------------------------------------------
 projected vibrational frequencies (cm⁻¹)
eigval :       -0.00    -0.00    -0.00    -0.00     0.00     0.00
eigval :       26.75    31.18    33.39    39.22    41.79    46.24
eigval :       48.80    49.39    52.53    53.47    55.97    57.39
eigval :       59.03    61.94    62.34    64.76    66.75    69.71
eigval :       72.47    73.72    77.43    79.17    80.68    85.19
eigval :       90.53    92.37    93.61   103.95   120.67   136.71
eigval :      148.74   151.10   152.77   156.40   159.35   166.01
eigval :      169.10   174.04   185.07   186.89   191.52   202.27
eigval :      204.69   210.16   216.42   222.49   223.67   227.70
eigval :      233.04   234.80   244.97   248.29   251.93   255.90
eigval :      259.86   263.52   265.79   269.05   275.12   285.50
eigval :      307.99   310.76   315.24   319.35   329.15   336.46
eigval :      336.93   342.72   349.32   349.73   358.76   362.86
eigval :      366.53   372.81   373.65   388.53   394.58   399.54
eigval :      407.65   410.24   426.93   429.05   435.09   460.20
eigval :      470.60   473.55   475.16   485.70   492.55   504.32
eigval :      507.97   520.62   520.91   524.85   529.50   541.60
eigval :      544.66   554.40   559.45   567.97   572.84   579.57
eigval :      580.76   586.60   593.43   598.91   602.83   612.50
eigval :      619.81   629.73   637.18   644.32   649.01   657.35
eigval :      665.96   674.76   677.92   679.48   685.67   692.03
eigval :      704.99   710.22   718.95   727.32   742.35   758.60
eigval :      761.36   774.70   781.78   795.56   813.78   821.35
eigval :      827.96   850.35   856.35   882.22   897.87   916.20
eigval :      918.36   926.81   929.67   956.55   970.97  1005.11
eigval :     1492.10  1502.19  1506.94  1510.14  1514.11  1518.57
eigval :     1520.50  1522.05  1524.89  1527.42  1528.68  1531.58
eigval :     1532.76  1536.25  1537.87  1542.40  1547.22  1549.43
eigval :     1553.80  1559.05  1562.82  1565.82  1572.35  1575.06
eigval :     1580.29  2803.86  2888.32  2899.49  2936.25  2975.74
eigval :     2991.33  3030.71  3083.90  3113.97  3139.38  3157.12
eigval :     3176.60  3190.20  3200.45  3229.61  3231.74  3237.10
eigval :     3290.58  3292.65  3296.59  3317.86  3333.05  3342.37
eigval :     3355.47  3358.38  3363.73  3373.22  3378.67  3393.39
eigval :     3411.22  3419.87  3429.20  3440.86  3441.99  3453.51
eigval :     3455.37  3458.04  3468.67  3478.52  3490.12  3516.33
eigval :     3571.20  3597.10  3662.82  3677.24  3678.05  3687.95
eigval :     3688.14  3688.77  3690.59
 reduced masses (amu)
   1: 14.32   2: 14.31   3: 14.29   4: 14.31   5: 14.32   6: 14.32   7: 14.27   8: 14.29
   9: 14.23  10: 14.20  11: 14.30  12: 14.23  13: 14.39  14: 14.34  15: 14.48  16: 14.25
  17: 14.40  18: 14.39  19: 14.40  20: 14.37  21: 14.44  22: 14.33  23: 14.55  24: 14.44
  25: 14.41  26: 14.55  27: 14.51  28: 14.29  29: 14.52  30: 14.47  31: 14.65  32: 14.43
  33: 14.23  34: 14.20  35: 13.76  36: 13.17  37:  9.08  38: 10.98  39: 13.25  40: 13.92
  41: 10.79  42: 13.80  43: 10.35  44: 13.48  45: 12.66  46: 13.07  47: 11.53  48: 12.62
  49: 13.60  50: 13.94  51: 13.44  52: 12.32  53: 13.04  54: 12.83  55: 10.74  56: 11.25
  57:  8.14  58: 11.52  59: 12.73  60: 10.82  61: 11.94  62: 10.34  63: 12.48  64: 11.75
  65: 12.44  66: 12.20  67: 12.34  68: 12.97  69: 12.36  70: 12.91  71: 11.20  72: 12.81
  73: 12.98  74: 13.20  75: 12.01  76: 12.05  77:  9.53  78:  8.47  79: 12.55  80: 11.24
  81:  8.91  82: 12.68  83:  5.26  84:  8.86  85:  2.39  86:  4.35  87:  3.05  88:  2.74
  89:  2.33  90:  1.71  91:  1.73  92:  1.67  93:  1.77  94:  1.98  95:  1.72  96:  1.81
  97:  1.74  98:  1.92  99:  1.81 100:  1.73 101:  1.96 102:  2.13 103:  1.87 104:  1.95
 105:  2.03 106:  1.81 107:  1.86 108:  1.97 109:  1.81 110:  1.54 111:  1.63 112:  1.80
 113:  1.84 114:  1.81 115:  1.75 116:  1.67 117:  1.89 118:  1.99 119:  1.88 120:  1.73
 121:  1.95 122:  1.92 123:  1.76 124:  1.84 125:  1.64 126:  1.93 127:  1.95 128:  1.84
 129:  1.79 130:  1.85 131:  2.01 132:  2.02 133:  2.09 134:  1.83 135:  2.00 136:  2.11
 137:  2.03 138:  2.11 139:  1.74 140:  1.80 141:  2.04 142:  1.95 143:  1.95 144:  1.80
 145:  1.94 146:  1.98 147:  2.01 148:  1.86 149:  1.79 150:  1.78 151:  2.01 152:  2.05
 153:  2.05 154:  2.02 155:  2.03 156:  1.99 157:  2.01 158:  2.00 159:  2.01 160:  2.05
 161:  2.01 162:  2.05 163:  2.05 164:  2.03 165:  2.03 166:  2.06 167:  2.05 168:  2.03
 169:  2.02 170:  2.02 171:  2.03 172:  2.02 173:  2.05 174:  2.08 175:  2.03 176:  1.90
 177:  1.91 178:  1.90 179:  1.89 180:  1.89 181:  1.89 182:  2.02 183:  1.98 184:  1.93
 185:  2.05 186:  2.07 187:  2.05 188:  1.99 189:  1.92 190:  1.94 191:  1.98 192:  2.00
 193:  1.83 194:  1.82 195:  1.76 196:  1.89 197:  1.92 198:  1.74 199:  2.08 200:  1.67
 201:  1.86 202:  1.88 203:  1.91 204:  1.82 205:  1.71 206:  1.72 207:  1.76 208:  1.81
 209:  2.00 210:  1.76 211:  1.76 212:  1.79 213:  1.76 214:  1.62 215:  1.58 216:  1.67
 217:  1.80 218:  1.83 219:  1.83 220:  1.84 221:  1.84 222:  1.84 223:  1.84 224:  1.84
 225:  1.84
 IR intensities (km·mol⁻¹)
   1:  0.12   2:  0.04   3:  0.16   4:  0.04   5:  0.25   6:  0.02   7:  2.17   8:  0.88
   9:  1.72  10:  0.87  11:  0.06  12:  1.50  13:  0.71  14:  1.24  15:  0.09  16:  0.62
  17:  1.75  18:  0.39  19:  1.11  20:  0.36  21:  1.35  22:  0.70  23:  1.27  24:  0.76
  25:  1.84  26:  0.71  27:  1.01  28:  0.88  29:  2.88  30:  0.84  31:  2.36  32:  0.95
  33:  1.33  34:  6.71  35:  3.94  36:  2.91  37: 18.42  38:  5.69  39:  3.99  40:  5.55
  41:  5.52  42:  4.47  43: 15.41  44:  7.32  45:  0.99  46: 21.47  47:  2.69  48:  2.37
  49: 14.65  50: 11.25  51: 36.39  52: 34.46  53:  5.20  54: 14.53  55: 13.68  56: 31.50
  57:  4.83  58: 26.72  59: 75.30  60: 24.71  61: 76.82  62: 26.37  63: 24.29  64: 18.76
  65: 81.17  66: 50.99  67: 20.37  68: 14.54  69: 43.45  70:  6.16  71: 19.45  72:100.58
  73: 39.25  74: 40.73  75:  2.54  76:  5.63  77: 30.65  78: 95.86  79: 34.09  80: 57.49
  81: 58.57  82: 19.26  83: 39.88  84: 11.71  85: 54.27  86: 61.81  87: 34.37  88: 36.61
  89: 40.99  90: 43.35  91:  2.09  92:  3.51  93: 33.05  94: 11.08  95: 57.98  96:  2.48
  97: 63.11  98:129.70  99: 17.94 100: 55.63 101: 52.26 102: 83.23 103: 41.31 104: 33.15
 105: 51.21 106:181.90 107: 84.26 108: 28.03 109: 74.74 110: 12.47 111: 60.05 112: 30.18
 113: 10.79 114: 15.58 115: 35.18 116:110.68 117: 73.30 118:197.46 119:174.01 120:  8.51
 121:126.44 122:154.50 123:101.38 124: 21.43 125:  7.93 126:426.22 127:685.62 128:240.32
 129: 91.36 130: 77.89 131:576.51 132:288.09 133:189.15 134:370.98 135:231.60 136:262.23
 137:282.03 138:971.23 139: 59.85 140: 66.09 141:699.36 142:314.07 143:363.23 144: 88.34
 145: 24.09 146:349.71 147:180.59 148:253.11 149:743.97 150: 94.84 151: 42.33 152: 94.69
 153:125.45 154:260.99 155: 12.95 156: 75.32 157: 39.07 158:142.73 159: 95.47 160:459.37
 161:175.72 162:287.49 163:287.58 164:415.29 165:529.02 166:243.14 167:240.01 168: 87.74
 169: 26.67 170:148.53 171:103.40 172:125.56 173: 45.46 174:525.41 175:239.28 176:809.87
 177:****** 178:****** 179:332.14 180:****** 181:****** 182:775.70 183:921.12 184:******
 185:736.91 186:393.97 187:717.94 188:839.02 189: 48.76 190:****** 191:****** 192:******
 193:989.46 194:530.13 195:788.43 196: 89.53 197:379.27 198:395.65 199:414.68 200: 76.09
 201:****** 202:430.28 203:614.67 204:126.80 205:660.29 206:204.72 207:336.18 208: 94.21
 209:420.00 210:359.51 211: 48.23 212:526.43 213:402.34 214: 17.58 215:114.92 216:202.88
 217: 72.03 218: 62.46 219: 14.33 220: 20.73 221:  8.44 222: 10.12 223:  6.57 224: 12.94
 225:  8.85
 Raman intensities (amu)
   1:  0.00   2:  0.00   3:  0.00   4:  0.00   5:  0.00   6:  0.00   7:  0.00   8:  0.00
   9:  0.00  10:  0.00  11:  0.00  12:  0.00  13:  0.00  14:  0.00  15:  0.00  16:  0.00
  17:  0.00  18:  0.00  19:  0.00  20:  0.00  21:  0.00  22:  0.00  23:  0.00  24:  0.00
  25:  0.00  26:  0.00  27:  0.00  28:  0.00  29:  0.00  30:  0.00  31:  0.00  32:  0.00
  33:  0.00  34:  0.00  35:  0.00  36:  0.00  37:  0.00  38:  0.00  39:  0.00  40:  0.00
  41:  0.00  42:  0.00  43:  0.00  44:  0.00  45:  0.00  46:  0.00  47:  0.00  48:  0.00
  49:  0.00  50:  0.00  51:  0.00  52:  0.00  53:  0.00  54:  0.00  55:  0.00  56:  0.00
  57:  0.00  58:  0.00  59:  0.00  60:  0.00  61:  0.00  62:  0.00  63:  0.00  64:  0.00
  65:  0.00  66:  0.00  67:  0.00  68:  0.00  69:  0.00  70:  0.00  71:  0.00  72:  0.00
  73:  0.00  74:  0.00  75:  0.00  76:  0.00  77:  0.00  78:  0.00  79:  0.00  80:  0.00
  81:  0.00  82:  0.00  83:  0.00  84:  0.00  85:  0.00  86:  0.00  87:  0.00  88:  0.00
  89:  0.00  90:  0.00  91:  0.00  92:  0.00  93:  0.00  94:  0.00  95:  0.00  96:  0.00
  97:  0.00  98:  0.00  99:  0.00 100:  0.00 101:  0.00 102:  0.00 103:  0.00 104:  0.00
 105:  0.00 106:  0.00 107:  0.00 108:  0.00 109:  0.00 110:  0.00 111:  0.00 112:  0.00
 113:  0.00 114:  0.00 115:  0.00 116:  0.00 117:  0.00 118:  0.00 119:  0.00 120:  0.00
 121:  0.00 122:  0.00 123:  0.00 124:  0.00 125:  0.00 126:  0.00 127:  0.00 128:  0.00
 129:  0.00 130:  0.00 131:  0.00 132:  0.00 133:  0.00 134:  0.00 135:  0.00 136:  0.00
 137:  0.00 138:  0.00 139:  0.00 140:  0.00 141:  0.00 142:  0.00 143:  0.00 144:  0.00
 145:  0.00 146:  0.00 147:  0.00 148:  0.00 149:  0.00 150:  0.00 151:  0.00 152:  0.00
 153:  0.00 154:  0.00 155:  0.00 156:  0.00 157:  0.00 158:  0.00 159:  0.00 160:  0.00
 161:  0.00 162:  0.00 163:  0.00 164:  0.00 165:  0.00 166:  0.00 167:  0.00 168:  0.00
 169:  0.00 170:  0.00 171:  0.00 172:  0.00 173:  0.00 174:  0.00 175:  0.00 176:  0.00
 177:  0.00 178:  0.00 179:  0.00 180:  0.00 181:  0.00 182:  0.00 183:  0.00 184:  0.00
 185:  0.00 186:  0.00 187:  0.00 188:  0.00 189:  0.00 190:  0.00 191:  0.00 192:  0.00
 193:  0.00 194:  0.00 195:  0.00 196:  0.00 197:  0.00 198:  0.00 199:  0.00 200:  0.00
 201:  0.00 202:  0.00 203:  0.00 204:  0.00 205:  0.00 206:  0.00 207:  0.00 208:  0.00
 209:  0.00 210:  0.00 211:  0.00 212:  0.00 213:  0.00 214:  0.00 215:  0.00 216:  0.00
 217:  0.00 218:  0.00 219:  0.00 220:  0.00 221:  0.00 222:  0.00 223:  0.00 224:  0.00
 225:  0.00
 output can be read by thermo (or use thermo option).
 writing <g98.out> molden fake output.
 recommended (thermochemical) frequency scaling factor: 1.0
           -------------------------------------------------
          |             Thermodynamic Functions             |
           -------------------------------------------------

Molecule has no symmetry elements
It seems to be the C1 point group
c1  symmetry found (for desy threshold:  0.10E+00) used in thermo

          ...................................................
          :                      SETUP                      :
          :.................................................:
          :  # frequencies                         219      :
          :  # imaginary freq.                       0      :
          :  linear?                             false      :
          :  only rotor calc.                    false      :
          :  symmetry                               c1      :
          :  rotational number                       1      :
          :  scaling factor                  1.0000000      :
          :  rotor cutoff                   50.0000000 cm⁻¹ :
          :  imag. cutoff                  -20.0000000 cm⁻¹ :
          :.................................................:

    mode    ω/cm⁻¹     T·S(HO)/kcal·mol⁻¹    T·S(FR)/kcal·mol⁻¹   T·S(vib)
   ------------------------------------------------------------------------
       1     26.75    -1.80579 (  7.58%)    -1.24177 ( 92.42%)    -1.28450
       2     31.18    -1.71529 ( 13.13%)    -1.19645 ( 86.87%)    -1.26458
       3     33.39    -1.67470 ( 16.59%)    -1.17611 ( 83.41%)    -1.25884
       4     39.22    -1.57969 ( 27.45%)    -1.12849 ( 72.55%)    -1.25236
       5     41.79    -1.54209 ( 32.80%)    -1.10963 ( 67.20%)    -1.25149
       6     46.24    -1.48241 ( 42.25%)    -1.07968 ( 57.75%)    -1.24982
       7     48.80    -1.45065 ( 47.57%)    -1.06374 ( 52.43%)    -1.24779
       8     49.39    -1.44354 ( 48.77%)    -1.06017 ( 51.23%)    -1.24715
       9     52.53    -1.40721 ( 54.92%)    -1.04191 ( 45.08%)    -1.24253
      10     53.47    -1.39679 ( 56.66%)    -1.03667 ( 43.34%)    -1.24073
      11     55.97    -1.36983 ( 61.09%)    -1.02311 ( 38.91%)    -1.23493
      12     57.39    -1.35505 ( 63.45%)    -1.01568 ( 36.55%)    -1.23101
      13     59.03    -1.33845 ( 66.02%)    -1.00733 ( 33.98%)    -1.22595
      14     61.94    -1.31019 ( 70.19%)    -0.99309 ( 29.81%)    -1.21568
      15     62.34    -1.30642 ( 70.73%)    -0.99119 ( 29.27%)    -1.21415
      16     64.76    -1.28402 ( 73.78%)    -0.97991 ( 26.22%)    -1.20428
      17     66.75    -1.26627 ( 76.05%)    -0.97096 ( 23.95%)    -1.19555
      18     69.71    -1.24073 ( 79.08%)    -0.95807 ( 20.92%)    -1.18158
      19     72.47    -1.21798 ( 81.53%)    -0.94658 ( 18.47%)    -1.16784
      20     73.72    -1.20791 ( 82.54%)    -0.94150 ( 17.46%)    -1.16139
      21     77.43    -1.17919 ( 85.19%)    -0.92698 ( 14.81%)    -1.14183
      22     79.17    -1.16615 ( 86.28%)    -0.92038 ( 13.72%)    -1.13242
      23     80.68    -1.15509 ( 87.15%)    -0.91479 ( 12.85%)    -1.12421
      24     85.19    -1.12328 ( 89.39%)    -0.89867 ( 10.61%)    -1.09946
      25     90.53    -1.08785 ( 91.49%)    -0.88069 (  8.51%)    -1.07021
      26     92.37    -1.07609 ( 92.09%)    -0.87471 (  7.91%)    -1.06016
      27     93.61    -1.06832 ( 92.47%)    -0.87076 (  7.53%)    -1.05345
      28    103.95    -1.00741 ( 94.92%)    -0.83973 (  5.08%)    -0.99889
      29    120.67    -0.92117 ( 97.14%)    -0.79554 (  2.86%)    -0.91757
      30    136.71    -0.84953 ( 98.24%)    -0.75856 (  1.76%)    -0.84793
      31    148.74    -0.80152 ( 98.74%)    -0.73359 (  1.26%)    -0.80066
      32    151.10    -0.79259 ( 98.82%)    -0.72893 (  1.18%)    -0.79184
      33    152.77    -0.78637 ( 98.87%)    -0.72568 (  1.13%)    -0.78568
      34    156.40    -0.77305 ( 98.97%)    -0.71870 (  1.03%)    -0.77249
      35    159.35    -0.76253 ( 99.04%)    -0.71318 (  0.96%)    -0.76206
      36    166.01    -0.73947 ( 99.18%)    -0.70105 (  0.82%)    -0.73915
      37    169.10    -0.72912 ( 99.24%)    -0.69559 (  0.76%)    -0.72887
      38    174.04    -0.71300 ( 99.32%)    -0.68706 (  0.68%)    -0.71283
      39    185.07    -0.67879 ( 99.47%)    -0.66885 (  0.53%)    -0.67874
      40    186.89    -0.67337 ( 99.49%)    -0.66596 (  0.51%)    -0.67333
      41    191.52    -0.65981 ( 99.54%)    -0.65870 (  0.46%)    -0.65981
      42    202.27    -0.62979 ( 99.63%)    -0.64252 (  0.37%)    -0.62984
      43    204.69    -0.62329 ( 99.65%)    -0.63900 (  0.35%)    -0.62335
      44    210.16    -0.60890 ( 99.68%)    -0.63118 (  0.32%)    -0.60897
      45    216.42    -0.59298 ( 99.72%)    -0.62249 (  0.28%)    -0.59306
      46    222.49    -0.57804 ( 99.75%)    -0.61430 (  0.25%)    -0.57813
      47    223.67    -0.57519 ( 99.75%)    -0.61273 (  0.25%)    -0.57528
      48    227.70    -0.56559 ( 99.77%)    -0.60744 (  0.23%)    -0.56568
      49    233.04    -0.55319 ( 99.79%)    -0.60058 (  0.21%)    -0.55329
      50    234.80    -0.54917 ( 99.79%)    -0.59834 (  0.21%)    -0.54927
      51    244.97    -0.52669 ( 99.83%)    -0.58579 (  0.17%)    -0.52679
      52    248.29    -0.51957 ( 99.84%)    -0.58179 (  0.16%)    -0.51968
      53    251.93    -0.51193 ( 99.85%)    -0.57748 (  0.15%)    -0.51203
      54    255.90    -0.50374 ( 99.85%)    -0.57285 (  0.15%)    -0.50384
      55    259.86    -0.49574 ( 99.86%)    -0.56830 (  0.14%)    -0.49584
      56    263.52    -0.48847 ( 99.87%)    -0.56416 (  0.13%)    -0.48857
      57    265.79    -0.48403 ( 99.87%)    -0.56162 (  0.13%)    -0.48413
      58    269.05    -0.47773 ( 99.88%)    -0.55801 (  0.12%)    -0.47783
      59    275.12    -0.46626 ( 99.89%)    -0.55140 (  0.11%)    -0.46635
      60    285.50    -0.44737 ( 99.91%)    -0.54043 (  0.09%)    -0.44745
   ------------------------------------------------------------------------

   temp. (K)  partition function   enthalpy   heat capacity  entropy
                                   cal/mol     cal/K/mol   cal/K/mol   J/K/mol
 298.15  VIB  0.541E+27            35493.302    195.023    227.916
         ROT  0.228E+08              888.752      2.981     36.648
         INT  0.123E+35            36382.055    198.004    264.564
         TR   0.925E+28             1481.254      4.968     44.184
         TOT                       37863.3085   202.9724   308.7482  1291.8025

       T/K    H(0)-H(T)+PV         H(T)/Eh          T*S/Eh         G(T)/Eh
   ------------------------------------------------------------------------
    298.15    0.603390E-01    0.660665E+00    0.146696E+00    0.513969E+00
   ------------------------------------------------------------------------

         :::::::::::::::::::::::::::::::::::::::::::::::::::::
         ::                  THERMODYNAMIC                  ::
         :::::::::::::::::::::::::::::::::::::::::::::::::::::
         :: total free energy        -126.672524224937 Eh   ::
         ::.................................................::
         :: total energy             -127.186493381135 Eh   ::
         :: zero point energy           0.600326366722 Eh   ::
         :: G(RRHO) w/o ZPVE           -0.086357210524 Eh   ::
         :: G(RRHO) contrib.            0.513969156198 Eh   ::
         :::::::::::::::::::::::::::::::::::::::::::::::::::::

optimized geometry written to: xtbopt.coord


           -------------------------------------------------
          | TOTAL ENERGY             -127.186493381135 Eh   |
          | TOTAL ENTHALPY           -126.525827991616 Eh   |
          | TOTAL FREE ENERGY        -126.672524224937 Eh   |
          | GRADIENT NORM               0.000694072176 Eh/α |
          | HOMO-LUMO GAP               9.710501267588 eV   |
           -------------------------------------------------

------------------------------------------------------------------------
 * finished run on 2022/10/12 at 03:16:22.431     
------------------------------------------------------------------------
 total:
 * wall-time:     0 d,  0 h,  0 min, 13.441 sec
 *  cpu-time:     0 d,  0 h,  2 min, 13.721 sec
 * ratio c/w:     9.949 speedup
 SCF:
 * wall-time:     0 d,  0 h,  0 min,  0.071 sec
 *  cpu-time:     0 d,  0 h,  0 min,  0.698 sec
 * ratio c/w:     9.767 speedup
 ANC optimizer:
 * wall-time:     0 d,  0 h,  0 min,  8.172 sec
 *  cpu-time:     0 d,  0 h,  1 min, 21.494 sec
 * ratio c/w:     9.973 speedup
 analytical hessian:
 * wall-time:     0 d,  0 h,  0 min,  5.067 sec
 *  cpu-time:     0 d,  0 h,  0 min, 50.343 sec
 * ratio c/w:     9.935 speedup

