75
 energy: -127.126087093368 gnorm: 0.046801129093 xtb: 6.5.1 (579679a)
o            1.00630007213820       -4.31441592732099        0.47338509168077
h            0.61321466410788       -4.02369399739353        1.31127678034335
h            0.35672428980437       -4.07730204641986       -0.20906964550292
o           -3.58305477917494       -0.98233748666138        1.73286179633026
h           -2.96299147400242       -0.84896470363568        0.99696543780460
h           -3.17263033525252       -0.55388252631224        2.50372619161166
o           -0.77356814303058       -3.25388235621447       -1.38419333107880
h           -0.94661427557567       -2.39652798735723       -0.94537005469130
h           -1.66163334553873       -3.61261219383269       -1.51600487044937
o           -3.52507692285356       -3.47774092834538       -1.12709207383149
h           -4.22325191447886       -4.09675134531569       -1.34367791053744
h           -3.96792779596729       -2.60093769599243       -1.05313888149307
o           -3.07359435324080        3.43611060790791       -2.56497027352975
h           -2.99730212821906        3.69267479990445       -3.48381669958197
h           -2.19095033052983        3.54046117662622       -2.17383439451794
o            1.42651881675153       -2.65108960723991       -2.90058542159221
h            0.60901493939719       -2.86693960521352       -2.40585632149165
h            1.56627481068586       -3.36966540807229       -3.51821935798997
o           -0.47325684299286       -3.53973831919350        2.69652678482417
h           -0.44648029117683       -4.25966629970086        3.32821308851792
h           -1.37635925350527       -3.58091194807352        2.28076346389755
o            4.19763843135537        0.96041523139526        0.96384828487717
h            5.01826667412016        1.05398714881399        1.44833065882800
h            4.37243831903822        0.28344728290275        0.24477982449013
o            1.18104260832626        2.86139786542776        2.64137061614130
h            1.50251527570128        3.43515674169602        3.33809107320195
h            0.19741808598425        2.77636968991673        2.79996907292730
o           -2.53705923291925        2.94572694360410        0.54818443084130
h           -1.82324615574441        3.10193970971131       -0.10687740588418
h           -3.09034987958637        3.72824555390432        0.51459070775789
o           -4.95396509458550       -1.23241038746066       -0.70009002074770
h           -4.87682641394241       -1.19113290569029        0.26181598720946
h           -4.88788396381631       -0.30720624869839       -0.98811818092532
o            4.54927079713190       -0.72633766261272       -0.97505677373704
h            3.97965032687978       -0.49827772877148       -1.74020661054866
h            4.20174206867453       -1.59087745990326       -0.68646139921231
o           -2.87101996753510       -3.59083721375283        1.60356182222630
h           -3.25001506067318       -2.70936037903342        1.79373515048263
h           -2.96730978240155       -3.69197362606940        0.64210020522774
o            3.05129988620925       -2.91206146932763       -0.61017070429007
h            2.60757218807711       -2.85198416260107       -1.46979020383701
h            2.47274951358550       -3.48806872438721       -0.07387539784583
o            1.42481358761011        4.32272729135008        0.27617093627778
h            2.25222711594510        4.06188434125010       -0.15108753678280
h            1.39114494303349        3.83859534376653        1.11867940961212
o           -2.13177944451984        0.12776478324630        3.80882299842877
h           -1.27173718031215       -0.37182855650267        3.90758013966609
h           -2.54823215888239        0.10276450836600        4.67095032454288
o            3.65460761303606        2.98692680068162       -0.89596246167527
h            4.28667020359527        2.71694353173016       -1.59016392906912
h            3.84429123383799        2.39217783766099       -0.14982401119997
o            0.10146920868574       -1.18982482111137        4.08493496831160
h            0.03602622295740       -2.02292704911873        3.58912598011169
h            0.90386868694164       -0.73431847507200        3.77726620645608
o            1.46579352040781        1.95977142457818       -2.17696767882716
h            1.29335921280599        1.45271444152120       -1.34811056962643
h            2.22244162460819        2.52536678390395       -1.93279184148106
o            2.23819635334646        0.32708203225435        3.15648859365009
h            1.87545116260106        1.21960532144885        3.02716620694863
h            2.94859131703816        0.24231059851912        2.51154118878643
o           -0.59614977289118        3.50201478719316       -1.26909041155776
h            0.03921941376129        3.99466073708708       -0.70264164161074
h           -0.01243669094627        2.92970231009057       -1.80314493520928
o           -1.38160855391858        2.62004480772020        2.99908218405423
h           -1.84819531342961        2.74674002176562        2.15196477174691
h           -1.66724496651800        1.74867944006263        3.33380411989932
o           -4.46887245589104        1.51192734702806       -1.02542416156426
h           -4.20349974271138        2.12064691115275       -1.72863110112272
h           -3.94625474937795        1.78993842433458       -0.26087448519664
o            2.91685226268284       -0.15926227162386       -3.08589035480011
h            2.29929167907848        0.57969416321745       -2.91068147385578
h            2.38224236238265       -0.96148242369668       -3.15397675218314
o            5.16815942271350        1.59753651498540       -2.68688591661865
h            4.49814637217513        1.13567806603513       -3.20629549112943
h            5.58472493066567        0.91397525890420       -2.15233211231280
75
 energy: -127.130852687585 gnorm: 0.021628586118 xtb: 6.5.1 (579679a)
o            1.00708826568906       -4.32916002504030        0.47557358863739
h            0.62016736469653       -4.02461082142260        1.31233110038690
h            0.36374278627566       -4.08885066600255       -0.20863118231323
o           -3.54485295735016       -0.98375989969808        1.73276367157128
h           -2.94702170898186       -0.75469392396585        1.00577006703346
h           -3.16879031612128       -0.55154659746328        2.52280706849332
o           -0.79330610109098       -3.22492912872000       -1.38731276717064
h           -0.93978109342026       -2.38533755017296       -0.93123570687677
h           -1.68509984437677       -3.58438404496312       -1.50980803655694
o           -3.51911561960288       -3.46355850984559       -1.11968229234556
h           -4.19328310102436       -4.10593459262587       -1.34803228162018
h           -3.99500088417159       -2.60144743694426       -1.07217291046676
o           -3.07838251762887        3.43628372198578       -2.56752325731314
h           -2.99674772245855        3.69509718441749       -3.48541447480994
h           -2.19908461991343        3.54501906185213       -2.16960506427736
o            1.41741238344416       -2.63962168758913       -2.91894643158398
h            0.61431075798036       -2.87584127598204       -2.41655114479572
h            1.58008035137584       -3.36645042645507       -3.52223692716172
o           -0.46075942413208       -3.54563041727114        2.68791502656237
h           -0.43812346804563       -4.25346128458979        3.33359031099417
h           -1.36823676791977       -3.57878238104495        2.28788924613865
o            4.18702731039465        0.97851240301151        0.96612552601611
h            5.01733423427597        1.05345121523924        1.43791481276781
h            4.33027566072685        0.28467400376366        0.25874256315938
o            1.18542814012736        2.87073350599094        2.64108026401340
h            1.49391231429722        3.43983423887511        3.34776459780558
h            0.20225246025057        2.76880252760366        2.78834311916293
o           -2.54820582833238        2.93188058889713        0.53883709860571
h           -1.81553912638022        3.08431329168326       -0.09623003727454
h           -3.07827876571099        3.73158748083620        0.51308708325759
o           -4.92286100925352       -1.22714765017979       -0.69572490554385
h           -4.90066260248544       -1.17597446219723        0.27013503260226
h           -4.87478744311906       -0.30189063899640       -0.99073689564301
o            4.55722759119423       -0.72834695097220       -0.97883195847173
h            3.98598333663938       -0.50112490450377       -1.74141757565498
h            4.20275965103745       -1.58680874847702       -0.68129593823545
o           -2.86575273337735       -3.59467632551454        1.60149453146403
h           -3.26290177524488       -2.72388988874033        1.79971124486927
h           -2.99797748149903       -3.71543289117307        0.64633180917666
o            3.07162490989442       -2.93307264241237       -0.62023714848898
h            2.60540077057314       -2.83698303793899       -1.46481103050014
h            2.47289100073750       -3.47317942212221       -0.06894367557238
o            1.42253343273107        4.32054869447394        0.27601073555701
h            2.25558153031049        4.06396650474121       -0.14249375018089
h            1.37688533879316        3.82011933921510        1.11020887162913
o           -2.14307397096685        0.10961625263040        3.80023857936908
h           -1.26727144103096       -0.36374157551938        3.90429279314228
h           -2.54277465953769        0.10725112619885        4.67127979029784
o            3.63661720817238        2.97074760988550       -0.90490826737022
h            4.29665658084396        2.70833059459686       -1.57639598336249
h            3.80609198807522        2.37711513073634       -0.14976997648134
o            0.10056182540996       -1.18743758106288        4.07562708390992
h            0.03818651670933       -2.00972745992122        3.56183846245724
h            0.90171301692579       -0.72146150090864        3.77598791549324
o            1.46321811049635        1.92445928122369       -2.12209956911904
h            1.30238098054691        1.43304011993018       -1.30178709310816
h            2.22120005384025        2.50205605397755       -1.89384185368136
o            2.23535133050174        0.33088067710210        3.13598524315913
h            1.85474546775344        1.21583973985062        3.00184642788418
h            2.92687022716454        0.25226900801605        2.46874982656340
o           -0.60443298261649        3.51650387323050       -1.27263426255995
h            0.03235354807891        3.99037365041642       -0.68943442117172
h           -0.02628069218429        2.94090394342462       -1.80469632330817
o           -1.39152865569758        2.62881985584071        3.00764080592413
h           -1.83688426103340        2.74193875813728        2.14746344273730
h           -1.65391482996788        1.74444937875444        3.32591272634370
o           -4.43792767046543        1.48644467996434       -1.02823964303285
h           -4.19312185611496        2.10329045629307       -1.73238027808595
h           -3.93024976212037        1.78985110950653       -0.26287083136292
o            2.91834931971096       -0.16568028810186       -3.10120001977558
h            2.30452705953562        0.57279772179863       -2.92288617115020
h            2.38339722332218       -0.96824329455295       -3.15294792131707
o            5.17292233289491        1.59715016421933       -2.69320384244490
h            4.50317278774539        1.13093886474085       -3.20831714296679
h            5.58263997594233        0.91950275396220       -2.14537977545608
75
 energy: -127.133788798331 gnorm: 0.015030597574 xtb: 6.5.1 (579679a)
o            1.01199847204829       -4.32997172243726        0.47500468068967
h            0.62419759621682       -4.03680005916401        1.31647476570124
h            0.36087229138270       -4.10805739942158       -0.20443741049478
o           -3.51225222562748       -0.96206923635260        1.73872912993791
h           -2.93840353411244       -0.66186263527944        1.02023086536303
h           -3.14581668715470       -0.55234759512406        2.54889629469933
o           -0.81318867220642       -3.18568062294326       -1.38617062626067
h           -0.92309164581763       -2.36232714141697       -0.90985983684339
h           -1.71329049906016       -3.53509748043449       -1.49794802525613
o           -3.51568557797525       -3.45286442051769       -1.12138642209029
h           -4.17661331815547       -4.10631510035500       -1.35845835962457
h           -4.01085884644333       -2.60072073241794       -1.05674749747538
o           -3.08757538082003        3.44259311122482       -2.56854259599091
h           -2.99576058558808        3.69707312454964       -3.48688435235146
h           -2.21116438407607        3.54851911445549       -2.16305449315852
o            1.41563222650998       -2.62871557560238       -2.92955952008035
h            0.60990821958297       -2.86631992847306       -2.43899800293222
h            1.59189595727774       -3.35785904175000       -3.52701464763473
o           -0.44839373871368       -3.54507562200792        2.67788638208179
h           -0.43319811462814       -4.24332482056798        3.33474686263417
h           -1.35479226662828       -3.57243955725904        2.28144722678964
o            4.15035610533919        0.98068667046753        0.97548858135304
h            4.98816243154405        1.06809881735696        1.43213827249082
h            4.30244201916096        0.30907554758163        0.25707338041216
o            1.18667220161366        2.87750157114198        2.64071713946872
h            1.48928982843075        3.44404230459712        3.35203507849665
h            0.20436600645582        2.77643517550339        2.77572464687721
o           -2.55236635787848        2.91848191139113        0.53739615195833
h           -1.81985352564918        3.05637958332887       -0.10024897903138
h           -3.06693758219075        3.72887081741993        0.51231560628104
o           -4.91431084082448       -1.22436744294941       -0.69748989868611
h           -4.90598700303804       -1.16773705709152        0.26705031361117
h           -4.82040716397681       -0.30402112214191       -1.00226452467684
o            4.55589631130229       -0.72725651892572       -0.97868909897412
h            3.99981320595441       -0.51468783463802       -1.75488729349103
h            4.21309823449090       -1.59078712749537       -0.68368297281572
o           -2.87100295161815       -3.59854721274391        1.60043401019982
h           -3.24755197864902       -2.72102742457903        1.80260500531478
h           -3.01934526226088       -3.72449312004998        0.64881340061920
o            3.07160998879842       -2.92778667695176       -0.62088784629079
h            2.60966761828595       -2.83959419587367       -1.46572481165011
h            2.48932041212406       -3.48430374909557       -0.07336307405343
o            1.41397189492788        4.31352635945722        0.27923788042853
h            2.25430343668450        4.06805336624103       -0.13132333091896
h            1.36350170355624        3.80079915869568        1.10750009910699
o           -2.14650349219861        0.10584826674652        3.79981683702477
h           -1.27287386912520       -0.37654582154515        3.88513134974638
h           -2.52957996164647        0.10545799785077        4.67841254928073
o            3.61704511443344        2.95202664597494       -0.90479516756921
h            4.28948430524154        2.69579571666336       -1.56646716553314
h            3.77078913235022        2.35111970613860       -0.14840873409328
o            0.09962762475709       -1.18035209661083        4.06066006989437
h            0.03965212017243       -1.99792163656620        3.53904833026940
h            0.89813386068775       -0.70791963324332        3.76140647165732
o            1.45793019941688        1.87945721872177       -2.04424761948903
h            1.29476141537053        1.39036877978158       -1.24119429118844
h            2.22457710664338        2.45563219680601       -1.81856824369192
o            2.21230091406294        0.33011067834647        3.08065812587487
h            1.84387870397711        1.22339079529047        2.97037017198848
h            2.91006540155241        0.27196450833449        2.41719366680256
o           -0.61270270240565        3.52754585440610       -1.26755598227775
h            0.03260586548750        3.99497976845822       -0.68672360373921
h           -0.04711062468159        2.94226419964336       -1.79804212768952
o           -1.39887737631223        2.63624869942219        3.01433597260210
h           -1.83096284680415        2.74279205982588        2.14739693908723
h           -1.64782555045171        1.74511404245963        3.32023989962370
o           -4.41043707296817        1.46394726495687       -1.02587777508696
h           -4.16730449459375        2.06390911218722       -1.74503009206470
h           -3.88956224407299        1.77950016300425       -0.27391055283624
o            2.91833835884449       -0.17209126530947       -3.11721648388587
h            2.30225859318729        0.55820711577198       -2.92444441416906
h            2.38799080290727       -0.97763992462108       -3.16588420737792
o            5.17714898111981        1.59670564699785       -2.69145864578025
h            4.51450361957832        1.12704421963830       -3.21235591669458
h            5.58238154861473        0.92193589504307       -2.13638981584765
75
 energy: -127.136090448021 gnorm: 0.016360124562 xtb: 6.5.1 (579679a)
o            1.01415898461164       -4.33785722073251        0.46834432970151
h            0.62832072923420       -4.04481103086613        1.31177010244710
h            0.35887329467700       -4.12619355490607       -0.20817604941309
o           -3.48350185209779       -0.93011123208716        1.74239026012988
h           -2.93588899842765       -0.58173719131536        1.03047370239327
h           -3.11180201898539       -0.54661425149004        2.56544975070787
o           -0.82700283690637       -3.14410746121839       -1.38706647781809
h           -0.88405559250911       -2.33646870752911       -0.87128189963594
h           -1.74342314082339       -3.46179786893644       -1.48306661046637
o           -3.51721589298640       -3.45060879472766       -1.11732554157136
h           -4.16931223107605       -4.10287289523750       -1.38002013162715
h           -4.01607807419650       -2.59932025242813       -1.04158028573201
o           -3.09113135063989        3.43553284112697       -2.57500959780871
h           -2.99503770270438        3.70331469499331       -3.48914636530469
h           -2.22270296841056        3.56199710307928       -2.15748546808414
o            1.41908993368913       -2.62127111948146       -2.93832770871530
h            0.60101098985809       -2.84177515690438       -2.46338527761144
h            1.59451118888399       -3.35169729974297       -3.53360080748949
o           -0.43900077249420       -3.54370244057280        2.66799272205903
h           -0.42827993489783       -4.23319169795589        3.33437132369886
h           -1.34417269554180       -3.56768419853189        2.27340716520235
o            4.11592325236940        0.99185767327783        0.97014943306937
h            4.95678751298849        1.07565492188539        1.42222141826953
h            4.25657839738461        0.30586974784394        0.26777225938919
o            1.18420390629101        2.88847389919723        2.63895454754614
h            1.48480250355078        3.45019793539472        3.35478021816674
h            0.20458052948803        2.78405558280541        2.77065145268617
o           -2.54891369865846        2.90128630974025        0.53428928013230
h           -1.81717660598062        3.03872720730526       -0.10400424273863
h           -3.05841362354207        3.71437483941221        0.51300464574808
o           -4.90534931006388       -1.22841867006799       -0.69749485730826
h           -4.90499071865489       -1.16822073491863        0.26491957809345
h           -4.77349329259850       -0.31105225840453       -1.00653923545638
o            4.55429840321369       -0.72319443247865       -0.98099984378286
h            4.00414430837417       -0.52109716936627       -1.76304651780685
h            4.22236239563278       -1.59120701297242       -0.68726588057818
o           -2.87816239806319       -3.59429426188634        1.60223145727616
h           -3.22436441313061       -2.70363225375611        1.79908305740310
h           -3.02968153071048       -3.72332888442501        0.65287917206927
o            3.08923338915306       -2.94347257907260       -0.62992135313512
h            2.61071638807853       -2.82972537787870       -1.46329484333508
h            2.49767711955383       -3.47993359028207       -0.07199367466193
o            1.40180787939737        4.31135752658070        0.28392598382716
h            2.24297465351409        4.07165761601403       -0.12709601583425
h            1.35285796025055        3.79062863242791        1.10811044737177
o           -2.14190259679285        0.10635470476456        3.80963545043860
h           -1.26784391400778       -0.37940810889505        3.88378226122279
h           -2.51715138720206        0.10342188381362        4.69081162479234
o            3.60461287929766        2.94300462907272       -0.90116424731620
h            4.27221206003945        2.68347782891489       -1.56445958443693
h            3.74473873092963        2.33185182178549       -0.14836227117288
o            0.10397398343590       -1.17401889727070        4.03862089465683
h            0.04033160770964       -1.98926243507983        3.51416453534068
h            0.89449116271637       -0.69703529271411        3.72548166613023
o            1.44684798083501        1.82467405212172       -1.96088275157830
h            1.26603706223268        1.32352059642295       -1.17242617822884
h            2.22184593709814        2.39132489411717       -1.71932767726173
o            2.18695004683426        0.33070874235663        3.01870964062032
h            1.82377244629625        1.22960425584361        2.93285134490026
h            2.88426216716980        0.29411942338571        2.35092380793623
o           -0.62052387029232        3.53394655920488       -1.26429208555925
h            0.03142413188607        3.99674406523140       -0.68562920595506
h           -0.06601854663068        2.92383615244443       -1.77703978202165
o           -1.40256302104414        2.63912705230467        3.01567932084565
h           -1.83296212123579        2.74516383170820        2.14920495371884
h           -1.65150492665741        1.74982425200360        3.32045831589096
o           -4.34594471589117        1.41862091918967       -1.03669808000363
h           -4.14818624835502        2.03550697934297       -1.75749312186422
h           -3.85048266886987        1.78163714426928       -0.28403789547458
o            2.92136916900598       -0.17710575873296       -3.13527285568202
h            2.29998806035074        0.53935191579339       -2.90954531500659
h            2.39789779000402       -0.98784115427551       -3.18070523749070
o            5.18047097926167        1.59493965979307       -2.68075157539198
h            4.52559828717214        1.12832802061111       -3.21457929811884
h            5.58135892035000        0.91656996547938       -2.12727857683607
75
 energy: -127.138276439495 gnorm: 0.018419371368 xtb: 6.5.1 (579679a)
o            1.01659156462339       -4.34329632668121        0.45701116094971
h            0.63116367288521       -4.05052295638326        1.30092127955338
h            0.35653371604827       -4.14304807499162       -0.21776058057787
o           -3.45231142791729       -0.90174359232340        1.74457168932634
h           -2.95029751045462       -0.48210725397208        1.02916163747701
h           -3.07485490879945       -0.53174215569934        2.57161169710741
o           -0.83506827732304       -3.09426867145659       -1.38335881321316
h           -0.83986042107630       -2.30487838199089       -0.82620653283404
h           -1.76882128784893       -3.37365961846505       -1.46048270848439
o           -3.51664835537621       -3.45028533089833       -1.11012724883220
h           -4.15920084153678       -4.09641219083441       -1.41126759726575
h           -4.01362244339307       -2.59550471256970       -1.03232366109284
o           -3.09594915806361        3.44451118860286       -2.57692271565056
h           -2.99883154183298        3.70813145842590       -3.49186801388205
h           -2.22668149741143        3.56650673612658       -2.16225130687040
o            1.42408754364089       -2.61245710301698       -2.94304854324940
h            0.58881898197470       -2.80973590910929       -2.48543213122978
h            1.59283401422408       -3.34366119503121       -3.53829171337021
o           -0.43041813512681       -3.54087401156946        2.65729660607050
h           -0.41936834739879       -4.22174425976602        3.33214507300710
h           -1.33669527896784       -3.56372331571269        2.26776079221523
o            4.07589757482281        0.98903477854897        0.96176192571465
h            4.91367250687433        1.08922730492396        1.41570579468850
h            4.23180345280943        0.30607613417526        0.26316499100375
o            1.17768425133388        2.90194071173953        2.63842275706245
h            1.48032437427313        3.45942355063496        3.35633829247269
h            0.20018305459240        2.79652122018011        2.77148049571134
o           -2.54272460943217        2.88610101495082        0.53083824324143
h           -1.80966960911930        3.02823698803518       -0.10682988994463
h           -3.05044935813774        3.69966054508790        0.51494163693265
o           -4.89450199781708       -1.23576390566960       -0.69446680798832
h           -4.90052465184123       -1.17542004745338        0.26647812234974
h           -4.72924556590309       -0.32050015256636       -1.00052323116038
o            4.54818871404955       -0.72145938517065       -0.98423919922709
h            4.00402088836099       -0.52909013906190       -1.77253843544502
h            4.22741541240793       -1.59387298642145       -0.69150471717641
o           -2.87826897606286       -3.57928755755302        1.60534037749291
h           -3.20311177843187       -2.67803065929019        1.78808746827707
h           -3.03773522254354       -3.72078142629008        0.65897412868276
o            3.09516655721913       -2.94894545463007       -0.63836799632358
h            2.61200624393318       -2.83156785162502       -1.46740373873970
h            2.51139840392328       -3.49077284977163       -0.07924676043103
o            1.38684718473402        4.31461896179652        0.28776594423093
h            2.22539542016487        4.07601707662250       -0.12756706813656
h            1.34297292977985        3.79353225044959        1.11191128845128
o           -2.13086511232881        0.11160240519561        3.83040675226430
h           -1.25496808270650       -0.37488145598121        3.89560077747439
h           -2.50431720245660        0.09962990101220        4.71115486169577
o            3.58271038001473        2.92411684436823       -0.89716056649888
h            4.25138539677336        2.67400245746542       -1.56318246437438
h            3.73543980046047        2.31986374288158       -0.14199301689077
o            0.11148832782176       -1.16988554624269        4.01176216552660
h            0.04147649775538       -1.98505155520748        3.48822161802752
h            0.89081132381811       -0.68875114526830        3.67692046349597
o            1.42674886753102        1.75378243650095       -1.87070823986493
h            1.22200613768527        1.23639979560565       -1.09131251930881
h            2.20640359467599        2.31234706984072       -1.60633376472439
o            2.15194737812445        0.33057046396883        2.94397956291360
h            1.79701096899722        1.23665530496746        2.88999629870824
h            2.85444677186180        0.31994268447057        2.27816864131079
o           -0.62759317412108        3.53075212636762       -1.25845062567772
h            0.02899424106447        3.99663338435689       -0.68671327496097
h           -0.08172293762529        2.88853358708718       -1.74339037077311
o           -1.40608303228192        2.64102426366265        3.01522835149534
h           -1.84005949284727        2.74117734211133        2.15049451355943
h           -1.65636081590675        1.75667689722221        3.32957824566614
o           -4.29264484034336        1.38946717582466       -1.04522059344936
h           -4.09982780243233        1.98794274702766       -1.78016840735887
h           -3.77837477928141        1.75544713179633       -0.30895458036401
o            2.92470058511022       -0.18060470517015       -3.14674239085637
h            2.29776468704094        0.51999134173668       -2.88136088889950
h            2.40757843021757       -0.99545473584035       -3.20136582080256
o            5.18081657139869        1.59523625962249       -2.66521952489987
h            4.53402590400723        1.13488527993163       -3.21501626493490
h            5.57777759885572        0.91014069026889       -2.11745922982865
75
 energy: -127.140051051121 gnorm: 0.023288702990 xtb: 6.5.1 (579679a)
o            1.01866727768732       -4.34779218655050        0.44251149804911
h            0.63355002154701       -4.05530610550615        1.28606410155712
h            0.35595734012985       -4.15100092484459       -0.23074655569620
o           -3.43488352419558       -0.85308001011293        1.73497355552701