      -----------------------------------------------------------      
     |                   =====================                   |     
     |                           x T B                           |     
     |                   =====================                   |     
     |                         S. Grimme                         |     
     |          Mulliken Center for Theoretical Chemistry        |     
     |                    University of Bonn                     |     
      -----------------------------------------------------------      

   * xtb version 6.5.1 (579679a) compiled by 'ehlert@majestix' on 2022-07-11

   xtb is free software: you can redistribute it and/or modify it under
   the terms of the GNU Lesser General Public License as published by
   the Free Software Foundation, either version 3 of the License, or
   (at your option) any later version.
   
   xtb is distributed in the hope that it will be useful,
   but WITHOUT ANY WARRANTY; without even the implied warranty of
   MERCHANTABILITY or FITNESS FOR A PARTICULAR PURPOSE.  See the
   GNU Lesser General Public License for more details.
   
   Cite this work as:
   * C. Bannwarth, E. Caldeweyher, S. Ehlert, A. Hansen, P. Pracht,
     J. Seibert, S. Spicher, S. Grimme, WIREs Comput. Mol. Sci., 2020, 11,
     e01493. DOI: 10.1002/wcms.1493
   
   for GFN2-xTB:
   * C. Bannwarth, S. Ehlert and S. Grimme., J. Chem. Theory Comput., 2019,
     15, 1652-1671. DOI: 10.1021/acs.jctc.8b01176
   for GFN1-xTB:
   * S. Grimme, C. Bannwarth, P. Shushkov, J. Chem. Theory Comput., 2017,
     13, 1989-2009. DOI: 10.1021/acs.jctc.7b00118
   for GFN0-xTB:
   * P. Pracht, E. Caldeweyher, S. Ehlert, S. Grimme, ChemRxiv, 2019, preprint.
     DOI: 10.26434/chemrxiv.8326202.v1
   for GFN-FF:
   * S. Spicher and S. Grimme, Angew. Chem. Int. Ed., 2020, 59, 15665-15673.
     DOI: 10.1002/anie.202004239
   
   for ALPB and GBSA implicit solvation:
   * S. Ehlert, M. Stahn, S. Spicher, S. Grimme, J. Chem. Theory Comput.,
     2021, 17, 4250-4261. DOI: 10.1021/acs.jctc.1c00471
   
   for DFT-D4:
   * E. Caldeweyher, C. Bannwarth and S. Grimme, J. Chem. Phys., 2017,
     147, 034112. DOI: 10.1063/1.4993215
   * E. Caldeweyher, S. Ehlert, A. Hansen, H. Neugebauer, S. Spicher,
     C. Bannwarth and S. Grimme, J. Chem. Phys., 2019, 150, 154122.
     DOI: 10.1063/1.5090222
   * E. Caldeweyher, J.-M. Mewes, S. Ehlert and S. Grimme, Phys. Chem. Chem. Phys.
     2020, 22, 8499-8512. DOI: 10.1039/D0CP00502A
   
   for sTDA-xTB:
   * S. Grimme and C. Bannwarth, J. Chem. Phys., 2016, 145, 054103.
     DOI: 10.1063/1.4959605
   
   in the mass-spec context:
   * V. Asgeirsson, C. Bauer and S. Grimme, Chem. Sci., 2017, 8, 4879.
     DOI: 10.1039/c7sc00601b
   * J. Koopman and S. Grimme, ACS Omega 2019, 4, 12, 15120-15133.
     DOI: 10.1021/acsomega.9b02011
   
   for metadynamics refer to:
   * S. Grimme, J. Chem. Theory Comput., 2019, 155, 2847-2862
     DOI: 10.1021/acs.jctc.9b00143
   
   for SPH calculations refer to:
   * S. Spicher and S. Grimme, J. Chem. Theory Comput., 2021, 17, 1701-1714
     DOI: 10.1021/acs.jctc.0c01306
   
   with help from (in alphabetical order)
   P. Atkinson, C. Bannwarth, F. Bohle, G. Brandenburg, E. Caldeweyher
   M. Checinski, S. Dohm, S. Ehlert, S. Ehrlich, I. Gerasimov, C. Hölzer
   A. Katbashev, J. Koopman, C. Lavigne, S. Lehtola, F. März, M. Müller,
   F. Musil, H. Neugebauer, J. Pisarek, C. Plett, P. Pracht, F. Pultar,
   J. Seibert, P. Shushkov, S. Spicher, M. Stahn, M. Steiner, T. Strunk,
   J. Stückrath, T. Rose, and J. Unsleber
   
 * started run on 2022/11/24 at 09:07:52.365     

           -------------------------------------------------
          |                Calculation Setup                |
           -------------------------------------------------

          program call               : xtb solvent_cluster.coord --gfn2 --input xcontrol --opt 1
          hostname                   : cn0341
          coordinate file            : solvent_cluster.coord
          omp threads                :                     2

   ID    Z sym.   atoms
    1    8 o      1, 4, 7, 10, 13, 16, 19, 22, 25, 28, 31, 34, 37, 40, 43,
                  46, 49, 52, 55, 58, 61, 64, 67, 70, 73, 76, 79, 82, 85, 88,
                  91, 94, 97, 100, 103, 106, 109, 112, 115, 118, 121, 124,
                  127, 130, 133, 136, 139, 142, 145, 148, 151, 154, 157, 160,
                  163, 166, 169, 172, 175, 178, 181, 184, 187, 190, 193, 196,
                  199, 202, 205, 208, 211, 214, 217, 220, 223, 226, 229, 232,
                  235, 238, 241, 244, 247, 250, 253, 256, 259, 262, 265, 268,
                  271, 274, 277, 280, 283, 286, 289, 292, 295, 298, 301, 304,
                  307, 310, 313, 316, 319, 322, 325, 328, 331, 334, 337, 340,
                  343, 346, 349, 352, 355, 358, 361, 364, 367, 370, 373, 376,
                  379, 382, 385, 388, 391, 394, 397, 400, 403, 406, 409, 412,
                  415, 418, 421, 424, 427, 430, 433, 436, 439, 442, 445, 448,
                  451, 454, 457, 460, 463, 466, 469, 472, 475, 478, 481, 484,
                  487, 490, 493, 496, 499, 502, 505, 508, 511, 514, 517, 520,
                  523, 526, 529, 532, 535, 538, 541, 544, 547, 550, 553, 556,
                  559, 562, 565, 568, 571, 574, 577, 580, 583, 586, 589, 592,
                  595, 598, 601, 604, 607, 610, 613, 616, 619, 622, 625, 628,
                  631, 634, 637, 640, 643, 646, 649, 652, 655, 658, 661, 664,
                  667, 670, 673, 676, 679, 682, 685, 688, 691, 694, 697, 700,
                  703, 706, 709, 712, 715, 718, 721, 724, 727, 730, 733, 736,
                  739, 742, 745, 748, 751, 754
    2    1 h      2, 3, 5, 6, 8, 9, 11, 12, 14, 15, 17, 18, 20, 21, 23, 24,
                  26, 27, 29, 30, 32, 33, 35, 36, 38, 39, 41, 42, 44, 45, 47,
                  48, 50, 51, 53, 54, 56, 57, 59, 60, 62, 63, 65, 66, 68, 69,
                  71, 72, 74, 75, 77, 78, 80, 81, 83, 84, 86, 87, 89, 90, 92,
                  93, 95, 96, 98, 99, 101, 102, 104, 105, 107, 108, 110, 111,
                  113, 114, 116, 117, 119, 120, 122, 123, 125, 126, 128, 129,
                  131, 132, 134, 135, 137, 138, 140, 141, 143, 144, 146, 147,
                  149, 150, 152, 153, 155, 156, 158, 159, 161, 162, 164, 165,
                  167, 168, 170, 171, 173, 174, 176, 177, 179, 180, 182, 183,
                  185, 186, 188, 189, 191, 192, 194, 195, 197, 198, 200, 201,
                  203, 204, 206, 207, 209, 210, 212, 213, 215, 216, 218, 219,
                  221, 222, 224, 225, 227, 228, 230, 231, 233, 234, 236, 237,
                  239, 240, 242, 243, 245, 246, 248, 249, 251, 252, 254, 255,
                  257, 258, 260, 261, 263, 264, 266, 267, 269, 270, 272, 273,
                  275, 276, 278, 279, 281, 282, 284, 285, 287, 288, 290, 291,
                  293, 294, 296, 297, 299, 300, 302, 303, 305, 306, 308, 309,
                  311, 312, 314, 315, 317, 318, 320, 321, 323, 324, 326, 327,
                  329, 330, 332, 333, 335, 336, 338, 339, 341, 342, 344, 345,
                  347, 348, 350, 351, 353, 354, 356, 357, 359, 360, 362, 363,
                  365, 366, 368, 369, 371, 372, 374, 375, 377, 378, 380, 381,
                  383, 384, 386, 387, 389, 390, 392, 393, 395, 396, 398, 399,
                  401, 402, 404, 405, 407, 408, 410, 411, 413, 414, 416, 417,
                  419, 420, 422, 423, 425, 426, 428, 429, 431, 432, 434, 435,
                  437, 438, 440, 441, 443, 444, 446, 447, 449, 450, 452, 453,
                  455, 456, 458, 459, 461, 462, 464, 465, 467, 468, 470, 471,
                  473, 474, 476, 477, 479, 480, 482, 483, 485, 486, 488, 489,
                  491, 492, 494, 495, 497, 498, 500, 501, 503, 504, 506, 507,
                  509, 510, 512, 513, 515, 516, 518, 519, 521, 522, 524, 525,
                  527, 528, 530, 531, 533, 534, 536, 537, 539, 540, 542, 543,
                  545, 546, 548, 549, 551, 552, 554, 555, 557, 558, 560, 561,
                  563, 564, 566, 567, 569, 570, 572, 573, 575, 576, 578, 579,
                  581, 582, 584, 585, 587, 588, 590, 591, 593, 594, 596, 597,
                  599, 600, 602, 603, 605, 606, 608, 609, 611, 612, 614, 615,
                  617, 618, 620, 621, 623, 624, 626, 627, 629, 630, 632, 633,
                  635, 636, 638, 639, 641, 642, 644, 645, 647, 648, 650, 651,
                  653, 654, 656, 657, 659, 660, 662, 663, 665, 666, 668, 669,
                  671, 672, 674, 675, 677, 678, 680, 681, 683, 684, 686, 687,
                  689, 690, 692, 693, 695, 696, 698, 699, 701, 702, 704, 705,
                  707, 708, 710, 711, 713, 714, 716, 717, 719, 720, 722, 723,
                  725, 726, 728, 729, 731, 732, 734, 735, 737, 738, 740, 741,
                  743, 744, 746, 747, 749, 750, 752, 753, 755, 756

molecular fragmentation (1/2 indicates fragments):
111222222222222222222222222222222222222222222222222222222222222222222222
222222222222222222222222222222222222222222222222222222222222222222222222
222222222222222222222222222222222222222222222222222222222222222222222222
222222222222222222222222222222222222222222222222222222222222222222222222
222222222222222222222222222222222222222222222222222222222222222222222222
222222222222222222222222222222222222222222222222222222222222222222222222
222222222222222222222222222222222222222222222222222222222222222222222222
222222222222222222222222222222222222222222222222222222222222222222222222
222222222222222222222222222222222222222222222222222222222222222222222222
222222222222222222222222222222222222222222222222222222222222222222222222
222222222222222222222222222222222222
# atoms in fragment 1/2:     3   753
 fragment masses (1/2) :       18.02     4521.84
CMA distance (Bohr)    :  16.037
constraining FC (au)   :  0.0500

           -------------------------------------------------
          |                 G F N 2 - x T B                 |
           -------------------------------------------------

        Reference                      10.1021/acs.jctc.8b01176
      * Hamiltonian:
        H0-scaling (s, p, d)           1.850000    2.230000    2.230000
        zeta-weighting                 0.500000
      * Dispersion:
        s8                             2.700000
        a1                             0.520000
        a2                             5.000000
        s9                             5.000000
      * Repulsion:
        kExp                           1.500000    1.000000
        rExp                           1.000000
      * Coulomb:
        alpha                          2.000000
        third order                    shell-resolved
        anisotropic                    true
        a3                             3.000000
        a5                             4.000000
        cn-shift                       1.200000
        cn-exp                         4.000000
        max-rad                        5.000000


          ...................................................
          :                      SETUP                      :
          :.................................................:
          :  # basis functions                1512          :
          :  # atomic orbitals                1512          :
          :  # shells                         1008          :
          :  # electrons                      2016          :
          :  max. iterations                   250          :
          :  Hamiltonian                  GFN2-xTB          :
          :  restarted?                      false          :
          :  GBSA solvation                  false          :
          :  PC potential                    false          :
          :  electronic temp.          300.0000000     K    :
          :  accuracy                    1.0000000          :
          :  -> integral cutoff          0.2500000E+02      :
          :  -> integral neglect         0.1000000E-07      :
          :  -> SCF convergence          0.1000000E-05 Eh   :
          :  -> wf. convergence          0.1000000E-03 e    :
          :  Broyden damping             0.4000000          :
          ...................................................

 iter      E             dE          RMSdq      gap      omega  full diag
   1  -1290.9965953 -0.129100E+04  0.406E+00    8.51       0.0  T
   2  -1291.0682394 -0.716441E-01  0.241E+00    8.47       1.0  T
   3  -1291.0986967 -0.304573E-01  0.207E-01    7.75       1.0  T
   4  -1291.1037405 -0.504379E-02  0.452E-02    7.98       1.0  T
   5  -1291.1038071 -0.665921E-04  0.302E-02    7.95       1.0  T
   6  -1291.1038444 -0.373380E-04  0.430E-03    7.97       1.0  T
   7  -1291.1038468 -0.235285E-05  0.802E-04    7.97       4.5  T
   8  -1291.1038468 -0.392672E-07  0.402E-04    7.97       9.1  T
   9  -1291.1038468 -0.158389E-07  0.666E-05    7.97      54.6  T

   *** convergence criteria satisfied after 9 iterations ***

         #    Occupation            Energy/Eh            Energy/eV
      -------------------------------------------------------------
         1        2.0000           -0.6952939             -18.9199
       ...           ...                  ...                  ...
      1002        2.0000           -0.4163849             -11.3304
      1003        2.0000           -0.4157309             -11.3126
      1004        2.0000           -0.4153024             -11.3010
      1005        2.0000           -0.4149276             -11.2908
      1006        2.0000           -0.4146426             -11.2830
      1007        2.0000           -0.4110509             -11.1853
      1008        2.0000           -0.4058572             -11.0439 (HOMO)
      1009                         -0.1130546              -3.0764 (LUMO)
      1010                         -0.0996239              -2.7109
      1011                         -0.0902692              -2.4563
      1012                         -0.0835792              -2.2743
      1013                         -0.0770384              -2.0963
       ...                                ...                  ...
      1512                          0.4143577              11.2752
      -------------------------------------------------------------
                  HL-Gap            0.2928026 Eh            7.9676 eV
             Fermi-level           -0.2594559 Eh           -7.0602 eV

 SCC (total)                   0 d,  0 h,  0 min, 20.193 sec
 SCC setup                      ...        0 min,  0.042 sec (  0.208%)
 Dispersion                     ...        0 min,  0.109 sec (  0.542%)
 classical contributions        ...        0 min,  0.023 sec (  0.115%)
 integral evaluation            ...        0 min,  0.603 sec (  2.985%)
 iterations                     ...        0 min,  6.728 sec ( 33.321%)
 molecular gradient             ...        0 min, 12.624 sec ( 62.517%)
 printout                       ...        0 min,  0.063 sec (  0.313%)

         :::::::::::::::::::::::::::::::::::::::::::::::::::::
         ::                     SUMMARY                     ::
         :::::::::::::::::::::::::::::::::::::::::::::::::::::
         :: total energy           -1283.349503509593 Eh    ::
         :: gradient norm              0.036018401145 Eh/a0 ::
         :: HOMO-LUMO gap              7.967564569959 eV    ::
         ::.................................................::
         :: SCC energy             -1291.103846806126 Eh    ::
         :: -> isotropic ES            7.160675605571 Eh    ::
         :: -> anisotropic ES         -1.616286919682 Eh    ::
         :: -> anisotropic XC         -0.127791112019 Eh    ::
         :: -> dispersion             -0.787774581747 Eh    ::
         :: repulsion energy           7.599819616142 Eh    ::
         :: add. restraining           0.000000000000 Eh    ::
         :: total charge              -0.000000000000 e     ::
         :::::::::::::::::::::::::::::::::::::::::::::::::::::

      ----------------------------------------------------------- 
     |                       L-ANC optimizer                     |
      ----------------------------------------------------------- 
          low memory version by Sebastian Ehlert

          ...................................................
          :                      SETUP                      :
          :.................................................:
          :   energy convergence        0.1000000E-05 Eh    :
          :   grad. convergence         0.8000000E-03 Eh/a0 :
          :   optimization log               true           :
          :   writing optlog all                1     steps :
          :   Hessian reset                    20     steps :
          :   maximium step len.        1.0000000     a0    :
          :   LBFGS images                     20           :
          ...................................................
 * calculating model hessian...
Using Lindh-Hessian (1995)
 Shifting diagonal of input Hessian by   1.000005647908807E-002
 Lowest  eigenvalues of input Hessian
    0.010000   -0.000000   -0.000000   -0.000000   -0.000000   -0.000000
   -0.000000   -0.000000   -0.000000   -0.000000   -0.000000   -0.000000
   -0.000000   -0.000000   -0.000000   -0.000000   -0.000000   -0.000000
 Highest eigenvalues
    0.291865    0.322551    1.185619    1.231780    1.388561    1.451752
 

........................................................................
.............................. CYCLE    1 ..............................
........................................................................
   1  -1291.1006327 -0.129110E+04  0.357E-02    7.98       0.0  T
   2  -1291.1006580 -0.252931E-04  0.217E-02    7.98       1.0  T
   3  -1291.1006644 -0.645193E-05  0.260E-03    7.98       1.4  T
   4  -1291.1006653 -0.850051E-06  0.605E-04    7.98       6.0  T
   5  -1291.1006653 -0.897012E-08  0.818E-05    7.98      44.4  T
     SCC iter.                  ...        0 min,  3.130 sec
     gradient                   ...        0 min, 12.674 sec
 * total energy  : -1283.3527915 Eh     change       -0.3287973E-02 Eh
   gradient norm :     0.0390759 Eh/a0  converged?    E=F G=F D=F
   step length   :     0.4872660 a0

........................................................................
.............................. CYCLE    2 ..............................
........................................................................
   1  -1291.1021998 -0.129110E+04  0.212E-02    7.97       0.0  T
   2  -1291.1022114 -0.115897E-04  0.130E-02    7.98       1.0  T
   3  -1291.1022144 -0.303254E-05  0.181E-03    7.98       2.0  T
   4  -1291.1022148 -0.397524E-06  0.466E-04    7.97       7.8  T
   5  -1291.1022148 -0.523323E-08  0.615E-05    7.97      59.2  T
     SCC iter.                  ...        0 min,  3.069 sec
     gradient                   ...        0 min, 12.656 sec
 * total energy  : -1283.3543669 Eh     change       -0.1575388E-02 Eh
   gradient norm :     0.0186174 Eh/a0  converged?    E=F G=F D=F
   step length   :     0.3783650 a0

........................................................................
.............................. CYCLE    3 ..............................
........................................................................
   1  -1291.1051615 -0.129111E+04  0.179E-02    7.98       0.0  T
   2  -1291.1051712 -0.972362E-05  0.107E-02    7.98       1.0  T
   3  -1291.1051727 -0.147078E-05  0.167E-03    7.98       2.2  T
   4  -1291.1051730 -0.317842E-06  0.259E-04    7.98      14.0  T
   5  -1291.1051730 -0.228852E-08  0.486E-05    7.98      74.8  T
     SCC iter.                  ...        0 min,  3.012 sec
     gradient                   ...        0 min, 12.656 sec
 * total energy  : -1283.3556197 Eh     change       -0.1252784E-02 Eh
   gradient norm :     0.0146883 Eh/a0  converged?    E=F G=F D=F
   step length   :     0.3539633 a0

........................................................................
.............................. CYCLE    4 ..............................
........................................................................
   1  -1291.1022974 -0.129110E+04  0.238E-02    7.98       0.0  T
   2  -1291.1023111 -0.137308E-04  0.145E-02    7.98       1.0  T
   3  -1291.1023140 -0.289789E-05  0.196E-03    7.98       1.9  T
   4  -1291.1023145 -0.499161E-06  0.437E-04    7.98       8.3  T
   5  -1291.1023145 -0.526029E-08  0.611E-05    7.98      59.5  T
     SCC iter.                  ...        0 min,  3.007 sec
     gradient                   ...        0 min, 12.710 sec
 * total energy  : -1283.3562262 Eh     change       -0.6065706E-03 Eh
   gradient norm :     0.0363157 Eh/a0  converged?    E=F G=F D=F
   step length   :     0.4519328 a0

........................................................................
.............................. CYCLE    5 ..............................
........................................................................
   1  -1291.1092452 -0.129111E+04  0.172E-02    7.99       0.0  T
   2  -1291.1092563 -0.110858E-04  0.101E-02    7.99       1.0  T
   3  -1291.1092581 -0.185220E-05  0.187E-03    7.99       1.9  T
   4  -1291.1092584 -0.303738E-06  0.332E-04    7.99      11.0  T
   5  -1291.1092584 -0.315299E-08  0.579E-05    7.99      62.8  T
     SCC iter.                  ...        0 min,  3.028 sec
     gradient                   ...        0 min, 12.769 sec
 * total energy  : -1283.3568768 Eh     change       -0.6505487E-03 Eh
   gradient norm :     0.0208490 Eh/a0  converged?    E=F G=F D=F
   step length   :     0.3498057 a0

........................................................................
.............................. CYCLE    6 ..............................
........................................................................
   1  -1291.1083624 -0.129111E+04  0.127E-02    7.98       0.0  T
   2  -1291.1083644 -0.197031E-05  0.774E-03    7.98       1.0  T
   3  -1291.1083654 -0.102369E-05  0.812E-04    7.98       4.5  T
   4  -1291.1083654 -0.345635E-07  0.246E-04    7.98      14.8  T
   5  -1291.1083654 -0.272757E-08  0.306E-05    7.98     118.9  T
     SCC iter.                  ...        0 min,  3.081 sec
     gradient                   ...        0 min, 12.664 sec
 * total energy  : -1283.3573031 Eh     change       -0.4263604E-03 Eh
   gradient norm :     0.0205772 Eh/a0  converged?    E=F G=F D=F
   step length   :     0.1782378 a0

........................................................................
.............................. CYCLE    7 ..............................
........................................................................
   1  -1291.1068574 -0.129111E+04  0.133E-02    7.99       0.0  T
   2  -1291.1068626 -0.520618E-05  0.806E-03    7.99       1.0  T
   3  -1291.1068644 -0.176517E-05  0.129E-03    7.99       2.8  T
   4  -1291.1068645 -0.156350E-06  0.360E-04    7.99      10.1  T
   5  -1291.1068645 -0.372506E-08  0.402E-05    7.99      90.4  T
     SCC iter.                  ...        0 min,  3.130 sec
     gradient                   ...        0 min, 12.672 sec
 * total energy  : -1283.3576737 Eh     change       -0.3706010E-03 Eh
   gradient norm :     0.0207784 Eh/a0  converged?    E=F G=F D=F
   step length   :     0.1462896 a0

........................................................................
.............................. CYCLE    8 ..............................
........................................................................
   1  -1291.1082373 -0.129111E+04  0.490E-03    7.99       0.0  T
   2  -1291.1082376 -0.282673E-06  0.298E-03    7.99       1.2  T
   3  -1291.1082377 -0.133470E-06  0.297E-04    7.99      12.2  T
   4  -1291.1082378 -0.582327E-08  0.918E-05    7.99      39.6  T
     SCC iter.                  ...        0 min,  2.492 sec
     gradient                   ...        0 min, 12.725 sec
 * total energy  : -1283.3579353 Eh     change       -0.2615319E-03 Eh
   gradient norm :     0.0093984 Eh/a0  converged?    E=F G=F D=F
   step length   :     0.0498533 a0

........................................................................
.............................. CYCLE    9 ..............................
........................................................................
   1  -1291.1065273 -0.129111E+04  0.127E-02    7.99       0.0  T
   2  -1291.1065296 -0.229235E-05  0.771E-03    7.99       1.0  T
   3  -1291.1065301 -0.487716E-06  0.755E-04    7.99       4.8  T
   4  -1291.1065302 -0.879036E-07  0.177E-04    7.99      20.6  T
     SCC iter.                  ...        0 min,  2.487 sec
     gradient                   ...        0 min, 12.703 sec
 * total energy  : -1283.3581384 Eh     change       -0.2031655E-03 Eh
   gradient norm :     0.0116253 Eh/a0  converged?    E=F G=F D=F
   step length   :     0.1991893 a0

........................................................................
.............................. CYCLE   10 ..............................
........................................................................
   1  -1291.1094776 -0.129111E+04  0.891E-03    7.99       0.0  T
   2  -1291.1094794 -0.172529E-05  0.536E-03    7.99       1.0  T
   3  -1291.1094798 -0.443613E-06  0.714E-04    7.99       5.1  T
   4  -1291.1094799 -0.551902E-07  0.179E-04    7.99      20.4  T
     SCC iter.                  ...        0 min,  2.471 sec
     gradient                   ...        0 min, 12.693 sec
 * total energy  : -1283.3583515 Eh     change       -0.2130790E-03 Eh
   gradient norm :     0.0069364 Eh/a0  converged?    E=F G=F D=F
   step length   :     0.1327115 a0

........................................................................
.............................. CYCLE   11 ..............................
........................................................................
   1  -1291.1081403 -0.129111E+04  0.707E-03    7.99       0.0  T
   2  -1291.1081410 -0.734537E-06  0.431E-03    7.99       1.0  T
   3  -1291.1081413 -0.252857E-06  0.446E-04    7.99       8.1  T
   4  -1291.1081413 -0.234547E-07  0.139E-04    7.99      26.2  T
     SCC iter.                  ...        0 min,  2.504 sec
     gradient                   ...        0 min, 12.623 sec
 * total energy  : -1283.3584338 Eh     change       -0.8229764E-04 Eh
   gradient norm :     0.0064197 Eh/a0  converged?    E=F G=F D=F
   step length   :     0.1193438 a0

........................................................................
.............................. CYCLE   12 ..............................
........................................................................
   1  -1291.1089634 -0.129111E+04  0.189E-03    7.99       0.0  T
   2  -1291.1089634 -0.866612E-07  0.114E-03    7.99       3.2  T
   3  -1291.1089635 -0.286548E-07  0.170E-04    7.99      21.3  T
   4  -1291.1089635 -0.245768E-08  0.476E-05    7.99      76.5  T
     SCC iter.                  ...        0 min,  2.479 sec
     gradient                   ...        0 min, 12.641 sec
 * total energy  : -1283.3584639 Eh     change       -0.3010571E-04 Eh
   gradient norm :     0.0031832 Eh/a0  converged?    E=F G=F D=F
   step length   :     0.0293565 a0

........................................................................
.............................. CYCLE   13 ..............................
........................................................................
   1  -1291.1097896 -0.129111E+04  0.219E-03    8.00       0.0  T
   2  -1291.1097898 -0.118730E-06  0.132E-03    8.00       2.8  T
   3  -1291.1097898 -0.370437E-07  0.184E-04    8.00      19.8  T
   4  -1291.1097898 -0.360501E-08  0.527E-05    8.00      69.1  T
     SCC iter.                  ...        0 min,  2.455 sec
     gradient                   ...        0 min, 12.599 sec
 * total energy  : -1283.3584774 Eh     change       -0.1350754E-04 Eh
   gradient norm :     0.0019981 Eh/a0  converged?    E=F G=F D=F
   step length   :     0.0350109 a0

........................................................................
.............................. CYCLE   14 ..............................
........................................................................
   1  -1291.1097840 -0.129111E+04  0.120E-03    8.00       0.0  T
   2  -1291.1097841 -0.409466E-07  0.713E-04    8.00       5.1  T
   3  -1291.1097841 -0.938371E-08  0.108E-04    8.00      33.5  T
     SCC iter.                  ...        0 min,  1.844 sec
     gradient                   ...        0 min, 12.548 sec
 * total energy  : -1283.3584801 Eh     change       -0.2640843E-05 Eh
   gradient norm :     0.0014918 Eh/a0  converged?    E=F G=F D=F
   step length   :     0.0227024 a0

........................................................................
.............................. CYCLE   15 ..............................
........................................................................
   1  -1291.1095170 -0.129111E+04  0.110E-03    8.00       0.0  T
   2  -1291.1095170 -0.411183E-07  0.647E-04    7.99       5.6  T
   3  -1291.1095170 -0.863542E-08  0.120E-04    7.99      30.4  T
     SCC iter.                  ...        0 min,  1.823 sec
     gradient                   ...        0 min, 12.466 sec
 * total energy  : -1283.3584815 Eh     change       -0.1460076E-05 Eh
   gradient norm :     0.0014493 Eh/a0  converged?    E=F G=F D=F
   step length   :     0.0151148 a0

........................................................................
.............................. CYCLE   16 ..............................
........................................................................
   1  -1291.1097624 -0.129111E+04  0.733E-04    8.00       0.0  T
   2  -1291.1097624 -0.619502E-08  0.440E-04    8.00       8.3  T
   3  -1291.1097624 -0.154523E-08  0.414E-05    8.00      87.8  T
     SCC iter.                  ...        0 min,  1.837 sec
     gradient                   ...        0 min, 12.402 sec
 * total energy  : -1283.3584831 Eh     change       -0.1588795E-05 Eh
   gradient norm :     0.0006925 Eh/a0  converged?    E=F G=T D=F
   step length   :     0.0110909 a0

........................................................................
.............................. CYCLE   17 ..............................
........................................................................
   1  -1291.1097173 -0.129111E+04  0.310E-04    8.00       0.0  T
   2  -1291.1097173 -0.196837E-08  0.182E-04    8.00      19.9  T
   3  -1291.1097173 -0.272394E-09  0.244E-05    8.00     149.3  T
     SCC iter.                  ...        0 min,  1.824 sec
     gradient                   ...        0 min, 12.357 sec
 * total energy  : -1283.3584837 Eh     change       -0.6037510E-06 Eh
   gradient norm :     0.0003935 Eh/a0  converged?    E=T G=T D=F
   step length   :     0.0059693 a0

   *** GEOMETRY OPTIMIZATION CONVERGED AFTER 17 CYCLES ***

------------------------------------------------------------------------
 total energy gain   :        -0.0089802 Eh       -5.6352 kcal/mol
 total RMSD          :         0.0728075 a0        0.0385 Å
 total power (kW/mol):        -1.3869135 (step)   -0.0835 (real)
------------------------------------------------------------------------

 L-ANCopt (total)              0 d,  0 h,  4 min, 42.345 sec
 setup                          ...        0 min,  0.030 sec (  0.011%)
 model hessian                  ...        0 min,  7.457 sec (  2.641%)
 ANC generation                 ...        0 min,  2.409 sec (  0.853%)
 coordinate transformation      ...        0 min,  0.001 sec (  0.000%)
 Rational function              ...        0 min,  0.000 sec (  0.000%)
 singlepoint calculation        ...        4 min, 32.324 sec ( 96.451%)
 optimization log               ...        0 min,  0.118 sec (  0.042%)
 hessian update                 ...        0 min,  0.000 sec (  0.000%)

================
 final structure:
================
$coord
       -5.48923499414900      -13.68366212467300       -6.21640067224400      o
       -5.83137401236800      -12.61202342481600       -4.74326831769000      h
       -4.81500787467700      -15.22007242620400       -5.53365250653400      h
        0.10500931899500       -4.41375099281500       -6.93593180648000      o
        1.24425441864200       -5.48909633531900       -7.89802882686200      h
        1.16751686778800       -3.04810969258200       -6.30648903734100      h
        6.22839564836900        3.06465730556900       -5.56444618803200      o
        7.68460984963700        3.02895917541900       -4.42847749429000      h
        5.34504857219300        1.45097733092300       -5.42197676143500      h
        5.82868935297800        0.59857081368200       -0.13649226688200      o
        4.67776979324500        1.94600222862900       -0.56189112340200      h
        7.50283194293000        1.27494702210000       -0.52777423202200      h
        3.06260607702600       -0.85860900768900       -4.83896938560800      o
        1.95852194555800        0.62305324873600       -5.10708139480500      h
        2.81478037057000       -1.39475430917000       -3.11034977258800      h
       -7.03854589367700      -10.31529640748400        2.40185694071600      o
       -8.69808895057200      -11.13149016456200        2.31773465454700      h
       -7.30895982189400       -8.51719479688100        2.07278286051100      h
        7.85395637049900       -2.97025987246700        3.59843524039600      o
        6.22174671602500       -2.15552299696300        3.82292884032800      h
        8.92903236356000       -1.75544123740300        2.75234705266800      h
       -2.39145753579800       -5.83327236434900        2.67438230811400      o
       -1.67320524355100       -6.14197499435300        1.03527841351300      h
       -4.18767393689600       -5.57289697236800        2.40105844495300      h
        5.07553116719300       -7.11584739790200        1.55461946985400      o
        5.41029822351000       -5.70841819941400        0.41210176000400      h
        4.24356694446800       -6.42420323673800        3.03480188094300      h
        4.10216578165100        4.14751205182200        3.49953129996600      o
        5.86340854801700        3.88460117201600        4.03983846093500      h
        4.18979252056300        4.83860529343200        1.80967053176100      h
        4.07343525343500        6.05090884404200        8.60783056324100      o
        3.78844760695100        4.34211737991200        8.05985906367200      h
        5.17018513796300        6.83987999314300        7.32336714034200      h
       -2.15673271032100        3.45010694771700        8.75715804946000      o
       -1.76745336052400        4.30847753435200        7.14455771266500      h
       -0.76351285181800        3.71625264245100        9.89847603277600      h
       -1.95642984129700       -7.23458410816800      -14.03973433438900      o
       -2.45338864617900       -6.24273551607300      -12.52881386154000      h
       -0.86530624709800       -8.56557193255100      -13.43180719670400      h
       -0.76727782444800        5.27843079179200        4.36945660760300      o
        1.02931005671000        5.02564552679400        4.13533424244300      h
       -1.09246214567100        7.04423693111800        3.98714016225900      h
       10.88977653367000        6.46953792326600       -5.74702829558500      o
       11.20782501632800        7.53250496742800       -4.27587952664500      h
        9.25610222782400        7.05907166683600       -6.40407319430200      h
       -5.94086168914400       -1.75108396135500      -14.02464700202700      o
       -6.00364931554300       -3.07516648806900      -15.25545273638600      h
       -5.10828987303800       -2.47060874290000      -12.52776462673400      h
        0.54440176114100        3.32975719686100       -5.28083747362800      o
        0.80200267430200        4.42053888653500       -6.73895843804800      h
       -1.26082469624600        3.34270676030200       -4.93613737124700      h
      -14.16900522085900       -2.51066579977400       -7.98958458872600      o
      -14.09191563579300       -0.77673902257300       -8.66850122660200      h
      -12.92200133977800       -3.46450190849100       -8.90605022105400      h
      -10.77346725915600        1.26205700033300       -4.93776128002900      o
       -9.75134755412600        0.91455026733400       -3.44338261927600      h
      -11.06787996653500        3.06142258040300       -5.07142493254500      h
       -6.59784071806100        7.80509683428200        1.00624592901100      o
       -6.26986411906700        6.06000264202600        0.64452692487200      h
       -8.06309040849600        7.85459951774900        2.15104175451500      h
       -8.45167522410200        4.13279569042700       -9.47603380009200      o
       -8.43461326701800        2.28701807575800       -9.43610875852800      h
       -8.23634422367300        4.74238560874700       -7.75292286955000      h
        5.46001479636500       -4.82494937575400      -13.29612822913100      o
        3.87267308614100       -4.21456148493600      -13.99605952323000      h
        4.97190722481200       -5.74284497429100      -11.75739836553100      h
       -7.01989001719400       -5.54961298809400        0.68178316883800      o
       -8.77789488724400       -5.09512090050900        0.36483489955700      h
       -6.14277493518900       -5.33677504830800       -0.92241666507000      h
       -7.80792635137000       -0.73633355446900       -1.35944115852600      o
       -8.62292166844100       -0.82540236328400        0.28267337829300      h
       -6.32802585375600        0.29221365200000       -1.09630062505000      h
       -5.49153828756700       -2.20579367847400        6.54978861827900      o
       -6.71247804185700       -1.72305907154800        5.25058722667000      h
       -5.85968775056600       -4.00058794892300        6.89067387325000      h
      -10.27062474377700        3.19311095246200        0.75705306875800      o
       -9.36183052593800        3.36725191649400        2.33945188177600      h
      -10.58787274834900        4.87843894992800        0.10759915363700      h
       -2.77851343442100        2.23680653926800      -14.14587773405100      o
       -3.97798197091800        0.87989959772600      -14.48265550923300      h
       -2.02107273506000        1.76126607991400      -12.51395307009200      h
        6.83861875054900       -3.83215224686700       -1.93877846735100      o
        6.20365884032900       -2.24037170947200       -1.20274692737200      h
        8.65061581406600       -3.84948772553100       -1.53756797202500      h
      -11.92824331737200       -4.43135748142300       -0.05138078665700      o
      -12.98261867941900       -5.03944087374400       -1.43775930753300      h
      -12.62937198699700       -2.79057298267100        0.39519044110100      h
        9.49503630144700        6.76410259749300        1.04640075520300      o
        8.67024751403700        8.06232624073800        0.01274330457800      h
        8.84194018484500        7.01812643158600        2.74715726371200      h
      -14.10394703336300       -2.85155797964600      -14.18562051249100      o
      -13.01932394109300       -1.39608768184800      -14.45365200122200      h
      -13.09433855434400       -3.98353656976900      -13.15516581589300      h
      -11.47987611655900       -3.92710546159900        8.15304730252400      o
      -11.08968932489700       -5.13877836984200        6.81613968087000      h
      -13.00652603855300       -3.10679577198800        7.52621085569700      h
        9.97624593279000        7.11782693874600      -12.43070781518500      o
        9.51072584241400        6.81743655500200      -14.15389721225000      h
        9.37765052073500        5.61527909249200      -11.49676280307300      h
        8.36335012789500       -7.91265487844300        6.55807791967500      o
        9.90467728507500       -7.33858732478400        5.76360504946900      h
        7.34829109833600       -6.40427309140200        6.93080737766400      h
       11.72008670629600       -3.09696416716800       -1.32711768094500      o
       11.76324055138000       -1.62722626970000       -0.20553682635600      h
       12.30934622020600       -2.55444622204700       -2.97463540062200      h
      -11.02333802533400       -7.09058878550500        4.22735341027300      o
      -12.03672042237800       -8.41964762507000        5.03446607437400      h
      -12.00509798644800       -6.47592536610500        2.79728224640600      h
        3.81517086013900        5.39252191845900       -1.54805896459000      o
        1.96927816871800        5.68385657426000       -1.53150671837300      h
        4.23479661635500        4.79987405713500       -3.23438193300300      h
       -0.63806281868600       -1.16212856425500        7.37001394296500      o
       -1.14673990526400        0.53857226291200        7.89515419955900      h
       -2.22951723152300       -1.92301548483000        6.85120441475500      h
       -4.39047061867300        3.24306780605000       -4.02017531327800      o
       -4.18512306670200        3.08651572594000       -2.18109715617800      h
       -5.59462244088100        4.59719948056700       -4.35087319058300      h
        8.01029945523400       -1.88928538728200       -6.62418740707000      o
        9.38227043675300       -0.67064244295000       -6.62407977678400      h
        7.55465550333700       -2.34735829710400       -4.90644907946300      h
       11.48198007129000      -12.67058477588400       -7.30135694304000      o
       12.49020054981200      -14.16839076928600       -7.32313824086100      h
       12.63664170905600      -11.23990661106600       -7.66190601860000      h
        8.04013283960800        3.01732480076700      -10.33447947914500      o
        8.39297953506200        1.25796038250000      -10.78844264679900      h
        7.38447130910300        2.98124480141100       -8.60376738599800      h
      -10.62507848863300       -5.24610625445200      -11.12476736528700      o
       -9.46923384273900       -6.04079160128700      -12.29269075224400      h
      -11.13056259390300       -6.66415983332300      -10.00953025003400      h
       -9.95646500928600        5.64370140130400      -15.78106006633800      o
       -8.22577452761300        5.98467890948300      -15.27167931290200      h
      -10.97178273703600        6.66226134679300      -14.65279569723000      h
       13.43356636413300       -3.38844071682100       -6.13444092627900      o
       12.51634893116900       -2.97305733470100       -7.64628802397900      h
       15.18083862655000       -3.72774382935500       -6.67366238413200      h
        9.81044422959500        2.79439630758100       -2.00575029735800      o
       11.58227142489100        2.33208414095500       -1.97726929403600      h
        9.66582519891300        4.28881307465900       -0.93026796314000      h
        3.53736577304900       -7.20232803616700       -9.32774230944800      o
        4.30412031802000       -7.64240886995000       -7.70781734763100      h
        2.76376388074600       -8.70465611787600      -10.05597719883100      h
      -15.53786510894300        0.69913120605400       -3.64563354725400      o
      -16.72865471203400        0.50404422423600       -5.03910628113500      h
      -13.82714287496000        0.61832385711400       -4.36610289886600      h
        1.42704035373700       13.12782642852000        9.61900555364000      o
        1.98549743331800       12.26199502828200       11.15528815637300      h
        2.95078940372500       13.30800086572100        8.59255479496600      h
      -11.25845078395800        8.08592277510200      -11.23223198763300      o
      -10.17228268009900        9.38069797859400      -10.55546130780400      h
      -10.59150081694700        6.50709711562400      -10.55690378362100      h
        5.10076823369200       -7.94863719654200       -4.54790891562500      o
        6.24279269596700       -9.36501537783400       -4.26085575143600      h
        5.88877123631500       -6.44967654675900       -3.85013182350300      h
       -0.86566265923800        0.41956298500100       -9.95056783146700      o
       -1.85221373911600       -0.23062894066900       -8.53927172172900      h
        0.92544758178000        0.28685298268500       -9.54690384768200      h
       11.85644741612700       12.54159019739400        2.05676847867600      o
       11.87757521137600       11.59160236704000        0.47104676871400      h
       10.20676732008500       13.37181994252700        2.05170424216600      h
        7.76506492210200        5.90989007180700       12.16001122610600      o
        7.22271616830200        4.90871003754000       13.61942801170300      h
        6.51111454505800        5.59783977149700       10.84873310202300      h
        6.25563284900000        2.71360131140200       15.79706544287300      o
        5.85620864528500        1.05747054701500       15.04767355460400      h
        4.67119033119500        3.26164727203100       16.51904448917600      h
       11.56921950992400        0.40724807581500        2.16227389400700      o
       10.54827513506500        1.45669940484600        3.30252934867200      h
       13.14146820292300        0.02025013962200        3.00017180405700      h
      -14.67644961709000        5.35061806643000        3.50472565752400      o
      -15.06816916565900        5.13990686844700        1.71519709142500      h
      -13.12134719205400        6.35674947842600        3.58717174959500      h
       -7.21725261077900        3.71442432598100        4.81488331887100      o
       -6.38596022814700        5.29971224954000        5.25915558597500      h
       -7.12989399374400        2.68321778509500        6.32448039377200      h
      -10.53850562078200       -8.78402316210600       -3.53032673682900      o
       -8.94784623058100       -9.60249446962300       -3.10410441276300      h
      -11.88571267064700       -9.50484868359600       -2.48745468503300      h
      -22.38246353632100       -4.97586339046400        1.52415335874400      o
      -22.51129226717000       -3.67106967087000        2.85412672362400      h
      -23.62894038814100       -4.56380642452400        0.24367978831900      h
       12.70565451149600       -6.03516167739300        4.21837910570800      o
       11.77332434163900       -6.53497767874600        2.69967116992100      h
       13.58472828821100       -4.44577130563000        3.82506520197000      h
      -13.02492407572500        5.66587257207500       -6.27575194425400      o
      -14.86051499888700        5.54669083361600       -6.30365809218600      h
      -12.65056677983500        7.45902716001100       -6.26860001996300      h
       -7.46259505387700       10.82635844990800       -8.11304801287200      o
       -6.91817148662100       12.51617207682000       -7.55529805003300      h
       -6.03683323939500       10.20021971994800       -9.08443322356700      h
        4.28206519872000       -7.01452479023800       12.15148370831400      o
        2.52282075216200       -6.55269110505600       11.82059889100300      h
        4.50307152068500       -8.72826068867700       11.53647653132300      h
      -17.96973487693000        3.72984403846100        7.84213406581400      o
      -16.78471989556000        5.05295153782700        8.38339152593200      h
      -17.90165339720000        2.43468462382500        9.11098991385200      h
      -14.11145246093900        0.07765315236700        1.09630233166100      o
      -12.69088638408200        1.28974815263200        0.99325276486700      h
      -14.89074019696200        0.02576375806500       -0.57375944858300      h
       11.74850298801600       10.46280163550500       -2.62621334560000      o
       10.58514916627400       11.61011542654000       -3.42064804806600      h
       13.44648927979300       10.88999890906100       -3.28078083155000      h
       -2.94587480365300       -9.81252773409000        5.82047316715800      o
       -3.06304721975400      -11.51793933529900        5.14820361082800      h
       -2.53933163378900       -8.71914033116200        4.39332108091700      h
      -21.71734474795800        4.19612913695500        0.30006874785200      o
      -21.97630793432100        2.79730483316700       -0.87843886489000      h
      -20.36285594944100        3.54500863472500        1.39614435283900      h
        0.83443092414800       -2.83374172918900      -14.06318506845900      o
        0.02440319431000       -2.02348069208400      -12.62515265206200      h
       -0.17848945493200       -4.31353849010800      -14.46925344637800      h
       -6.69092682421800       -7.01173300020500       -7.93636048589800      o
       -7.70468231552500       -5.87794879186600       -6.85360169407100      h
       -5.36268370356700       -7.73686713975600       -6.91754218747000      h
       -4.02411558217800       -5.53473497179400       -3.49037291719600      o
       -4.19750502090700       -4.01514993917200       -4.53878236396600      h
       -2.23050419305600       -5.92607633612200       -3.53674034859300      h
        6.29041337150400        7.86889620993900       -7.16870585274200      o
        5.47776153589800        6.24910472702500       -7.00408929306600      h
        5.92839030460200        8.50740875751200       -8.84666781070700      h
        5.59678110884800       -4.06015906787100        8.35779911461000      o
        4.11440434590900       -4.20586287267900        7.29802371231900      h
        5.21626766350500       -4.99343679885300        9.92516684371500      h
      -10.45697871522300        7.92039603213500        4.13688483855100      o
       -9.89177486179200        7.31801704026400        5.78026662426900      h
      -10.90104750306200        9.72286321751600        4.31744241145200      h
       -5.80529780304600      -10.35152723493800       -2.46333647405800      o
       -5.05969849157900       -8.70413544829900       -2.77849260888500      h
       -5.92873784977100      -10.56339677464600       -0.62279612714300      h
       -5.24751627365800        8.05561099469800        6.41559398357400      o
       -5.95401980009500        9.73982473717800        6.43804818502600      h
       -3.58878271753400        8.14080193714300        7.18099612500400      h
        2.05915244166000        1.67663324213900       11.15156523865000      o
        3.85434865436200        1.38047263803400       10.80338217254500      h
        1.26395609365400        0.06406733539500       10.87380261445900      h
       -6.79197912756100       -6.88071661960700        7.03772667744600      o
       -5.44396671561400       -8.05466724533900        6.60700274176600      h
       -8.14525787105800       -7.18952759837000        5.85245067881400      h
      -17.90565725008700       -0.27664687802300      -12.00248002436800      o
      -16.79706115187200        1.15382474409400      -11.74445824429400      h
      -16.81752913267700       -1.46787684527500      -12.91234393934500      h
      -12.31774721272000       10.87135817306300       -5.86625611520000      o
      -10.68124686159000       11.21946430426700       -6.59259064193300      h
      -12.38034077314700       11.66781327300400       -4.23341731540000      h
      -11.93414437328600       -9.15041882090700       -8.34690045845900      o
      -11.04439879257100      -10.61120380494100       -9.06893385743700      h
      -11.30799742339600       -8.98037917275600       -6.60697541084800      h
      -19.14391882051000       -2.43282666398000        8.99833963840400      o
      -17.73943373039100       -1.71697732608500        9.94790564923400      h
      -18.83789138652700       -4.23656133636600        8.90877682140000      h
        5.26094466247500        9.83295589156600      -11.93466489433000      o
        4.75284985224000        8.17546279142800      -12.57543261477300      h
        7.00047174570600       10.05951145179600      -12.39968614713300      h
        6.44654734048900        9.82036081501300       -1.35950859849900      o
        5.29836128086800        8.40501385358100       -1.63391352474200      h
        6.66082556060700       10.66269851788400       -2.98452550833300      h
        4.10033832614000       -0.46321340508800       -9.87620225857800      o
        4.30923492120600       -1.53047126023500      -11.32562709516300      h
        5.26176026309200       -1.09241151840100       -8.60753441597200      h
        4.09653034486000        4.95220745313200      -12.81753733503200      o
        3.35065959221300        3.82234899492800      -14.09503511696600      h
        5.42222128044600        3.97546042454700      -11.96535084425200      h
       17.97823731994800       -4.17366946266700       -8.04944163776000      o
       17.38934424393100       -3.84529835163400       -9.80018848939200      h
       19.34069065193800       -2.99512086687200       -7.75948868513400      h
       15.96001380709400       -3.12862925666900      -12.42315002292400      o
       15.12883963116600       -1.48402005426300      -12.46910291723400      h
       14.62720306499900       -4.37703866470000      -12.63299393893100      h
       -7.75060381430600       10.22638878662300       11.22361000187300      o
       -8.60019100556200       10.68503594712300       12.75096978581400      h
       -6.15269775027700        9.34667366640100       11.73970528042000      h
       15.82402886548800       -2.22237075209900        3.48190527215800      o
       16.79392534554500       -2.35052675411600        5.05911124733500      h
       16.65572061902300       -3.24053388216300        2.21062349731400      h
       13.71344281706300        0.98457724506200        7.81176789720700      o
       14.30150713808100        1.16945766509300        9.53981799425800      h
       12.44942488118300       -0.35667579385400        7.84183278491600      h
        8.53686707115900        2.86060883398500        5.22432040277000      o
        7.96993077990500        2.00320004075800        6.77451954454700      h
        9.70847788697500        4.19955114586700        5.74405322575700      h
      -10.55779810946500        0.98528042172500      -13.86456131920700      o
      -10.35282619967500        2.57729093385500      -14.79080222494800      h
       -8.92614132852200        0.16031886593200      -13.79713121799700      h
      -15.89281925190800       -6.79728997255100        2.24836823354800      o
      -17.43376961285100       -7.80216426552400        2.45550900165300      h
      -16.41525398011200       -5.23607479807400        1.41907941887000      h
       -9.45144304859200       -1.28451832397300        3.62989472185600      o
      -10.16467383273400       -2.95377466597900        3.64715017459400      h
      -10.56691154415800       -0.20971503386200        4.63443696182300      h
        1.45836773995200       10.85583828772200       -1.87520417373900      o
        0.78053701476100       10.26997806784100       -3.46911020212800      h
        0.03666063938600       11.64403211336000       -1.01893636359200      h
       -8.96054989437800        2.26291477774400       14.03795762595700      o
       -7.44212280663800        2.72032615951800       14.93702486875600      h
       -8.34995726101300        1.82426198623900       12.35098336122800      h
       16.05314147021400        3.21486719648500        4.16521336404400      o
       17.17408421556100        4.49463289503400        4.93056455373800      h
       15.38757628852000        2.14641306487700        5.53777745060300      h
        3.22940021194400       -0.83808484041800        4.22883912472000      o
        3.49992263027300        0.96667666671800        3.94431835827600      h
        1.88398765453400       -1.02026290037500        5.49228706615200      h
       18.75913742873200       -1.74195893697300       -2.64477071709400      o
       19.27143490368400       -0.59187083549300       -1.26758121598000      h
       19.62566853496300       -1.12666602056900       -4.18289360317600      h
       15.06503018553700        5.96442273785500      -12.36724534553900      o
       15.53068326310900        6.51915069763200      -10.66245467804100      h
       13.41682143881200        6.71069989893400      -12.65075251646300      h
        8.77039691293600       -6.52263695514800       -8.49043940720400      o
        8.32373505354300       -4.77453004386500       -8.09711212212700      h
        9.64544140974600       -7.18088740396700       -7.01060371037100      h
      -21.40041795352300        0.15425649431700       -2.70439797072900      o
      -20.05145710248400       -0.78283903148100       -1.82313285004000      h
      -20.79293043261200        0.38247147524800       -4.42688793297700      h
      -18.10086291463100        5.94946300564800       -6.90795525983100      o
      -19.10723895410800        6.74891761335300       -5.60330067055400      h
      -17.61292085661400        7.28337857034900       -8.10932948573800      h
       -6.96286909021800       12.98760493185200        6.91800213259400      o
       -7.28393041492400       12.41142397313100        8.63351669646600      h
       -5.22637997237400       13.59103316627800        6.86331779940800      h
       -6.01684436950300       11.15117089725300       -2.62133211355300      o
       -7.27741938911000       12.51087356455900       -2.59714471593100      h
       -6.47349839919400        9.89721321358400       -1.34082720013300      h
        8.49453184401800       -8.84777838677300      -14.83828609585400      o
        7.94873730061600      -10.02631705073600      -13.54438792248900      h
        7.34378712154000       -7.42447681141900      -14.70886177554200      h
      -11.62234012020800       12.68308357959300        4.60490529997500      o
      -10.17382939792200       13.31344819427800        5.51791916795500      h
      -13.04130510615700       12.52029900982500        5.83291525584500      h
       -0.48576283531200       15.28389019475300       -5.48738499118400      o
        0.15946049420200       13.86295762350000       -6.45736363142300      h
        1.01650336429800       15.92848064521900       -4.62849357415700      h
       12.16025990270300       -6.58226251067600      -12.22100540658200      o
       11.21201529899500       -7.49582531267500      -13.52175956729500      h
       10.87211830738900       -6.22317019045800      -10.93105184149400      h
       -8.47154363813700       -0.93430079535200       -8.97718695754200      o
       -9.10630880359400       -2.41365338771400       -9.85771679909300      h
       -9.53333873341400       -0.72043834291000       -7.48334198865600      h
       -3.74831872027200        2.93754408059800       14.30681556327600      o
       -3.60276705352000        1.35585839176100       13.38332169224400      h
       -2.20310178426800        3.03483822679800       15.30392325702000      h
       -9.00669775284800      -12.79503258208800      -10.19868470292900      o
       -8.18124291414200      -11.72421441333300      -11.43752517672400      h
       -7.77549916676300      -13.19448713707000       -8.90807945394300      h
       -9.42676126804800       -4.09373534286000       -5.02078477843100      o
      -10.19767537913500       -5.53843179674800       -4.19696960145300      h
       -8.78150466915400       -2.99377527258100       -3.70960796728100      h
      -15.81743458194000        5.16889789859800       -1.47965068982700      o
      -17.31882122504700        6.04173106191300       -1.99424159817400      h
      -15.79306448240000        3.52048307593600       -2.36252988913400      h
      -15.13919508238100       -5.38125497569600       -3.80601012352600      o
      -14.62806020349400       -4.20567034059600       -5.11865738958600      h
      -15.75300054673600       -6.88744703769000       -4.67503139212700      h
       14.77742898948500       -3.90793519283100       11.40976441296800      o
       13.05311976463200       -3.73156984070000       12.01307535663900      h
       14.90021326313200       -5.67780213817200       10.92996390151000      h
        1.20076571922200        6.56604187130000       -9.08728675434800      o
       -0.37325358784300        7.16180886759900       -9.79432354217200      h
        2.17062253657700        5.82167253483300      -10.48749693269100      h
       12.04678351087900        1.62173987143700       -7.03182467742500      o
       13.03611900008700        1.26511708609700       -5.49619797797100      h
       11.41679075457600        3.32949773219700       -6.75107580454200      h
      -20.64463772706300       -5.66887951345500       -4.09563981282900      o
      -20.08428973327400       -5.29239109764500       -5.80432428974700      h
      -22.40680256933200       -5.24893126643400       -3.98867069363500      h
        7.07113966915400        8.31563882903800        5.27185945820900      o
        5.57680912271200        9.04177708902300        4.41361696608100      h
        8.05611227039500        9.69073500550600        5.93748363846900      h
        1.02053892225100        2.32769449314600       16.08108665062400      o
        1.46897684756900        2.22369596380600       14.28140563693200      h
        0.89452952230000        0.59310082013000       16.62446366969700      h
       -3.11925902050300       -1.82946838097300       12.21675898185800      o
       -2.07608925447800       -2.83086770225200       11.06786738870800      h
       -4.77857321873600       -2.63649066269400       12.15809056402000      h
        5.07735126864700      -11.86811327323500       10.17186187327900      o
        3.48911269675500      -12.79158803894900       10.17361723650000      h
        5.73537775980800      -12.06678603517500        8.48182857687400      h
       -1.03427208965900        6.32202577317900       -1.10273191860100      o
       -1.53309467398500        7.00317176743400       -2.73010310722700      h
       -1.21313916758300        7.67886068762700        0.10887083810100      h
        5.08829584192600       -1.76721690157300       13.74757159425200      o
        6.33996596452400       -3.09327845455800       13.63085332975200      h
        3.56307746935300       -2.48543237666700       14.46295055195700      h
       -2.62478566577100      -15.09283661867900       -1.65531847872700      o
       -4.24169999935400      -15.35074150049500       -0.78911011992500      h
       -1.37900879168500      -15.98212566276900       -0.66205351322200      h
       -6.28343994694700       16.06046012200100        1.99487233635100      o
       -6.57774359087200       15.04998866580200        3.47347786240900      h
       -4.66429287834500       15.54751343755800        1.29667154064800      h
        5.99774055691700       13.36155336644700        7.31265431114700      o
        6.62541775831400       15.05229916701300        7.45054496219300      h
        6.85296072567400       12.38340161536800        8.65487433757100      h
       17.20477573186000        2.28408175646100       -8.61939790024200      o
       17.25873351530600        2.91939932963100      -10.31545793917900      h
       15.45825609456500        1.89218711325600       -8.23073858653700      h
       16.07123956139000       -5.49283287626500       -0.50940458023500      o
       14.33924002592300       -4.86782976086300       -0.71971478555200      h
       17.09433191063400       -4.39646626198600       -1.56151578206500      h
      -18.47309915131300        1.79598848956600        3.21400594046700      o
      -18.02802847235000        2.63249944205800        4.79854066102500      h
      -16.91370500557800        1.24039629518500        2.40435409620600      h
        4.44251008216000      -14.03678278012200       -7.09978815926400      o
        5.10148804069900      -12.97203249247700       -8.45277190936000      h
        2.94567214509600      -13.22798562697100       -6.38870105057000      h
      -14.57476954357400        6.96595110322800        9.76403915070000      o
      -14.59881416654200        6.23808938993300       11.47130680105200      h
      -12.85267032789700        6.66200512886700        9.20146762466700      h
       -1.14894982259800      -10.72977606766400        0.97479552957400      o
       -0.46468132927700       -9.54763997285100       -0.24776721376900      h
       -1.90150858655600      -12.11015266907000        0.04251946257100      h
      -12.68352812798500       12.31486391762200       -0.40997594548900      o
      -12.30637135598000       12.63494666343000        1.36435144586500      h
      -14.54452439301700       12.12665748165400       -0.46082068964900      h
      -12.40179134606000        1.87668226843300        6.49089325437000      o
      -11.23558394251500        3.03859121119500        7.26030256307700      h
      -13.46527819959600        2.91696006873000        5.38866872907600      h
       16.43400592572700        9.82948610301200        2.57146602917100      o
       15.57533060944500        8.44454631988500        1.63010245905100      h
       15.23132568772900       11.19211915890000        2.65294986674200      h
      -19.13957843445500        0.94707327786500       -7.18405825242800      o
      -18.89300591147900        0.26521473693000       -8.87739243084600      h
      -18.90066457107400        2.76492700120900       -7.33708202465100      h
        7.07421017278800       12.69124242432500       -5.54581074175400      o
        5.45013814142400       12.27096241682800       -6.29901902058300      h
        8.32543888734000       12.19330518567600       -6.79337965902000      h
       10.81672555298400       11.11285730135100       -8.85835982256700      o
       12.55123124262700       11.19348224525000       -8.33761869000200      h
       10.65314412735700        9.66554142613800       -9.95863821434800      h
       10.03289444731600       -8.23880205963500        0.61632188087600      o
       10.27632266775800       -7.85748205733600       -1.18022186573200      h
        8.27521351560000       -7.92379820346000        1.05977395797400      h
        0.69150310578300       -6.93747088017300       -2.02000797143100      o
        1.08215143976500       -5.25110215563700       -1.39412624268900      h
        2.08596280686700       -7.41217998369800       -3.11863586674200      h
       -7.84506966777100       -9.52858060907600       11.58793594456400      o
       -7.84525053986600      -10.47618883585400       10.00604156799900      h
       -9.60843118863400       -9.07743899804000       11.85666326780600      h
      -15.43857811180300       -2.62003595298100        5.36527769012600      o
      -15.07835669299200       -1.73342573658600        3.80758396987800      h
      -16.95931218378500       -1.91649944500600        6.08742771826600      h
       16.63771207988000       -9.05545365328100        3.83430831192600      o
       15.17927844499600       -7.92121122211500        4.10933533047100      h
       15.94873228698500      -10.45671162022300        2.88073093919400      h
       22.04125184895500       -2.24094602194400        4.04393492456600      o
       21.59854935433200       -3.94659175074900        3.48011441100100      h
       21.64228058136900       -2.17355234179900        5.81453816250500      h
       19.21931744270300       -7.72667245489700        8.07677373702700      o
       18.39578602413900       -8.42628281211500        6.58759204581100      h
       18.14689888223800       -8.25790457964900        9.45066701656800      h
      -20.19959292600700       -9.35321833519500        2.70544453270700      o
      -21.29725201740500       -7.91377071928600        2.32922726932700      h
      -20.09194683970400      -10.29457356500900        1.14600428087200      h
       -9.61626367769500        6.11613688369800        8.92617586874400      o
       -8.95244986169700        7.65171935978500        9.72299606751800      h
       -8.51245462853000        4.76281353756600        9.46271228680500      h
       -7.53948651535000       -4.29928491069300       11.57994174541800      o
       -8.49372473904100       -3.94608121010300       10.05407849214800      h
       -7.33340393821900       -6.13075656539000       11.57282441596200      h
       -7.53820969574500      -12.42109589346300        7.25123806794000      o
       -6.49458893982000      -13.89742663205100        7.27769319339200      h
       -7.25974615160100      -11.61730506276900        5.62045408999600      h
      -14.23526866403900      -10.45353904228600       -0.61382366525000      o
      -14.59308719577300       -8.96492613571500        0.45728224017000      h
      -15.85502230859300      -10.77126318655500       -1.42528421950700      h
       14.52097716689500       -8.95445302751700       -8.45443302098800      o
       16.31558204674200       -9.15149242467400       -8.57871446762500      h
       13.91274004782400       -8.12889606707600       -9.99840048682400      h
       12.18269249986300        5.99564092644500        6.31167269300300      o
       12.50655707182100        5.59607508115500        8.10392868771400      h
       13.51346853245400        5.19031519721800        5.34043225232300      h
        8.61785278490600       10.81630909461200       10.73375457762500      o
       10.12651279988900       10.94566614502700        9.69030703530200      h
        8.53051347293300        9.06066184552200       11.27639949286600      h
      -13.63661289262500      -10.40017219957600        6.94436055037600      o
      -15.24582574561100       -9.49192769300000        7.03768018584200      h
      -12.92455035482800      -10.20467086737600        8.60924177656500      h
       12.77853975471300        5.48917614581500       11.24186962380100      o
       11.00650111741400        5.48043121448600       11.74984816826800      h
       13.54858741246700        4.01273855966500       11.99717648052400      h
        7.73513175131500      -12.33353041209700       -3.83473261492800      o
        9.28562852908700      -12.24543350577800       -4.82507814772700      h
        6.53640196859600      -13.24511829306500       -4.96223724900800      h
      -18.11839951191400       -2.98078455790000       -0.36703522766600      o
      -19.66308726380300       -3.86755382156800        0.14086037276100      h
      -17.47869456049600       -3.82820535542300       -1.87881830239600      h
      -12.59919061828200       -7.58291266087300       11.47507382176600      o
      -12.26806257339900       -6.16005301021400       10.31601257072200      h
      -13.26326580378800       -6.82947841919700       12.97957727454100      h
        0.32526618793100      -13.62457586858500        9.00456369497100      o
       -0.70769257998700      -12.55622038709700       10.07660132466800      h
        0.83073322538500      -12.54509143628000        7.57704682567000      h
        1.96289193889400      -10.93439598689500        5.02550766637300      o
        0.96454753346700      -11.07949630942200        3.47536877529500      h
        3.66747052131500      -11.57887545073300        4.71500422977400      h
       11.34980013842600       -7.64736598451000       -4.22486916633600      o
       12.77116089247700       -8.82169562747300       -4.12142014284600      h
       12.14818339208300       -6.06692082176800       -4.76196916587100      h
       10.57606671155900       -2.91154867047800        7.73582198071000      o
        9.36221649320300       -2.86895829745200        6.30845612564700      h
       11.79603039253800       -4.18565185756500        7.28724751853500      h
      -11.65584647344800       -2.24437640952300       13.91160803943100      o
      -10.21375863656700       -3.16658946947200       13.22869081184600      h
      -10.93542924312400       -0.66453389966200       14.49305732147300      h
       -5.76132309634800       15.29142494256100       -6.62420521603700      o
       -3.98841304443100       15.51395944300400       -6.23963854720400      h
       -6.72519421545100       15.78028264763300       -5.15335917004400      h
       22.11432205174500       -5.70184852765600       -2.38887645795700      o
       21.75550366393300       -6.37822468089400       -0.72176071776000      h
       20.86655592400200       -4.37318718249500       -2.65501534230700      h
       -3.73222939228300        7.78825623005800       12.50248834596600      o
       -3.80742977976800        6.03925945173800       13.07147183346500      h
       -2.45523768368300        7.88083396346200       11.18046578891200      h
       -7.87766432915100        6.66376740924200       -5.04145348762700      o
       -9.16353735627300        6.96869850133000       -3.74639815626200      h
       -7.62271675468400        8.26712774902700       -5.90315975142200      h
        8.88145331868600      -14.52597410553900        0.73708317247000      o
        8.49779257880400      -13.99021639100700       -0.97807677487900      h
       10.66614516126400      -14.16995377465800        0.94269244165900      h
      -18.03756594888400        9.12171389469800        4.22543810650500      o
      -16.87118428993000        7.68484384854300        4.12939061799400      h
      -19.66143896754000        8.39429179723300        4.73484916453100      h
      -11.28546609032300      -12.97192368999400        2.62908924771300      o
      -12.01626353766600      -12.63261800176400        4.26708155713300      h
      -12.48727480976800      -12.31294363593800        1.38801159615200      h
      -13.91508034094300        4.08155755162300       13.78511716489900      o
      -12.14629699715400        3.72423498413400       14.10049993871600      h
      -14.56532768981800        2.56940970498200       12.96485326221300      h
       -2.05220940994300       13.87656022785300        6.00141154289200      o
       -1.00782740872100       14.84735802838500        4.85935674049900      h
       -1.03581434810700       13.71815671501100        7.52233509467100      h
       -6.77523912459900        1.62247759096800        9.46298799895500      o
       -5.10077271026300        2.39434599759600        9.59538682633500      h
       -6.42396314270900       -0.06334574883300        8.75496667902900      h
      -17.52643012702400       11.41710638586400       -0.24326251925500      o
      -18.44902073456400       10.27276163435300       -1.32951222337100      h
      -17.78617919579500       10.77123039943200        1.47479517827400      h
      -22.01815219781000        6.30237661289500        5.53742301530500      o
      -20.97751058898500        5.18007525323400        6.54591746667300      h
      -22.52885990603600        5.37869013589100        4.05546293070100      h
        6.93536442287800       13.78769629896800        1.98700959825800      o
        6.31338137356800       13.38494638242800        3.65426724326700      h
        6.52444084955600       12.37066265205700        0.88338256050500      h
       18.10412195508900        4.87505300492300       -3.71617129107200      o
       19.73666021533100        4.04397900147900       -3.62893164986000      h
       18.31303515215300        6.44236998071300       -2.75909446940300      h
       -6.88920955560300       -8.70818743137200      -12.79092296369700      o
       -5.25298331281300       -8.45848058966100      -13.57616393720300      h
       -6.69625710655100       -8.24894646247600      -11.01753919584500      h
      -20.51198924968900        7.83677272583500       -2.69986817536300      o
      -21.04418463030700        6.49326010626400       -1.46233065816200      h
      -21.99162597482000        8.82365439342600       -3.02338185620400      h
      -19.06194380310300      -10.27593305199800       -2.46217329539100      o
      -18.56067345221900      -10.81340094867300       -4.13149346534700      h
      -19.66479853102500       -8.55311247350300       -2.77180129036500      h
      -17.65631726276400       -7.18496001150900        7.16667153554600      o
      -18.92331734171600       -8.02352128131900        6.16380969167100      h
      -16.75975543809300       -6.04967749880300        6.01905744929400      h
      -25.13470458575600       -3.15205797826600       -2.48084823335000      o
      -26.74222679164300       -2.34925842127100       -2.29527244103400      h
      -23.85700160887500       -1.79089408225900       -2.61161871770500      h
      -18.66119984879900       -4.71083382967000       -8.84282756443500      o
      -17.04495679217200       -3.84409458316500       -8.52261192648400      h
      -19.38975095509600       -3.82694521094900      -10.24837323092800      h
      -13.72106601614000        2.05705180283100      -10.00804750075600      o
      -12.44372257492700        1.78465333506600      -11.31070496377700      h
      -13.11545119040100        3.36653743586800       -8.88048303700700      h
       10.32965063256900        0.87018231735800       12.88868146110400      o
        9.61894993428100        1.70706081493400       14.33555565142800      h
       10.26934452776800       -0.91661722595600       13.24621548023400      h
        9.51387168148500       -9.22059313149600       11.34199172655300      o
        8.27271872132200      -10.44079779429700       11.85711278523200      h
        9.11102621397600       -8.85569431781700        9.56168224235500      h
       -5.58526024379800        6.09849740482000      -13.03488749176400      o
       -4.46144786077900        4.71610197214400      -13.60429953773900      h
       -6.64495352823700        5.33585750680200      -11.69954508948500      h
        0.68173516016200      -10.91150234176700      -11.24629640566900      o
        1.05296630811400      -12.67999020177100      -11.23063589675000      h
       -0.59893988396300      -10.57485988683600       -9.91044227996500      h
       -3.45283669181100       -4.26478513192300      -10.41450636503200      o
       -2.13710717841500       -4.09140658009400       -9.10474484655700      h
       -4.81982177276500       -5.16637523086300       -9.53212518712500      h
       16.14896842354900        9.13403137863500        9.70858470486800      o
       15.11434143447500        7.92383713068100       10.61832430119900      h
       14.97159467037600       10.21336754266400        8.81313258566700      h
       15.72364235549400       -9.92342303654500       -2.93189420705600      o
       15.96079610847200       -8.40327997333100       -1.89375194844900      h
       17.07721404600800       -9.80235474593100       -4.18640725208000      h
        0.37692902317800       -2.98459445101600       15.73541254097000      o
        0.18957662712100       -4.73779039106900       16.13265606424600      h
       -0.99246881451400       -2.56627637174000       14.54973602626100      h
       14.42853390072000       -8.87755893497800        9.93472984402200      o
       14.06455761383200       -9.84470764654600        8.41892044661900      h
       12.93111652001100       -9.15555491519000       10.95566539480600      h
        3.56326080073800        9.87309725062600       12.82615169537000      o
        5.29889539849100       10.37033664296200       13.01748377264000      h
        3.57693944501700        8.33215179919100       11.85329899380000      h
        9.61030521530700       -4.26166373248900       12.50401056065800      o
        9.42654731327600       -6.09518452096800       12.50935135856000      h
        9.53138083012100       -3.78441847274400       10.71404854755100      h
       -0.48780411029000        8.51958241062700        8.55446264943400      o
        0.02614941730500       10.26264248108500        8.82927301581300      h
        1.07960730474300        7.57058666863300        8.40338489601800      h
[...]
   382   8 o      383   1 h                                       0.9802277
   382   8 o      384   1 h                                       0.9655666
   385   8 o      386   1 h                                       0.9604154
   385   8 o      387   1 h                                       0.9717625
   388   8 o      389   1 h                                       0.9571548
   388   8 o      390   1 h                                       0.9885475
   391   8 o      392   1 h                                       0.9588423
   391   8 o      393   1 h                                       0.9692714
   394   8 o      395   1 h                                       0.9807186
   394   8 o      396   1 h                                       0.9693735
   397   8 o      398   1 h                                       0.9769863
   397   8 o      399   1 h                                       0.9751703
   400   8 o      401   1 h                                       0.9755408
   400   8 o      402   1 h                                       0.9758008
   403   8 o      404   1 h                                       0.9822083
   403   8 o      405   1 h                                       0.9720881
   406   8 o      407   1 h                                       0.9700454
   406   8 o      408   1 h                                       0.9672403
   409   8 o      410   1 h                                       0.9747408
   409   8 o      411   1 h                                       0.9901858
   412   8 o      413   1 h                                       0.9615986
   412   8 o      414   1 h                                       0.9797758
   415   8 o      416   1 h                                       0.9958586
   415   8 o      417   1 h                                       0.9627316
   418   8 o      419   1 h                                       0.9747654
   418   8 o      420   1 h                                       0.9736126
   421   8 o      422   1 h                                       0.9731062
   421   8 o      423   1 h                                       0.9714321
   424   8 o      425   1 h                                       0.9592835
   424   8 o      426   1 h                                       0.9659615
   427   8 o      428   1 h                                       0.9803688
   427   8 o      429   1 h                                       0.9736458
   430   8 o      431   1 h                                       0.9740562
   430   8 o      432   1 h                                       0.9724271
   433   8 o      434   1 h                                       0.9758050
   433   8 o      435   1 h                                       0.9736268
   436   8 o      437   1 h                                       0.9674320
   436   8 o      438   1 h                                       0.9655269
   439   8 o      440   1 h                                       0.9884678
   439   8 o      441   1 h                                       0.9681958
   442   8 o      443   1 h                                       0.9790647
   442   8 o      444   1 h                                       0.9611170
   445   8 o      446   1 h                                       0.9736460
   445   8 o      447   1 h                                       0.9641883
   448   8 o      449   1 h                                       0.9783920
   448   8 o      450   1 h                                       0.9655986
   451   8 o      452   1 h                                       0.9805620
   451   8 o      453   1 h                                       0.9667809
   454   8 o      455   1 h                                       0.9705149
   454   8 o      456   1 h                                       0.9752967
   457   8 o      458   1 h                                       0.9568304
   457   8 o      459   1 h                                       0.9733234
   460   8 o      461   1 h                                       0.9887646
   460   8 o      462   1 h                                       0.9733149
   463   8 o      464   1 h                                       0.9576321
   463   8 o      465   1 h                                       0.9808115
   466   8 o      467   1 h                                       0.9867024
   466   8 o      468   1 h                                       0.9704052
   469   8 o      470   1 h                                       0.9731066
   469   8 o      471   1 h                                       0.9735120
   472   8 o      473   1 h                                       0.9790756
   472   8 o      474   1 h                                       0.9637832
   475   8 o      476   1 h                                       0.9755020
   475   8 o      477   1 h                                       0.9675887
   478   8 o      479   1 h                                       0.9746902
   478   8 o      480   1 h                                       0.9955303
   481   8 o      482   1 h                                       0.9801040
   481   8 o      483   1 h                                       0.9775943
   484   8 o      485   1 h                                       0.9868267
   484   8 o      486   1 h                                       0.9572390
   487   8 o      488   1 h                                       0.9696589
   487   8 o      489   1 h                                       0.9841257
   490   8 o      491   1 h                                       0.9787171
   490   8 o      492   1 h                                       0.9782417
   493   8 o      494   1 h                                       0.9771911
   493   8 o      495   1 h                                       0.9791494
   496   8 o      497   1 h                                       0.9917832
   496   8 o      498   1 h                                       0.9631708
   499   8 o      500   1 h                                       0.9752480
   499   8 o      501   1 h                                       0.9689851
   502   8 o      503   1 h                                       0.9671969
   502   8 o      504   1 h                                       0.9658634
   505   8 o      506   1 h                                       0.9707930
   505   8 o      507   1 h                                       0.9747628
   508   8 o      509   1 h                                       0.9740868
   508   8 o      510   1 h                                       0.9738906
   511   8 o      512   1 h                                       0.9791382
   511   8 o      513   1 h                                       0.9726359
   514   8 o      515   1 h                                       0.9723055
   514   8 o      516   1 h                                       0.9691532
   517   8 o      518   1 h                                       0.9806594
   517   8 o      519   1 h                                       0.9794221
   520   8 o      521   1 h                                       0.9659786
   520   8 o      522   1 h                                       0.9784590
   523   8 o      524   1 h                                       0.9693829
   523   8 o      525   1 h                                       0.9732037
   526   8 o      527   1 h                                       0.9667406
   526   8 o      528   1 h                                       0.9716362
   529   8 o      530   1 h                                       0.9782122
   529   8 o      531   1 h                                       0.9852777
   532   8 o      533   1 h                                       0.9671989
   532   8 o      534   1 h                                       0.9809564
   535   8 o      536   1 h                                       0.9699339
   535   8 o      537   1 h                                       0.9627863
   538   8 o      539   1 h                                       0.9654866
   538   8 o      540   1 h                                       0.9750133
   541   8 o      542   1 h                                       0.9704995
   541   8 o      543   1 h                                       0.9780655
   544   8 o      545   1 h                                       0.9694483
   544   8 o      546   1 h                                       0.9747530
   547   8 o      549   1 h                                       0.9566145
   550   8 o      551   1 h                                       0.9651900
   550   8 o      552   1 h                                       0.9796805
   553   8 o      554   1 h                                       0.9633651
   553   8 o      555   1 h                                       0.9771466
   556   8 o      557   1 h                                       0.9559017
   556   8 o      558   1 h                                       0.9903384
   559   8 o      560   1 h                                       0.9851821
   559   8 o      561   1 h                                       0.9594911
   562   8 o      563   1 h                                       0.9761454
   562   8 o      564   1 h                                       0.9689760
   565   8 o      566   1 h                                       0.9611389
   565   8 o      567   1 h                                       0.9648049
   568   8 o      569   1 h                                       0.9605274
   568   8 o      570   1 h                                       0.9850287
   571   8 o      572   1 h                                       0.9897456
   571   8 o      573   1 h                                       0.9882601
   574   8 o      575   1 h                                       0.9562757
   574   8 o      576   1 h                                       0.9953546
   577   8 o      578   1 h                                       0.9866963
   577   8 o      579   1 h                                       0.9843422
   580   8 o      581   1 h                                       0.9703803
   580   8 o      582   1 h                                       0.9689884
   583   8 o      584   1 h                                       0.9821644
   583   8 o      585   1 h                                       0.9787086
   586   8 o      587   1 h                                       0.9564210
   586   8 o      588   1 h                                       0.9837673
   589   8 o      590   1 h                                       0.9707963
   589   8 o      591   1 h                                       0.9702649
   592   8 o      593   1 h                                       0.9607566
   592   8 o      594   1 h                                       0.9643727
   595   8 o      596   1 h                                       0.9751222
   595   8 o      597   1 h                                       0.9811860
   598   8 o      599   1 h                                       0.9725822
   598   8 o      600   1 h                                       0.9729088
   601   8 o      602   1 h                                       0.9779325
   601   8 o      603   1 h                                       0.9780280
   604   8 o      605   1 h                                       0.9859433
   604   8 o      606   1 h                                       0.9751724
   607   8 o      608   1 h                                       0.9870497
   607   8 o      609   1 h                                       0.9786621
   610   8 o      611   1 h                                       0.9790246
   610   8 o      612   1 h                                       0.9674729
   613   8 o      614   1 h                                       0.9762489
   613   8 o      615   1 h                                       0.9626222
   616   8 o      617   1 h                                       0.9666453
   616   8 o      618   1 h                                       0.9619588
   619   8 o      620   1 h                                       0.9702618
   619   8 o      621   1 h                                       0.9853217
   622   8 o      623   1 h                                       0.9818596
   622   8 o      624   1 h                                       0.9653827
   625   8 o      626   1 h                                       0.9577232
   625   8 o      627   1 h                                       0.9885765
   628   8 o      629   1 h                                       0.9821118
   628   8 o      630   1 h                                       0.9628978
   631   8 o      632   1 h                                       0.9788966
   631   8 o      633   1 h                                       0.9681776
   634   8 o      635   1 h                                       0.9772637
   634   8 o      636   1 h                                       0.9723568
   637   8 o      638   1 h                                       0.9758947
   637   8 o      639   1 h                                       0.9747248
   640   8 o      641   1 h                                       0.9790573
   640   8 o      642   1 h                                       0.9566791
   643   8 o      644   1 h                                       0.9807064
   643   8 o      645   1 h                                       0.9606284
   646   8 o      647   1 h                                       0.9824238
   646   8 o      648   1 h                                       0.9745494
   649   8 o      650   1 h                                       0.9666736
   649   8 o      651   1 h                                       0.9782595
   652   8 o      653   1 h                                       0.9762047
   652   8 o      654   1 h                                       0.9831491
   655   8 o      656   1 h                                       0.9791202
   655   8 o      657   1 h                                       0.9617031
   658   8 o      659   1 h                                       0.9637559
   658   8 o      660   1 h                                       0.9752197
   661   8 o      662   1 h                                       0.9651253
   661   8 o      663   1 h                                       0.9802197
   664   8 o      665   1 h                                       0.9745655
   664   8 o      666   1 h                                       0.9790372
   667   8 o      668   1 h                                       0.9759457
   667   8 o      669   1 h                                       0.9671878
   670   8 o      671   1 h                                       0.9800924
   670   8 o      672   1 h                                       0.9712143
   673   8 o      674   1 h                                       0.9619857
   673   8 o      675   1 h                                       0.9730488
   676   8 o      677   1 h                                       0.9738241
   676   8 o      678   1 h                                       0.9821567
   679   8 o      680   1 h                                       0.9686113
   679   8 o      681   1 h                                       0.9742969
   682   8 o      683   1 h                                       0.9667348
   682   8 o      684   1 h                                       0.9696345
   685   8 o      686   1 h                                       0.9745628
   685   8 o      687   1 h                                       0.9792063
   688   8 o      689   1 h                                       0.9660325
   688   8 o      690   1 h                                       0.9768772
   691   8 o      692   1 h                                       0.9745181
   691   8 o      693   1 h                                       0.9715471
   694   8 o      695   1 h                                       0.9820699
   694   8 o      696   1 h                                       0.9809169
   697   8 o      698   1 h                                       0.9786010
   697   8 o      699   1 h                                       0.9832693
   700   8 o      701   1 h                                       0.9707256
   700   8 o      702   1 h                                       0.9772734
   703   8 o      704   1 h                                       0.9565580
   706   8 o      707   1 h                                       0.9737091
   706   8 o      708   1 h                                       0.9596766
   709   8 o      710   1 h                                       0.9612530
   709   8 o      711   1 h                                       0.9626924
   712   8 o      713   1 h                                       0.9773840
   712   8 o      714   1 h                                       0.9767744
   715   8 o      716   1 h                                       0.9707252
   715   8 o      717   1 h                                       0.9661571
   718   8 o      719   1 h                                       0.9878500
   718   8 o      720   1 h                                       0.9763878
   721   8 o      722   1 h                                       0.9809129
   721   8 o      723   1 h                                       0.9598168
   724   8 o      725   1 h                                       0.9759481
   724   8 o      726   1 h                                       0.9806696
   727   8 o      728   1 h                                       0.9826466
   727   8 o      729   1 h                                       0.9744451
   730   8 o      731   1 h                                       0.9633818
   730   8 o      732   1 h                                       0.9713436
   733   8 o      734   1 h                                       0.9666955
   733   8 o      735   1 h                                       0.9734452
   736   8 o      737   1 h                                       0.9660374
   736   8 o      738   1 h                                       0.9653909
   739   8 o      740   1 h                                       0.9764818
   739   8 o      741   1 h                                       0.9697293
   742   8 o      743   1 h                                       0.9724462
   742   8 o      744   1 h                                       0.9756124
   745   8 o      746   1 h                                       0.9687582
   745   8 o      747   1 h                                       0.9769034
   748   8 o      749   1 h                                       0.9683398
   748   8 o      750   1 h                                       0.9727114
   751   8 o      752   1 h                                       0.9600899
   751   8 o      753   1 h                                       0.9854126
   754   8 o      755   1 h                                       0.9718764
   754   8 o      756   1 h                                       0.9693227

 * 1 distinct bonds (by element types)

   Z      Z             #   av. dist./Å        max./Å        min./Å
   1 H    8 O         501     0.9739896     0.9967611     0.9555139


optimized geometry written to: xtbopt.coord


           -------------------------------------------------
          | TOTAL ENERGY            -1283.358483716551 Eh   |
          | GRADIENT NORM               0.005736849237 Eh/α |
          | HOMO-LUMO GAP               7.995411805936 eV   |
           -------------------------------------------------

------------------------------------------------------------------------
 * finished run on 2022/11/24 at 09:13:10.825     
------------------------------------------------------------------------
 total:
 * wall-time:     0 d,  0 h,  5 min, 18.460 sec
 *  cpu-time:     0 d,  0 h,  7 min, 51.765 sec
 * ratio c/w:     1.481 speedup
 SCF:
 * wall-time:     0 d,  0 h,  0 min, 20.201 sec
 *  cpu-time:     0 d,  0 h,  0 min, 32.095 sec
 * ratio c/w:     1.589 speedup
 ANC optimizer:
 * wall-time:     0 d,  0 h,  4 min, 57.254 sec
 *  cpu-time:     0 d,  0 h,  7 min, 17.972 sec
 * ratio c/w:     1.473 speedup

