      -----------------------------------------------------------      
     |                   =====================                   |     
     |                           x T B                           |     
     |                   =====================                   |     
     |                         S. Grimme                         |     
     |          Mulliken Center for Theoretical Chemistry        |     
     |                    University of Bonn                     |     
      -----------------------------------------------------------      

   * xtb version 6.5.1 (579679a) compiled by 'ehlert@majestix' on 2022-07-11

   xtb is free software: you can redistribute it and/or modify it under
   the terms of the GNU Lesser General Public License as published by
   the Free Software Foundation, either version 3 of the License, or
   (at your option) any later version.
   
   xtb is distributed in the hope that it will be useful,
   but WITHOUT ANY WARRANTY; without even the implied warranty of
   MERCHANTABILITY or FITNESS FOR A PARTICULAR PURPOSE.  See the
   GNU Lesser General Public License for more details.
   
   Cite this work as:
   * C. Bannwarth, E. Caldeweyher, S. Ehlert, A. Hansen, P. Pracht,
     J. Seibert, S. Spicher, S. Grimme, WIREs Comput. Mol. Sci., 2020, 11,
     e01493. DOI: 10.1002/wcms.1493
   
   for GFN2-xTB:
   * C. Bannwarth, S. Ehlert and S. Grimme., J. Chem. Theory Comput., 2019,
     15, 1652-1671. DOI: 10.1021/acs.jctc.8b01176
   for GFN1-xTB:
   * S. Grimme, C. Bannwarth, P. Shushkov, J. Chem. Theory Comput., 2017,
     13, 1989-2009. DOI: 10.1021/acs.jctc.7b00118
   for GFN0-xTB:
   * P. Pracht, E. Caldeweyher, S. Ehlert, S. Grimme, ChemRxiv, 2019, preprint.
     DOI: 10.26434/chemrxiv.8326202.v1
   for GFN-FF:
   * S. Spicher and S. Grimme, Angew. Chem. Int. Ed., 2020, 59, 15665-15673.
     DOI: 10.1002/anie.202004239
   
   for ALPB and GBSA implicit solvation:
   * S. Ehlert, M. Stahn, S. Spicher, S. Grimme, J. Chem. Theory Comput.,
     2021, 17, 4250-4261. DOI: 10.1021/acs.jctc.1c00471
   
   for DFT-D4:
   * E. Caldeweyher, C. Bannwarth and S. Grimme, J. Chem. Phys., 2017,
     147, 034112. DOI: 10.1063/1.4993215
   * E. Caldeweyher, S. Ehlert, A. Hansen, H. Neugebauer, S. Spicher,
     C. Bannwarth and S. Grimme, J. Chem. Phys., 2019, 150, 154122.
     DOI: 10.1063/1.5090222
   * E. Caldeweyher, J.-M. Mewes, S. Ehlert and S. Grimme, Phys. Chem. Chem. Phys.
     2020, 22, 8499-8512. DOI: 10.1039/D0CP00502A
   
   for sTDA-xTB:
   * S. Grimme and C. Bannwarth, J. Chem. Phys., 2016, 145, 054103.
     DOI: 10.1063/1.4959605
   
   in the mass-spec context:
   * V. Asgeirsson, C. Bauer and S. Grimme, Chem. Sci., 2017, 8, 4879.
     DOI: 10.1039/c7sc00601b
   * J. Koopman and S. Grimme, ACS Omega 2019, 4, 12, 15120-15133.
     DOI: 10.1021/acsomega.9b02011
   
   for metadynamics refer to:
   * S. Grimme, J. Chem. Theory Comput., 2019, 155, 2847-2862
     DOI: 10.1021/acs.jctc.9b00143
   
   for SPH calculations refer to:
   * S. Spicher and S. Grimme, J. Chem. Theory Comput., 2021, 17, 1701-1714
     DOI: 10.1021/acs.jctc.0c01306
   
   with help from (in alphabetical order)
   P. Atkinson, C. Bannwarth, F. Bohle, G. Brandenburg, E. Caldeweyher
   M. Checinski, S. Dohm, S. Ehlert, S. Ehrlich, I. Gerasimov, C. Hölzer
   A. Katbashev, J. Koopman, C. Lavigne, S. Lehtola, F. März, M. Müller,
   F. Musil, H. Neugebauer, J. Pisarek, C. Plett, P. Pracht, F. Pultar,
   J. Seibert, P. Shushkov, S. Spicher, M. Stahn, M. Steiner, T. Strunk,
   J. Stückrath, T. Rose, and J. Unsleber
   
 * started run on 2022/11/24 at 09:28:10.074     

           -------------------------------------------------
          |                Calculation Setup                |
           -------------------------------------------------

          program call               : xtb solvent_cluster.coord --gfn2 --sp --lmo --chrg 0
          hostname                   : cn0341
          coordinate file            : solvent_cluster.coord
          omp threads                :                     2

   ID    Z sym.   atoms
    1    8 o      1, 4, 7, 10, 13, 16, 19, 22, 25, 28, 31, 34, 37, 40, 43,
                  46, 49, 52, 55, 58, 61, 64, 67, 70, 73, 76, 79, 82, 85, 88,
                  91, 94, 97, 100, 103, 106, 109, 112, 115, 118, 121, 124,
                  127, 130, 133, 136, 139, 142, 145, 148, 151, 154, 157, 160,
                  163, 166, 169, 172, 175, 178, 181, 184, 187, 190, 193, 196,
                  199, 202, 205, 208, 211, 214, 217, 220, 223, 226, 229, 232,
                  235, 238, 241, 244, 247, 250, 253, 256, 259, 262, 265, 268,
                  271, 274, 277, 280, 283, 286, 289, 292, 295, 298, 301, 304,
                  307, 310, 313, 316, 319, 322, 325, 328, 331, 334, 337, 340,
                  343, 346, 349, 352, 355, 358, 361, 364, 367, 370, 373, 376,
                  379, 382, 385, 388, 391, 394, 397, 400, 403, 406, 409, 412,
                  415, 418, 421, 424, 427, 430, 433, 436, 439, 442, 445, 448,
                  451, 454, 457, 460, 463, 466, 469, 472, 475, 478, 481, 484,
                  487, 490, 493, 496, 499, 502, 505, 508, 511, 514, 517, 520,
                  523, 526, 529, 532, 535, 538, 541, 544, 547, 550, 553, 556,
                  559, 562, 565, 568, 571, 574, 577, 580, 583, 586, 589, 592,
                  595, 598, 601, 604, 607, 610, 613, 616, 619, 622, 625, 628,
                  631, 634, 637, 640, 643, 646, 649, 652, 655, 658, 661, 664,
                  667, 670, 673, 676, 679, 682, 685, 688, 691, 694, 697, 700,
                  703, 706, 709, 712, 715, 718, 721, 724, 727, 730, 733, 736,
                  739, 742, 745, 748, 751, 754
    2    1 h      2, 3, 5, 6, 8, 9, 11, 12, 14, 15, 17, 18, 20, 21, 23, 24,
                  26, 27, 29, 30, 32, 33, 35, 36, 38, 39, 41, 42, 44, 45, 47,
                  48, 50, 51, 53, 54, 56, 57, 59, 60, 62, 63, 65, 66, 68, 69,
                  71, 72, 74, 75, 77, 78, 80, 81, 83, 84, 86, 87, 89, 90, 92,
                  93, 95, 96, 98, 99, 101, 102, 104, 105, 107, 108, 110, 111,
                  113, 114, 116, 117, 119, 120, 122, 123, 125, 126, 128, 129,
                  131, 132, 134, 135, 137, 138, 140, 141, 143, 144, 146, 147,
                  149, 150, 152, 153, 155, 156, 158, 159, 161, 162, 164, 165,
                  167, 168, 170, 171, 173, 174, 176, 177, 179, 180, 182, 183,
                  185, 186, 188, 189, 191, 192, 194, 195, 197, 198, 200, 201,
                  203, 204, 206, 207, 209, 210, 212, 213, 215, 216, 218, 219,
                  221, 222, 224, 225, 227, 228, 230, 231, 233, 234, 236, 237,
                  239, 240, 242, 243, 245, 246, 248, 249, 251, 252, 254, 255,
                  257, 258, 260, 261, 263, 264, 266, 267, 269, 270, 272, 273,
                  275, 276, 278, 279, 281, 282, 284, 285, 287, 288, 290, 291,
                  293, 294, 296, 297, 299, 300, 302, 303, 305, 306, 308, 309,
                  311, 312, 314, 315, 317, 318, 320, 321, 323, 324, 326, 327,
                  329, 330, 332, 333, 335, 336, 338, 339, 341, 342, 344, 345,
                  347, 348, 350, 351, 353, 354, 356, 357, 359, 360, 362, 363,
                  365, 366, 368, 369, 371, 372, 374, 375, 377, 378, 380, 381,
                  383, 384, 386, 387, 389, 390, 392, 393, 395, 396, 398, 399,
                  401, 402, 404, 405, 407, 408, 410, 411, 413, 414, 416, 417,
                  419, 420, 422, 423, 425, 426, 428, 429, 431, 432, 434, 435,
                  437, 438, 440, 441, 443, 444, 446, 447, 449, 450, 452, 453,
                  455, 456, 458, 459, 461, 462, 464, 465, 467, 468, 470, 471,
                  473, 474, 476, 477, 479, 480, 482, 483, 485, 486, 488, 489,
                  491, 492, 494, 495, 497, 498, 500, 501, 503, 504, 506, 507,
                  509, 510, 512, 513, 515, 516, 518, 519, 521, 522, 524, 525,
                  527, 528, 530, 531, 533, 534, 536, 537, 539, 540, 542, 543,
                  545, 546, 548, 549, 551, 552, 554, 555, 557, 558, 560, 561,
                  563, 564, 566, 567, 569, 570, 572, 573, 575, 576, 578, 579,
                  581, 582, 584, 585, 587, 588, 590, 591, 593, 594, 596, 597,
                  599, 600, 602, 603, 605, 606, 608, 609, 611, 612, 614, 615,
                  617, 618, 620, 621, 623, 624, 626, 627, 629, 630, 632, 633,
                  635, 636, 638, 639, 641, 642, 644, 645, 647, 648, 650, 651,
                  653, 654, 656, 657, 659, 660, 662, 663, 665, 666, 668, 669,
                  671, 672, 674, 675, 677, 678, 680, 681, 683, 684, 686, 687,
                  689, 690, 692, 693, 695, 696, 698, 699, 701, 702, 704, 705,
                  707, 708, 710, 711, 713, 714, 716, 717, 719, 720, 722, 723,
                  725, 726, 728, 729, 731, 732, 734, 735, 737, 738, 740, 741,
                  743, 744, 746, 747, 749, 750, 752, 753, 755, 756

molecular fragmentation (1/2 indicates fragments):
111222222222222222222222222222222222222222222222222222222222222222222222
222222222222222222222222222222222222222222222222222222222222222222222222
222222222222222222222222222222222222222222222222222222222222222222222222
222222222222222222222222222222222222222222222222222222222222222222222222
222222222222222222222222222222222222222222222222222222222222222222222222
222222222222222222222222222222222222222222222222222222222222222222222222
222222222222222222222222222222222222222222222222222222222222222222222222
222222222222222222222222222222222222222222222222222222222222222222222222
222222222222222222222222222222222222222222222222222222222222222222222222
222222222222222222222222222222222222222222222222222222222222222222222222
222222222222222222222222222222222222
# atoms in fragment 1/2:     3   753
 fragment masses (1/2) :       18.02     4521.84
CMA distance (Bohr)    :  16.036
constraining FC (au)   :  0.0500

           -------------------------------------------------
          |                 G F N 2 - x T B                 |
           -------------------------------------------------

        Reference                      10.1021/acs.jctc.8b01176
      * Hamiltonian:
        H0-scaling (s, p, d)           1.850000    2.230000    2.230000
        zeta-weighting                 0.500000
      * Dispersion:
        s8                             2.700000
        a1                             0.520000
        a2                             5.000000
        s9                             5.000000
      * Repulsion:
        kExp                           1.500000    1.000000
        rExp                           1.000000
      * Coulomb:
        alpha                          2.000000
        third order                    shell-resolved
        anisotropic                    true
        a3                             3.000000
        a5                             4.000000
        cn-shift                       1.200000
        cn-exp                         4.000000
        max-rad                        5.000000


          ...................................................
          :                      SETUP                      :
          :.................................................:
          :  # basis functions                1512          :
          :  # atomic orbitals                1512          :
          :  # shells                         1008          :
          :  # electrons                      2016          :
          :  max. iterations                   250          :
          :  Hamiltonian                  GFN2-xTB          :
          :  restarted?                      false          :
          :  GBSA solvation                  false          :
          :  PC potential                    false          :
          :  electronic temp.          300.0000000     K    :
          :  accuracy                    1.0000000          :
          :  -> integral cutoff          0.2500000E+02      :
          :  -> integral neglect         0.1000000E-07      :
          :  -> SCF convergence          0.1000000E-05 Eh   :
          :  -> wf. convergence          0.1000000E-03 e    :
          :  Broyden damping             0.4000000          :
          ...................................................

 iter      E             dE          RMSdq      gap      omega  full diag
   1  -1291.0032659 -0.129100E+04  0.406E+00    8.50       0.0  T
   2  -1291.0742688 -0.710029E-01  0.241E+00    8.48       1.0  T
   3  -1291.1046064 -0.303376E-01  0.206E-01    7.78       1.0  T
   4  -1291.1096131 -0.500666E-02  0.452E-02    8.01       1.0  T
   5  -1291.1096777 -0.646370E-04  0.302E-02    7.98       1.0  T
   6  -1291.1097149 -0.371853E-04  0.429E-03    8.00       1.0  T
   7  -1291.1097172 -0.234262E-05  0.804E-04    8.00       4.5  T
   8  -1291.1097173 -0.398445E-07  0.401E-04    8.00       9.1  T
   9  -1291.1097173 -0.158229E-07  0.662E-05    8.00      55.0  T

   *** convergence criteria satisfied after 9 iterations ***

         #    Occupation            Energy/Eh            Energy/eV
      -------------------------------------------------------------
         1        2.0000           -0.6946403             -18.9021
       ...           ...                  ...                  ...
      1002        2.0000           -0.4166798             -11.3384
      1003        2.0000           -0.4164776             -11.3329
      1004        2.0000           -0.4160783             -11.3221
      1005        2.0000           -0.4151380             -11.2965
      1006        2.0000           -0.4139534             -11.2642
      1007        2.0000           -0.4115681             -11.1993
      1008        2.0000           -0.4061407             -11.0517 (HOMO)
      1009                         -0.1123162              -3.0563 (LUMO)
      1010                         -0.1011740              -2.7531
      1011                         -0.0896826              -2.4404
      1012                         -0.0828710              -2.2550
      1013                         -0.0766568              -2.0859
       ...                                ...                  ...
      1512                          0.4132438              11.2449
      -------------------------------------------------------------
                  HL-Gap            0.2938245 Eh            7.9954 eV
             Fermi-level           -0.2592284 Eh           -7.0540 eV
 
 localization/xTB-IFF output generation
 averaging CT terms over            5  occ. levels
 averaging CT terms over            1  virt. levels
 dipole moment from electron density (au)
     X       Y       Z   
   1.8978  -1.8822   1.2094  total (Debye):    7.457
cpu  time for init local    0.83 s
wall time for init local    0.43 s
 doing rotations ...
 initialization of trafo matrix to unity

 converged in     17 iterations, threshold :   0.99998296D-06
 doing transformations ...
 lmo centers(Z=2) and atoms on file <lmocent.coord>
 LMO Fii/eV  ncent    charge center   contributions...
    1 LP   *******   0.00 -91.98749 -30.27604 -25.90283  466O : 22.81  361O : 19.75  610O : 17.17  607O : 16.77  454O : 15.87   55O : 15.66  127O : 15.06   49O : 14.95  502O : 14.17  130O : 14.03  664O : 14.02  637O : 13.42
  319O : 13.23  160O : 13.15  646O : 12.85  370O : 12.66  553O : 12.62  727O : 12.56  418O : 12.52  187O : 12.27  139O : 12.15   22O : 11.96   64O : 11.81  601O : 11.76
  595O : 11.23  706O : 11.01  469O : 10.80  274O : 10.78   19O : 10.68  481O : 10.57  244O :  9.94  280O :  9.82  517O :  9.29  277O :  9.22  247O :  9.18  205O :  9.13
  217O :  9.02  331O :  9.01  343O :  9.00   70O :  8.98   88O :  8.59  616O :  8.40  529O :  8.14  442O :  8.07  490O :  7.43  634O :  7.41  535O :  7.31  367O :  7.19
  283O :  7.11  688O :  7.08  184O :  7.07  334O :  7.04  691O :  7.00  337O :  6.99  703O :  6.98  580O :  6.97  406O :  6.90  577O :  6.85   25O :  6.47  538O :  6.41
  751O :  6.40  643O :  6.22  748O :  6.18  496O :  6.18  694O :  6.11  109O :  6.05  163O :  5.96  733O :  5.94  202O :  5.90  379O :  5.87  253O :  5.83  652O :  5.83
  391O :  5.75  736O :  5.65  355O :  5.58  583O :  5.58  667O :  5.56  118O :  5.53  682O :  5.51  523O :  5.37  322O :  5.35   91O :  5.27  313O :  5.24  292O :  5.15
  259O :  5.11  730O :  5.07  556O :  4.78  376O :  4.77  700O :  4.74  475O :  4.70  541O :  4.62  340O :  4.61  346O :  4.53  631O :  4.52  544O :  4.50  619O :  4.42
   73O :  4.39  304O :  4.36  328O :  4.26   97O :  4.25  586O :  4.20    4O :  4.19  685O :  4.13  673O :  4.01  613O :  3.97  373O :  3.90  445O :  3.90  568O :  3.84
  196O :  3.83  670O :  3.83  364O :  3.82  487O :  3.78  136O :  3.76  655O :  3.75  622O :  3.71  665H :  3.69  715O :  3.66  193O :  3.61  382O :  3.52  430O :  3.52
  709O :  3.44  142O :  3.41  628O :  3.37  250O :  3.37  289O :  3.35  178O :  3.34  403O :  3.31  508O :  3.30   10O :  3.29  724O :  3.24  112O :  3.22  505O :  3.18
  415O :  3.15  721O :  3.14  484O :  3.09  295O :  3.06  433O :  3.06  262O :  3.06  397O :  3.02  424O :  3.02  739O :  3.02  451O :  3.01  604O :  3.00  307O :  2.97
  316O :  2.97  310O :  2.96  550O :  2.95  100O :  2.94  268O :  2.94   31O :  2.91  103O :  2.91  388O :  2.91  419H :  2.88  115O :  2.86  448O :  2.86  571O :  2.86
  400O :  2.84   16O :  2.83  265O :  2.78  157O :  2.78  106O :  2.68  190O :  2.66  532O :  2.50  385O :  2.49   76O :  2.46  460O :  2.46  640O :  2.44   94O :  2.42
  649O :  2.40  166O :  2.36  520O :  2.34  298O :  2.34  214O :  2.33  658O :  2.32  208O :  2.31  148O :  2.30   58O :  2.30  199O :  2.28   43O :  2.25  412O :  2.24
  325O :  2.22  499O :  2.21  661O :  2.13  151O :  2.12  301O :  2.08  547O :  2.06  754O :  2.04   79O :  2.03  189H :  2.01  145O :  1.96   82O :  1.92  514O :  1.79
  562O :  1.77  679O :  1.77  439O :  1.75  574O :  1.73  133O :  1.72   67O :  1.69  226O :  1.67  352O :  1.67  589O :  1.65  380H :  1.62  286O :  1.60  608H :  1.57
  169O :  1.54  745O :  1.53  241O :  1.51  256O :  1.50  366H :  1.48  232O :  1.47  472O :  1.47  692H :  1.46  356H :  1.44   52O :  1.44  238O :  1.44  121O :  1.42
  175O :  1.41  235O :  1.38   40O :  1.36   66H :  1.35  463O :  1.35  584H :  1.32    1O :  1.31  293H :  1.30  436O :  1.30  559O :  1.30  701H :  1.29  488H :  1.27
  120H :  1.22  427O :  1.22   37O :  1.21  511O :  1.18  749H :  1.17  491H :  1.16  421O :  1.16  526O :  1.15  457O :  1.13  358O :  1.11  500H :  1.09  564H :  1.09
    7O :  1.08  654H :  1.08  271O :  1.08  645H :  1.04   20H :  1.02  519H :  1.02  704H :  0.99  284H :  0.99  578H :  0.98  737H :  0.96  211O :  0.94  281H :  0.93
  669H :  0.93  447H :  0.92  172O :  0.92  478O :  0.90   13O :  0.87  282H :  0.86  154O :  0.86  258H :  0.85  707H :  0.83  742O :  0.81  493O :  0.81  165H :  0.80
  336H :  0.77  592O :  0.77  314H :  0.72  718O :  0.71  473H :  0.69  687H :  0.69  372H :  0.69  192H :  0.69   61O :  0.68   24H :  0.68  349O :  0.68  342H :  0.67
  625O :  0.67  394O :  0.66   11H :  0.64  264H :  0.64  569H :  0.63  470H :  0.63  668H :  0.62  119H :  0.62  639H :  0.60  598O :  0.60  124O :  0.59  738H :  0.59
   28O :  0.58  291H :  0.58  712O :  0.58  531H :  0.57  220O :  0.55  483H :  0.54  229O :  0.54  708H :  0.53  339H :  0.52  467H :  0.51  660H :  0.50  161H :  0.50
  107H :  0.50  570H :  0.49   21H :  0.49  697O :  0.49  375H :  0.48   51H :  0.47  542H :  0.46  557H :  0.46  593H :  0.46   69H :  0.46  477H :  0.46    8H :  0.46
  368H :  0.45  223O :  0.45   27H :  0.45  131H :  0.45  603H :  0.44  752H :  0.44  453H :  0.44  275H :  0.44  753H :  0.43  587H :  0.43  702H :  0.43  137H :  0.43
  663H :  0.43  647H :  0.42  565O :  0.42  320H :  0.42  554H :  0.42  509H :  0.41  623H :  0.41   90H :  0.41  731H :  0.41  164H :  0.41   29H :  0.41  392H :  0.41
  141H :  0.41  330H :  0.40  471H :  0.40  431H :  0.39  212H :  0.39  710H :  0.39  534H :  0.39  300H :  0.38   34O :  0.38  672H :  0.37  485H :  0.36  236H :  0.35
  690H :  0.35  308H :  0.35  140H :  0.35  510H :  0.35   85O :  0.34  696H :  0.34  219H :  0.34  357H :  0.34  474H :  0.34  209H :  0.33  686H :  0.33  732H :  0.33
  315H :  0.32  179H :  0.32   44H :  0.32  624H :  0.32  585H :  0.32  353H :  0.32  581H :  0.31   99H :  0.31  543H :  0.31  260H :  0.31  278H :  0.31  551H :  0.30
  197H :  0.30  653H :  0.30  117H :  0.30   18H :  0.29  181O :  0.29  305H :  0.29  417H :  0.28  409O :  0.28  440H :  0.28  650H :  0.28  105H :  0.28  426H :  0.27
  444H :  0.27  270H :  0.26  138H :  0.26  101H :  0.26  381H :  0.25  383H :  0.25  530H :  0.25  456H :  0.25   83H :  0.25  620H :  0.25  561H :  0.25  111H :  0.25
  149H :  0.25  114H :  0.25  525H :  0.25  399H :  0.25  644H :  0.24  611H :  0.24   80H :  0.24  318H :  0.24  249H :  0.24  747H :  0.24  228H :  0.24  233H :  0.23
  536H :  0.23  515H :  0.23  632H :  0.23  548H :  0.23  755H :  0.22  549H :  0.22  170H :  0.22  609H :  0.22  537H :  0.22  276H :  0.21  582H :  0.21  597H :  0.20
  290H :  0.20  671H :  0.20  527H :  0.20  204H :  0.20  512H :  0.20   89H :  0.19   46O :  0.19  309H :  0.19  666H :  0.19  359H :  0.19  362H :  0.18   30H :  0.18
  503H :  0.18  345H :  0.18  132H :  0.17  720H :  0.17    5H :  0.17  198H :  0.17  195H :  0.16  497H :  0.16  618H :  0.16  243H :  0.16  216H :  0.15  344H :  0.15
  176H :  0.15  518H :  0.15  324H :  0.15  642H :  0.15   17H :  0.15  459H :  0.15  393H :  0.15  174H :  0.15  242H :  0.14  407H :  0.14  261H :  0.14  269H :  0.14
  476H :  0.14  206H :  0.13  224H :  0.13  333H :  0.13  651H :  0.13  725H :  0.13  575H :  0.13  158H :  0.12  213H :  0.12  221H :  0.12  579H :  0.12  494H :  0.12
   68H :  0.12  408H :  0.12   81H :  0.12   57H :  0.12  296H :  0.11  489H :  0.11  437H :  0.11  108H :  0.11  395H :  0.11  194H :  0.11  156H :  0.11  723H :  0.11
   65H :  0.11  425H :  0.11  153H :  0.10  614H :  0.10  729H :  0.10  728H :  0.10  311H :  0.10  110H :  0.10  674H :  0.10  627H :  0.10  546H :  0.10  648H :  0.10
  317H :  0.10   62H :  0.10  566H :  0.10  384H :  0.10  129H :  0.10  513H :  0.10  434H :  0.10   50H :  0.09  152H :  0.09  251H :  0.09  528H :  0.09  162H :  0.09
  321H :  0.09   41H :  0.09  173H :  0.08  104H :  0.08   77H :  0.08  560H :  0.08  602H :  0.08  716H :  0.08  255H :  0.08  167H :  0.08  203H :  0.08  621H :  0.08
  207H :  0.08  396H :  0.07  689H :  0.07  443H :  0.07   75H :  0.07  699H :  0.07  402H :  0.07  254H :  0.07  287H :  0.07   72H :  0.07  605H :  0.07  273H :  0.07
  338H :  0.07
    2 LP   *******   0.00 -40.62764 -14.49336 -32.38012  466O : 20.99  664O : 16.32  361O : 16.01  610O : 15.80  607O : 15.43  454O : 14.60   55O : 14.38  127O : 13.87   49O : 13.78  502O : 13.04  130O : 12.91  637O : 12.35
  319O : 12.16  160O : 12.10  646O : 11.82  370O : 11.65  553O : 11.61  727O : 11.56  418O : 11.52  187O : 11.29  139O : 11.17   22O : 11.01   64O : 10.87  601O : 10.83
  595O : 10.33  706O : 10.13  469O :  9.94  274O :  9.92  481O :  9.90   19O :  9.83  244O :  9.13  280O :  9.04  517O :  8.55  277O :  8.49  247O :  8.45  205O :  8.40
  217O :  8.30  331O :  8.29  343O :  8.29   70O :  8.25   88O :  7.90  616O :  7.73  529O :  7.49  442O :  7.43  490O :  6.84  634O :  6.82  535O :  6.72  367O :  6.61
  283O :  6.53  688O :  6.51  184O :  6.51  334O :  6.45  691O :  6.44  337O :  6.43  703O :  6.42  580O :  6.41  406O :  6.35  577O :  6.15   25O :  5.96  538O :  5.90
  751O :  5.90  643O :  5.73  748O :  5.69  496O :  5.69  694O :  5.62  109O :  5.58  163O :  5.49  733O :  5.46  202O :  5.43  379O :  5.40  253O :  5.37  652O :  5.36
  391O :  5.29  665H :  5.24  736O :  5.20  355O :  5.14  583O :  5.14  667O :  5.11  118O :  5.09  682O :  5.07  523O :  4.94  322O :  4.92   91O :  4.84  313O :  4.82
  292O :  4.74  259O :  4.70  730O :  4.67  376O :  4.43  556O :  4.38  700O :  4.36  475O :  4.32  541O :  4.25  340O :  4.24  346O :  4.17  631O :  4.16  544O :  4.14
  619O :  4.07   73O :  4.04  304O :  4.02  328O :  3.92   97O :  3.91  586O :  3.87    4O :  3.82  685O :  3.80  673O :  3.69  613O :  3.66  373O :  3.59  445O :  3.59
  568O :  3.54  196O :  3.53  670O :  3.52  364O :  3.52  487O :  3.48  136O :  3.46  655O :  3.45  622O :  3.41  715O :  3.37  193O :  3.33  382O :  3.24  430O :  3.24
  709O :  3.17  142O :  3.13  628O :  3.10  250O :  3.10  289O :  3.08  178O :  3.08  403O :  3.04  508O :  3.03   10O :  3.03  724O :  2.98  112O :  2.97  505O :  2.92
  415O :  2.90  721O :  2.89  484O :  2.84  550O :  2.82  295O :  2.82  433O :  2.81  262O :  2.81  397O :  2.78  424O :  2.78  739O :  2.77  451O :  2.77  604O :  2.76
  310O :  2.75  307O :  2.74  316O :  2.73  100O :  2.71  268O :  2.71   31O :  2.68  103O :  2.68  388O :  2.68  419H :  2.65  448O :  2.64  571O :  2.63  400O :  2.61
   16O :  2.61  265O :  2.56  157O :  2.56  106O :  2.47  190O :  2.45  115O :  2.31  532O :  2.30  385O :  2.29   76O :  2.27  460O :  2.26  640O :  2.24   94O :  2.23
  649O :  2.21  166O :  2.18  520O :  2.16  298O :  2.15  658O :  2.13  208O :  2.12  214O :  2.12  148O :  2.12   58O :  2.11  199O :  2.10   43O :  2.07  412O :  2.06
  325O :  2.04  499O :  2.03  661O :  1.96  151O :  1.95  301O :  1.92  547O :  1.90  754O :  1.88   79O :  1.87  189H :  1.85  145O :  1.80   82O :  1.77  514O :  1.65
  562O :  1.63  679O :  1.63  439O :  1.61  574O :  1.59  133O :  1.58   67O :  1.56  226O :  1.54  352O :  1.54  589O :  1.52  380H :  1.49  286O :  1.47  608H :  1.45
  169O :  1.42  745O :  1.41  241O :  1.39  256O :  1.38  366H :  1.36  232O :  1.36  472O :  1.35  692H :  1.35  356H :  1.33  238O :  1.32   52O :  1.31  121O :  1.30
  175O :  1.30  235O :  1.27   40O :  1.25   66H :  1.25  463O :  1.24  559O :  1.22  584H :  1.21    1O :  1.20  293H :  1.20  436O :  1.20  701H :  1.19  488H :  1.16
  120H :  1.12  427O :  1.12   37O :  1.10  511O :  1.10  749H :  1.08  491H :  1.07  421O :  1.07  526O :  1.06  457O :  1.04  358O :  1.02  564H :  1.00  500H :  1.00
    7O :  0.99  654H :  0.99  271O :  0.99  645H :  0.95   20H :  0.94  519H :  0.94  704H :  0.91  284H :  0.91  737H :  0.88  211O :  0.87  578H :  0.86  281H :  0.86
  669H :  0.85  447H :  0.85  172O :  0.85  478O :  0.82   13O :  0.80  282H :  0.79  258H :  0.78  154O :  0.78  707H :  0.76  742O :  0.75  493O :  0.74  165H :  0.73
  336H :  0.72  592O :  0.71  314H :  0.66  718O :  0.65  473H :  0.64  687H :  0.64  372H :  0.63  192H :  0.63   61O :  0.63   24H :  0.62  342H :  0.62  625O :  0.61
  349O :  0.61  394O :  0.60   11H :  0.59  264H :  0.59  569H :  0.58  470H :  0.58  668H :  0.57  483H :  0.57  119H :  0.57  639H :  0.55  598O :  0.55  124O :  0.54
  738H :  0.54   28O :  0.54  291H :  0.54  712O :  0.53  531H :  0.53  220O :  0.51  229O :  0.50  708H :  0.49  339H :  0.48  467H :  0.47  660H :  0.46  161H :  0.46
  107H :  0.46  570H :  0.45   21H :  0.45  697O :  0.45  375H :  0.44  542H :  0.43  593H :  0.42  557H :  0.42  477H :  0.42   69H :  0.42    8H :  0.42  368H :  0.42
   51H :  0.42  223O :  0.41   27H :  0.41  131H :  0.41  752H :  0.41  603H :  0.41  453H :  0.40  275H :  0.40  753H :  0.40  587H :  0.40  702H :  0.40  137H :  0.40
  663H :  0.39  647H :  0.39  565O :  0.39  320H :  0.38  554H :  0.38  509H :  0.38  623H :  0.38   90H :  0.38  731H :  0.38  164H :  0.38   29H :  0.38  392H :  0.37
  141H :  0.37  212H :  0.37  330H :  0.37  471H :  0.37  431H :  0.36  710H :  0.36  534H :  0.36   34O :  0.35  300H :  0.35  672H :  0.34  485H :  0.33  236H :  0.33
  690H :  0.33  308H :  0.32  140H :  0.32  510H :  0.32  696H :  0.32  219H :  0.32   85O :  0.32  357H :  0.31  474H :  0.31  209H :  0.31  686H :  0.30  732H :  0.30
  315H :  0.30  179H :  0.30  624H :  0.29   44H :  0.29  585H :  0.29  353H :  0.29  581H :  0.29   99H :  0.29  543H :  0.29  260H :  0.29  278H :  0.28  551H :  0.28
  197H :  0.28  653H :  0.27   18H :  0.27  650H :  0.27  181O :  0.26  305H :  0.26  417H :  0.26  409O :  0.26  440H :  0.26  105H :  0.26  117H :  0.26  426H :  0.25
  444H :  0.25  362H :  0.25  270H :  0.24  138H :  0.24  101H :  0.24  561H :  0.23  381H :  0.23  530H :  0.23  383H :  0.23  456H :  0.23   83H :  0.23  620H :  0.23
  111H :  0.23  149H :  0.23  525H :  0.23  114H :  0.23  399H :  0.23  644H :  0.22  611H :  0.22   80H :  0.22  318H :  0.22  249H :  0.22  747H :  0.22  228H :  0.22
  233H :  0.21  536H :  0.21  515H :  0.21  632H :  0.21  548H :  0.21  755H :  0.20  549H :  0.20  170H :  0.20  609H :  0.20  537H :  0.20  276H :  0.20  582H :  0.19
  597H :  0.18  290H :  0.18  671H :  0.18  512H :  0.18  527H :  0.18  204H :  0.18   89H :  0.18  309H :  0.18   46O :  0.18  359H :  0.17   30H :  0.16  503H :  0.16
  345H :  0.16    5H :  0.16  132H :  0.16  720H :  0.15  198H :  0.15  195H :  0.15  497H :  0.15  216H :  0.14  618H :  0.14  243H :  0.14  176H :  0.14  344H :  0.14
  518H :  0.14  324H :  0.14  642H :  0.14   17H :  0.14  666H :  0.14  459H :  0.14  393H :  0.14  174H :  0.14  242H :  0.13  407H :  0.13  261H :  0.13  269H :  0.13
  476H :  0.13  206H :  0.12  579H :  0.12  224H :  0.12  651H :  0.12  333H :  0.12  725H :  0.12  575H :  0.12  213H :  0.11  158H :  0.11  221H :  0.11  494H :  0.11
   68H :  0.11  408H :  0.11   81H :  0.11   57H :  0.11  296H :  0.10  489H :  0.10  437H :  0.10  311H :  0.10  108H :  0.10  156H :  0.10  395H :  0.10  194H :  0.10
  723H :  0.10   65H :  0.10  425H :  0.10  153H :  0.10  614H :  0.10  729H :  0.10  728H :  0.10  110H :  0.09  674H :  0.09  627H :  0.09  648H :  0.09  546H :  0.09
  317H :  0.09  566H :  0.09  384H :  0.09  129H :  0.09  434H :  0.09   62H :  0.09  513H :  0.09   50H :  0.09  152H :  0.08  251H :  0.08  528H :  0.08  162H :  0.08
  321H :  0.08   41H :  0.08  173H :  0.08  104H :  0.08   77H :  0.08  602H :  0.08  716H :  0.07  255H :  0.07   72H :  0.07  560H :  0.07  167H :  0.07  203H :  0.07
  621H :  0.07
    3 LP   *******   0.00  12.17652   7.85391   6.08682  466O : 21.56  361O : 14.37  610O : 14.18  607O : 13.85  454O : 13.11   55O : 12.93  127O : 12.44   49O : 12.35  502O : 11.70  130O : 11.59  664O : 11.58  637O : 11.09
  319O : 10.93  160O : 10.86  646O : 10.49  370O : 10.46  553O : 10.42  727O : 10.38  418O : 10.34  187O : 10.14  139O : 10.03   22O :  9.88   64O :  9.76  601O :  9.72
  595O :  9.28  706O :  9.09  469O :  8.91  481O :  8.88   19O :  8.81  274O :  8.73  244O :  8.19  280O :  8.11  517O :  7.68  247O :  7.58  205O :  7.54  217O :  7.45
  331O :  7.45  277O :  7.44  343O :  7.43   70O :  7.42   88O :  7.11  616O :  6.94  529O :  6.72  442O :  6.67  490O :  6.14  634O :  6.12  535O :  6.03  367O :  5.94
  283O :  5.86  688O :  5.85  184O :  5.84  334O :  5.81  691O :  5.78  337O :  5.77  703O :  5.76  580O :  5.75  406O :  5.70  577O :  5.65   25O :  5.34  538O :  5.29
  751O :  5.29  643O :  5.14  748O :  5.11  496O :  5.09  694O :  5.06  109O :  5.00  163O :  4.92  733O :  4.90  202O :  4.88  379O :  4.85  253O :  4.82  652O :  4.81
  391O :  4.75  736O :  4.67  355O :  4.61  583O :  4.61  667O :  4.59  118O :  4.57  682O :  4.55  523O :  4.44  322O :  4.42   91O :  4.35  313O :  4.33  292O :  4.25
  259O :  4.22  730O :  4.19  475O :  3.94  376O :  3.94  556O :  3.93  700O :  3.91  541O :  3.82  340O :  3.80  346O :  3.75  631O :  3.74  544O :  3.72  619O :  3.65
   73O :  3.63  304O :  3.61  328O :  3.52   97O :  3.51  586O :  3.47    4O :  3.46  685O :  3.41  673O :  3.31  613O :  3.27  373O :  3.22  445O :  3.22  568O :  3.17
  196O :  3.17  670O :  3.16  364O :  3.16  487O :  3.12  136O :  3.11  655O :  3.09  622O :  3.06  665H :  3.05  715O :  3.02  193O :  2.99  382O :  2.91  430O :  2.91
  709O :  2.84  142O :  2.81  628O :  2.79  250O :  2.78  289O :  2.77  178O :  2.76  403O :  2.73  508O :  2.72   10O :  2.72  724O :  2.68  112O :  2.66  505O :  2.62
  415O :  2.60  721O :  2.59  295O :  2.58  484O :  2.55  550O :  2.53  433O :  2.53  262O :  2.52  397O :  2.49  424O :  2.49  739O :  2.49  451O :  2.49  604O :  2.48
  310O :  2.47  307O :  2.46  316O :  2.45  100O :  2.43  268O :  2.43   31O :  2.41  103O :  2.41  388O :  2.40  419H :  2.38  448O :  2.37  115O :  2.36  571O :  2.36
  400O :  2.34   16O :  2.34  265O :  2.30  157O :  2.30  106O :  2.21  190O :  2.20  532O :  2.06  385O :  2.05   76O :  2.04  460O :  2.03  640O :  2.01   94O :  2.00
  649O :  1.98  166O :  1.95  520O :  1.94  298O :  1.93  214O :  1.92  658O :  1.91  208O :  1.90  148O :  1.90   58O :  1.90  199O :  1.89   43O :  1.86  412O :  1.85
  325O :  1.84  499O :  1.82  661O :  1.76  151O :  1.75  301O :  1.72  547O :  1.70  754O :  1.69   79O :  1.68  189H :  1.66  145O :  1.62   82O :  1.59  514O :  1.48
  562O :  1.46  679O :  1.46  439O :  1.45  574O :  1.43  133O :  1.42   67O :  1.40  226O :  1.38  352O :  1.38  589O :  1.36  380H :  1.34  286O :  1.32  608H :  1.30
  169O :  1.28  745O :  1.27  366H :  1.25  241O :  1.24  256O :  1.24  232O :  1.22  472O :  1.21  692H :  1.21  356H :  1.19  238O :  1.19   52O :  1.18  121O :  1.17
  175O :  1.17  235O :  1.14   40O :  1.12   66H :  1.12  463O :  1.11  559O :  1.10  584H :  1.09    1O :  1.08  293H :  1.08  436O :  1.07  701H :  1.06  488H :  1.05
  120H :  1.01  427O :  1.00   37O :  1.00  511O :  0.97  749H :  0.97  491H :  0.96  421O :  0.96  526O :  0.95  457O :  0.93  358O :  0.92  564H :  0.90  500H :  0.90
    7O :  0.89  654H :  0.89  271O :  0.89  645H :  0.86   20H :  0.84  519H :  0.84  704H :  0.82  284H :  0.81  578H :  0.81  737H :  0.79  211O :  0.78  281H :  0.77
  669H :  0.76  447H :  0.76  172O :  0.76  478O :  0.74   13O :  0.72  282H :  0.71  154O :  0.71  258H :  0.70  707H :  0.68  742O :  0.67  493O :  0.67  165H :  0.66
  336H :  0.64  592O :  0.63  314H :  0.59  718O :  0.59  473H :  0.57  687H :  0.57  372H :  0.57  192H :  0.57   61O :  0.56  647H :  0.56   24H :  0.56  342H :  0.56
  625O :  0.55  349O :  0.55  394O :  0.54   11H :  0.53  264H :  0.53  569H :  0.52  470H :  0.52  668H :  0.51  483H :  0.51  119H :  0.51  639H :  0.50  598O :  0.50
  124O :  0.49  738H :  0.49   28O :  0.49  291H :  0.48  712O :  0.48  531H :  0.47  220O :  0.45  229O :  0.45  708H :  0.44  339H :  0.43  660H :  0.42  161H :  0.41
  107H :  0.41  570H :  0.41   21H :  0.41  697O :  0.40  375H :  0.39   51H :  0.39  542H :  0.38  593H :  0.38  557H :  0.38   69H :  0.38    8H :  0.38  477H :  0.37
  368H :  0.37  223O :  0.37  131H :  0.37   27H :  0.37  603H :  0.37  752H :  0.37  275H :  0.36  453H :  0.36  753H :  0.36  587H :  0.36  702H :  0.36  137H :  0.36
  467H :  0.36  663H :  0.35   90H :  0.35  565O :  0.35  320H :  0.35  554H :  0.34  509H :  0.34  623H :  0.34  731H :  0.34  164H :  0.34  392H :  0.34  141H :  0.33
   29H :  0.33  471H :  0.33  330H :  0.33  431H :  0.32  212H :  0.32  710H :  0.32  534H :  0.32   34O :  0.32  300H :  0.32  672H :  0.31  485H :  0.30  236H :  0.29
  690H :  0.29  308H :  0.29  140H :  0.29  510H :  0.29  696H :  0.28  219H :  0.28   85O :  0.28  357H :  0.28  474H :  0.28  209H :  0.27  686H :  0.27  732H :  0.27
  315H :  0.27  179H :  0.27  624H :  0.26   44H :  0.26  581H :  0.26  585H :  0.26  353H :  0.26  278H :  0.26   99H :  0.26  543H :  0.26  260H :  0.26  551H :  0.25
  197H :  0.25  653H :  0.25  117H :  0.24   18H :  0.24  650H :  0.24  181O :  0.24  305H :  0.24  417H :  0.24  409O :  0.23  440H :  0.23  105H :  0.23  426H :  0.23
  444H :  0.22  362H :  0.22  270H :  0.22  138H :  0.21  101H :  0.21  561H :  0.21  381H :  0.21  383H :  0.21  530H :  0.21  456H :  0.21   83H :  0.21  620H :  0.21
  149H :  0.20  111H :  0.20  525H :  0.20  114H :  0.20  399H :  0.20  644H :  0.20  611H :  0.20   80H :  0.20  318H :  0.20  249H :  0.20  747H :  0.20  228H :  0.20
  233H :  0.19  536H :  0.19  515H :  0.19  632H :  0.19  548H :  0.19  755H :  0.18  549H :  0.18  582H :  0.18  609H :  0.18  170H :  0.18  537H :  0.18  276H :  0.17
  290H :  0.17  597H :  0.17  671H :  0.17  527H :  0.16  204H :  0.16  512H :  0.16   89H :  0.16  309H :  0.16   46O :  0.16  666H :  0.16  359H :  0.15   30H :  0.15
  503H :  0.15  345H :  0.15  132H :  0.14  720H :  0.14    5H :  0.14  198H :  0.14  195H :  0.14  497H :  0.13  618H :  0.13  243H :  0.13  216H :  0.13  344H :  0.13
  176H :  0.13  518H :  0.13  324H :  0.13  642H :  0.12   17H :  0.12  459H :  0.12  393H :  0.12  174H :  0.12  242H :  0.12  407H :  0.11  261H :  0.11  476H :  0.11
  269H :  0.11  206H :  0.11  651H :  0.11  224H :  0.11  333H :  0.11  725H :  0.11  575H :  0.10  158H :  0.10  213H :  0.10  221H :  0.10  579H :  0.10  494H :  0.10
   68H :  0.10  408H :  0.10   81H :  0.10   57H :  0.10  296H :  0.09  489H :  0.09  437H :  0.09  311H :  0.09  108H :  0.09  395H :  0.09  194H :  0.09  156H :  0.09
  723H :  0.09   65H :  0.09  425H :  0.09  153H :  0.09  614H :  0.09  729H :  0.09  648H :  0.09  728H :  0.09  110H :  0.09  674H :  0.08  627H :  0.08  546H :  0.08
  317H :  0.08   62H :  0.08  566H :  0.08  384H :  0.08  129H :  0.08  513H :  0.08  434H :  0.08   50H :  0.08  152H :  0.08  251H :  0.08  528H :  0.08  162H :  0.07
  321H :  0.07   41H :  0.07  468H :  0.07
    4 LP   *******   0.00 -34.65214 -46.11742  21.29603  466O : 18.01  610O : 16.32  361O : 13.74  607O : 13.24  454O : 12.52   55O : 12.36  127O : 11.89   49O : 11.80  502O : 11.19  130O : 11.08  664O : 11.07  637O : 10.60
  319O : 10.45  160O : 10.39  646O : 10.14  370O : 10.00  553O :  9.96  727O :  9.92  418O :  9.88  187O :  9.69  139O :  9.59   22O :  9.44   64O :  9.33  601O :  9.29
  595O :  8.87  706O :  8.69  469O :  8.53  274O :  8.52  481O :  8.49   19O :  8.43  244O :  7.83  280O :  7.76  517O :  7.34  277O :  7.28  247O :  7.25  205O :  7.21
  217O :  7.12  331O :  7.12  343O :  7.10   70O :  7.09   88O :  6.78  616O :  6.63  529O :  6.43  442O :  6.38  490O :  5.87  634O :  5.86  535O :  5.77  367O :  5.67
  283O :  5.61  688O :  5.59  184O :  5.59  334O :  5.56  691O :  5.53  337O :  5.52  703O :  5.51  580O :  5.50  406O :  5.45  577O :  5.41   25O :  5.11  538O :  5.06
  751O :  5.06  643O :  4.91  748O :  4.88  496O :  4.88  694O :  4.83  109O :  4.78  163O :  4.71  733O :  4.69  202O :  4.69  379O :  4.64  253O :  4.61  652O :  4.60
  391O :  4.54  736O :  4.46  355O :  4.41  583O :  4.41  667O :  4.39  118O :  4.37  682O :  4.35  523O :  4.24  322O :  4.22   91O :  4.16  313O :  4.14  292O :  4.06
  259O :  4.03  730O :  4.01  376O :  3.76  556O :  3.76  700O :  3.74  475O :  3.71  541O :  3.65  340O :  3.64  346O :  3.58  631O :  3.57  544O :  3.56  619O :  3.49
   73O :  3.46  304O :  3.45  328O :  3.37   97O :  3.36  685O :  3.32  586O :  3.32    4O :  3.31  673O :  3.16  613O :  3.14  487O :  3.12  373O :  3.08  445O :  3.08
  568O :  3.03  196O :  3.03  670O :  3.02  364O :  3.02  136O :  2.97  655O :  2.96  622O :  2.93  665H :  2.92  715O :  2.89  193O :  2.85  382O :  2.78  430O :  2.78
  709O :  2.72  142O :  2.69  628O :  2.66  250O :  2.66  289O :  2.64  178O :  2.64  403O :  2.61  508O :  2.60   10O :  2.60  724O :  2.56  112O :  2.56  505O :  2.51
  415O :  2.49  721O :  2.48  484O :  2.44  550O :  2.42  295O :  2.42  433O :  2.42  262O :  2.41  397O :  2.38  424O :  2.38  739O :  2.38  451O :  2.38  604O :  2.37
  310O :  2.36  307O :  2.35  316O :  2.35  100O :  2.32  268O :  2.32   31O :  2.30  103O :  2.30  388O :  2.30  419H :  2.27  448O :  2.26  115O :  2.26  571O :  2.26
  400O :  2.24   16O :  2.24  265O :  2.20  157O :  2.20  106O :  2.12  190O :  2.11  532O :  1.97  385O :  1.96   76O :  1.95  460O :  1.94  640O :  1.92   94O :  1.91
  649O :  1.90  166O :  1.87  298O :  1.85  520O :  1.85  214O :  1.84  658O :  1.83  208O :  1.82  148O :  1.82   58O :  1.81  199O :  1.80   43O :  1.78  412O :  1.77
  325O :  1.75  499O :  1.74  661O :  1.68  151O :  1.68  301O :  1.64  547O :  1.63  754O :  1.61   79O :  1.60  189H :  1.59  145O :  1.55   82O :  1.52  514O :  1.41
  562O :  1.40  679O :  1.40  439O :  1.38  574O :  1.37  133O :  1.36   67O :  1.34  226O :  1.32  352O :  1.32  589O :  1.30  380H :  1.28  286O :  1.26  608H :  1.24
  169O :  1.22  745O :  1.21  488H :  1.20  241O :  1.19  256O :  1.19  366H :  1.17  232O :  1.16  472O :  1.16  692H :  1.15  356H :  1.14  238O :  1.13   52O :  1.13
  121O :  1.12  175O :  1.12  235O :  1.08   40O :  1.07   66H :  1.07  463O :  1.06  559O :  1.05  584H :  1.04    1O :  1.03  293H :  1.03  436O :  1.03  701H :  1.02
  120H :  0.96  427O :  0.96   37O :  0.96  511O :  0.93  749H :  0.93  491H :  0.92  421O :  0.92  526O :  0.91  457O :  0.89  358O :  0.88  500H :  0.86  564H :  0.86
    7O :  0.85  654H :  0.85  271O :  0.85  645H :  0.82   20H :  0.81  519H :  0.81  704H :  0.78  284H :  0.78  578H :  0.77  737H :  0.76  211O :  0.74  281H :  0.74
  669H :  0.73  447H :  0.73  172O :  0.73  478O :  0.71   13O :  0.69  282H :  0.68  154O :  0.68  258H :  0.67  707H :  0.65  742O :  0.64  493O :  0.64  165H :  0.63
  336H :  0.61  592O :  0.61  687H :  0.59  314H :  0.57  718O :  0.56  473H :  0.55  372H :  0.54  192H :  0.54   61O :  0.54   24H :  0.54  342H :  0.53  625O :  0.53
  349O :  0.53  394O :  0.52   11H :  0.51  264H :  0.51  569H :  0.50  470H :  0.49  668H :  0.49  483H :  0.49  119H :  0.49  639H :  0.48  598O :  0.47  124O :  0.47
  738H :  0.47   28O :  0.46  291H :  0.46  712O :  0.46  531H :  0.45  220O :  0.43  229O :  0.43  708H :  0.42  339H :  0.41  467H :  0.40  660H :  0.40  161H :  0.40
  107H :  0.39  570H :  0.39   21H :  0.39  697O :  0.38  375H :  0.38   51H :  0.37  542H :  0.37  593H :  0.36  557H :  0.36   69H :  0.36  477H :  0.36    8H :  0.36
  368H :  0.36   27H :  0.36  223O :  0.36  131H :  0.36  603H :  0.35  752H :  0.35  453H :  0.35  275H :  0.35  753H :  0.34  702H :  0.34  587H :  0.34  137H :  0.34
  663H :  0.34  647H :  0.33  565O :  0.33  320H :  0.33  554H :  0.33  509H :  0.33  623H :  0.32   90H :  0.32  731H :  0.32  164H :  0.32   29H :  0.32  392H :  0.32
  141H :  0.32  330H :  0.31  471H :  0.31  431H :  0.31  212H :  0.31  710H :  0.31  534H :  0.31  300H :  0.30   34O :  0.30  672H :  0.30  485H :  0.28  690H :  0.28
  308H :  0.28  140H :  0.27  510H :  0.27  696H :  0.27  219H :  0.27   85O :  0.27  357H :  0.27  236H :  0.27  474H :  0.27  209H :  0.26  732H :  0.26  686H :  0.26
  315H :  0.26  179H :  0.25   44H :  0.25  624H :  0.25  585H :  0.25  353H :  0.25  581H :  0.25   99H :  0.25  543H :  0.25  260H :  0.25  278H :  0.24  551H :  0.24
  197H :  0.24  653H :  0.23  117H :  0.23   18H :  0.23  650H :  0.23  181O :  0.23  305H :  0.23  417H :  0.22  409O :  0.22  440H :  0.22  105H :  0.22  426H :  0.22
  444H :  0.21  362H :  0.21  270H :  0.21  456H :  0.21  138H :  0.20  101H :  0.20  561H :  0.20  381H :  0.20  530H :  0.20  383H :  0.20   83H :  0.20  620H :  0.20
  111H :  0.20  149H :  0.20  114H :  0.19  525H :  0.19  399H :  0.19  644H :  0.19   80H :  0.19  318H :  0.19  249H :  0.19  747H :  0.19  228H :  0.19  233H :  0.18
  536H :  0.18  515H :  0.18  632H :  0.18  548H :  0.18  755H :  0.17  549H :  0.17  170H :  0.17  609H :  0.17  537H :  0.17  276H :  0.17  582H :  0.17  290H :  0.16
  597H :  0.16  671H :  0.16  527H :  0.16  512H :  0.15   89H :  0.15  309H :  0.15   46O :  0.15  204H :  0.15  666H :  0.15  359H :  0.15   30H :  0.14  503H :  0.14
  345H :  0.14  611H :  0.14  132H :  0.13  720H :  0.13    5H :  0.13  198H :  0.13  195H :  0.13  497H :  0.13  618H :  0.12  243H :  0.12  216H :  0.12  344H :  0.12
  176H :  0.12  518H :  0.12  324H :  0.12  642H :  0.12  459H :  0.12   17H :  0.12  393H :  0.12  174H :  0.12  242H :  0.11  407H :  0.11  261H :  0.11  269H :  0.11
  476H :  0.11  206H :  0.10  224H :  0.10  651H :  0.10  333H :  0.10  725H :  0.10  575H :  0.10  158H :  0.10  213H :  0.10  221H :  0.10  579H :  0.10  494H :  0.09
   68H :  0.09  408H :  0.09   81H :  0.09   57H :  0.09  296H :  0.09  437H :  0.09  489H :  0.09  311H :  0.09  108H :  0.09  395H :  0.09  194H :  0.08  156H :  0.08
  723H :  0.08   65H :  0.08  425H :  0.08  153H :  0.08  614H :  0.08  729H :  0.08  728H :  0.08  110H :  0.08  674H :  0.08  627H :  0.08  434H :  0.08  648H :  0.08
  546H :  0.08  317H :  0.08   62H :  0.08  566H :  0.08  384H :  0.08  129H :  0.08  513H :  0.08   50H :  0.07  152H :  0.07  251H :  0.07  528H :  0.07  162H :  0.07
  321H :  0.07
    5 LP   *******   0.00  34.95696   8.77016   5.55445  466O : 17.67  607O : 16.17  361O : 13.46  610O : 13.28  454O : 12.28   55O : 12.11  127O : 11.65   49O : 11.57  502O : 10.96  130O : 10.85  664O : 10.85  637O : 10.39
  319O : 10.23  160O : 10.18  646O :  9.94  370O :  9.79  553O :  9.76  727O :  9.72  418O :  9.68  187O :  9.49  139O :  9.40   22O :  9.26   64O :  9.14  601O :  9.10
  595O :  8.69  706O :  8.52  469O :  8.36  274O :  8.35  481O :  8.32   19O :  8.26  244O :  7.67  280O :  7.60  517O :  7.19  277O :  7.14  247O :  7.10  205O :  7.06
  217O :  6.98  331O :  6.97  343O :  6.96   70O :  6.95   88O :  6.64  616O :  6.49  529O :  6.30  442O :  6.25  490O :  5.75  634O :  5.74  535O :  5.65  367O :  5.56
  283O :  5.49  688O :  5.48  184O :  5.47  334O :  5.44  691O :  5.41  337O :  5.41  703O :  5.40  406O :  5.34  577O :  5.30  580O :  5.21   25O :  5.01  538O :  4.97
  751O :  4.95  643O :  4.81  748O :  4.78  496O :  4.78  694O :  4.73  109O :  4.68  163O :  4.61  733O :  4.59  202O :  4.57  379O :  4.54  253O :  4.51  652O :  4.51
  391O :  4.45  736O :  4.37  355O :  4.32  583O :  4.32  667O :  4.30  118O :  4.28  682O :  4.27  523O :  4.16  322O :  4.14   91O :  4.07  313O :  4.06  292O :  3.98
  259O :  3.95  730O :  3.92  376O :  3.69  556O :  3.69  700O :  3.66  475O :  3.63  541O :  3.58  340O :  3.56  346O :  3.51  631O :  3.50  544O :  3.48  619O :  3.42
   73O :  3.40  304O :  3.38  328O :  3.30   97O :  3.29  586O :  3.25    4O :  3.24  685O :  3.20  673O :  3.10  613O :  3.08  373O :  3.02  445O :  3.02  568O :  2.97
  196O :  2.97  670O :  2.96  364O :  2.96  487O :  2.92  136O :  2.91  622O :  2.87  665H :  2.86  655O :  2.85  715O :  2.83  193O :  2.80  382O :  2.72  430O :  2.72
  709O :  2.66  142O :  2.64  628O :  2.61  250O :  2.61  289O :  2.59  178O :  2.59  403O :  2.56  508O :  2.55   10O :  2.55  724O :  2.51  415O :  2.51  112O :  2.49
  505O :  2.46  721O :  2.43  484O :  2.39  550O :  2.37  262O :  2.37  433O :  2.37  397O :  2.34  424O :  2.34  739O :  2.33  451O :  2.33  604O :  2.32  310O :  2.31
  307O :  2.30  316O :  2.30  295O :  2.28  100O :  2.28  268O :  2.27   31O :  2.26  103O :  2.25  388O :  2.25  419H :  2.23  448O :  2.22  115O :  2.21  571O :  2.21
  400O :  2.20   16O :  2.19  157O :  2.15  265O :  2.15  106O :  2.07  190O :  2.06  532O :  1.93  385O :  1.92   76O :  1.91  460O :  1.90  640O :  1.89   94O :  1.88
  649O :  1.86  166O :  1.81  520O :  1.81  298O :  1.81  214O :  1.80  658O :  1.79  208O :  1.78  148O :  1.78   58O :  1.78  199O :  1.77   43O :  1.74  412O :  1.73
  325O :  1.72  499O :  1.71  661O :  1.65  151O :  1.64  301O :  1.61  547O :  1.60  754O :  1.58   79O :  1.57  189H :  1.55  145O :  1.52   82O :  1.48  514O :  1.39
  562O :  1.37  679O :  1.37  439O :  1.36  574O :  1.34  133O :  1.33   67O :  1.31  226O :  1.30  352O :  1.29  589O :  1.27  380H :  1.26  286O :  1.23  169O :  1.20
  745O :  1.19  241O :  1.16  256O :  1.16  366H :  1.14  232O :  1.14  472O :  1.14  692H :  1.13  608H :  1.13  356H :  1.11  238O :  1.11   52O :  1.10  121O :  1.10
  175O :  1.09  235O :  1.07   40O :  1.05   66H :  1.05  463O :  1.04  559O :  1.03  584H :  1.02    1O :  1.01  293H :  1.01  436O :  1.00  701H :  1.00  488H :  0.98
  120H :  0.95  427O :  0.94   37O :  0.94  511O :  0.91  749H :  0.91  491H :  0.90  421O :  0.90  526O :  0.89  457O :  0.88  358O :  0.86  564H :  0.84  500H :  0.84
  271O :  0.84    7O :  0.83  654H :  0.83  645H :  0.80   20H :  0.79  519H :  0.79  704H :  0.77  284H :  0.76  578H :  0.76  737H :  0.74  211O :  0.73  281H :  0.72
  669H :  0.72  447H :  0.71  172O :  0.71  478O :  0.69   13O :  0.68  282H :  0.67  154O :  0.66  258H :  0.66  707H :  0.64  742O :  0.63  493O :  0.63  165H :  0.62
  336H :  0.60  592O :  0.59  314H :  0.56  718O :  0.55  473H :  0.54  687H :  0.54  372H :  0.53  192H :  0.53   61O :  0.53   24H :  0.52  342H :  0.52  625O :  0.52
  349O :  0.52  394O :  0.51   11H :  0.50  264H :  0.50  569H :  0.49  470H :  0.48  668H :  0.48  483H :  0.48  119H :  0.48  639H :  0.47  598O :  0.46  124O :  0.46
  738H :  0.46   28O :  0.45  291H :  0.45  712O :  0.45  531H :  0.44  220O :  0.43  229O :  0.42  708H :  0.41  339H :  0.40  467H :  0.39  660H :  0.39  161H :  0.39
  107H :  0.39  570H :  0.38   21H :  0.38  697O :  0.38  375H :  0.37   51H :  0.36  542H :  0.36  593H :  0.36  557H :  0.35   69H :  0.35  477H :  0.35    8H :  0.35
  368H :  0.35  223O :  0.35   27H :  0.35  131H :  0.35  603H :  0.34  752H :  0.34  453H :  0.34  275H :  0.34  753H :  0.34  587H :  0.33  702H :  0.33  137H :  0.33
  647H :  0.33  663H :  0.33  565O :  0.33  320H :  0.32  554H :  0.32  509H :  0.32  623H :  0.32   90H :  0.32  731H :  0.32  164H :  0.32   29H :  0.32  392H :  0.31
  141H :  0.31  330H :  0.31  471H :  0.31  431H :  0.30  212H :  0.30  710H :  0.30  534H :  0.30   34O :  0.30  300H :  0.30  672H :  0.29  485H :  0.28  690H :  0.27
  236H :  0.27  308H :  0.27  140H :  0.27  510H :  0.27  696H :  0.27  219H :  0.27   85O :  0.27  357H :  0.26  474H :  0.26  209H :  0.26  686H :  0.25  732H :  0.25
  315H :  0.25  179H :  0.25   44H :  0.25  624H :  0.25  585H :  0.25  353H :  0.24   99H :  0.24  543H :  0.24  260H :  0.24  581H :  0.24  278H :  0.24  551H :  0.23
  197H :  0.23  653H :  0.23  117H :  0.23   18H :  0.22  650H :  0.22  181O :  0.22  305H :  0.22  409O :  0.22  440H :  0.22  105H :  0.22  417H :  0.21  426H :  0.21
  444H :  0.21  362H :  0.21  270H :  0.20  138H :  0.20  101H :  0.20  561H :  0.20  381H :  0.20  383H :  0.20  530H :  0.20  456H :  0.20   83H :  0.19  620H :  0.19
  111H :  0.19  149H :  0.19  525H :  0.19  114H :  0.19  399H :  0.19  644H :  0.19  611H :  0.19   80H :  0.19  318H :  0.19  249H :  0.19  747H :  0.18  228H :  0.18
  233H :  0.18  536H :  0.18  515H :  0.18  632H :  0.18  548H :  0.18  755H :  0.17  549H :  0.17  170H :  0.17  537H :  0.17  276H :  0.17  582H :  0.16  597H :  0.16
  290H :  0.16  671H :  0.15  527H :  0.15  204H :  0.15  512H :  0.15   89H :  0.15  309H :  0.15   46O :  0.15  666H :  0.15  359H :  0.14  618H :  0.14   30H :  0.14
  503H :  0.14  345H :  0.14  609H :  0.13  132H :  0.13  720H :  0.13    5H :  0.13  198H :  0.13  195H :  0.13  497H :  0.13  243H :  0.12  216H :  0.12  344H :  0.12
  176H :  0.12  518H :  0.12  324H :  0.12  642H :  0.12   17H :  0.12  459H :  0.12  393H :  0.12  174H :  0.11  242H :  0.11  407H :  0.11  261H :  0.11  269H :  0.11
  476H :  0.11  206H :  0.10  651H :  0.10  224H :  0.10  333H :  0.10  725H :  0.10  575H :  0.10  158H :  0.10  213H :  0.10  221H :  0.10  579H :  0.09  494H :  0.09
   68H :  0.09  408H :  0.09   81H :  0.09   57H :  0.09  489H :  0.09  437H :  0.09  311H :  0.09  108H :  0.08  395H :  0.08  194H :  0.08  723H :  0.08  156H :  0.08
   65H :  0.08  425H :  0.08  153H :  0.08  614H :  0.08  729H :  0.08  728H :  0.08  110H :  0.08  674H :  0.08  627H :  0.08  546H :  0.08  648H :  0.08  317H :  0.08
   62H :  0.08  566H :  0.08  384H :  0.08  129H :  0.07  513H :  0.07  434H :  0.07   50H :  0.07  296H :  0.07  152H :  0.07  251H :  0.07  528H :  0.07
    6 LP   *******   0.00  35.04810  14.88372 -19.07395  466O : 17.47  361O : 13.33  610O : 13.16  607O : 12.84  454O : 12.16  637O : 12.16   55O : 12.00  127O : 11.54   49O : 11.45  502O : 10.86  130O : 10.75  664O : 10.74
  319O : 10.14  160O : 10.08  646O :  9.85  370O :  9.70  553O :  9.67  727O :  9.63  418O :  9.59  187O :  9.40  139O :  9.31   22O :  9.17   64O :  9.05  601O :  9.01
  595O :  8.60  706O :  8.44  469O :  8.28  274O :  8.26  481O :  8.24   19O :  8.18  244O :  7.60  280O :  7.53  517O :  7.12  277O :  7.07  247O :  7.03  205O :  7.00
  217O :  6.91  331O :  6.91  343O :  6.89   70O :  6.88   88O :  6.58  616O :  6.44  529O :  6.24  442O :  6.19  490O :  5.70  634O :  5.68  535O :  5.60  367O :  5.51
  283O :  5.44  688O :  5.44  184O :  5.42  334O :  5.39  691O :  5.36  337O :  5.36  703O :  5.34  580O :  5.34  406O :  5.29  577O :  5.25   25O :  4.96  538O :  4.91
  751O :  4.91  643O :  4.77  748O :  4.74  496O :  4.74  694O :  4.68  109O :  4.64  163O :  4.57  733O :  4.55  202O :  4.52  379O :  4.50  253O :  4.47  652O :  4.47
  391O :  4.42  736O :  4.33  355O :  4.28  583O :  4.28  667O :  4.26  118O :  4.24  682O :  4.22  523O :  4.12  322O :  4.10   91O :  4.04  313O :  4.02  292O :  3.94
  259O :  3.91  730O :  3.89  376O :  3.65  556O :  3.65  700O :  3.63  541O :  3.61  475O :  3.60  340O :  3.53  346O :  3.47  631O :  3.47  544O :  3.45  619O :  3.39
   73O :  3.36  304O :  3.34  328O :  3.27   97O :  3.26  586O :  3.22    4O :  3.21  685O :  3.17  673O :  3.07  613O :  3.04  373O :  2.99  445O :  2.99  655O :  2.95
  568O :  2.94  196O :  2.94  670O :  2.93  364O :  2.93  487O :  2.89  136O :  2.88  622O :  2.84  665H :  2.83  715O :  2.81  193O :  2.77  382O :  2.70  430O :  2.69
  709O :  2.64  142O :  2.61  628O :  2.58  250O :  2.58  289O :  2.57  178O :  2.56  403O :  2.53  508O :  2.53   10O :  2.52  724O :  2.49  112O :  2.47  415O :  2.45
  505O :  2.43  721O :  2.41  484O :  2.36  550O :  2.35  295O :  2.35  433O :  2.34  262O :  2.34  397O :  2.31  424O :  2.31  739O :  2.31  451O :  2.31  604O :  2.30
  310O :  2.29  307O :  2.28  316O :  2.28  100O :  2.26  268O :  2.25  103O :  2.23   31O :  2.23  388O :  2.23  419H :  2.20  448O :  2.19  115O :  2.19  571O :  2.19
  400O :  2.17   16O :  2.17  265O :  2.13  157O :  2.13  106O :  2.05  190O :  2.04  532O :  1.91  385O :  1.90   76O :  1.89  460O :  1.88  640O :  1.87   94O :  1.86
  649O :  1.84  166O :  1.81  520O :  1.80  298O :  1.79  214O :  1.78  658O :  1.78  208O :  1.77  148O :  1.76   58O :  1.76  199O :  1.75   43O :  1.72  412O :  1.72
  325O :  1.70  499O :  1.69  151O :  1.63  661O :  1.62  301O :  1.60  547O :  1.58  754O :  1.56   79O :  1.56  189H :  1.54  145O :  1.50   82O :  1.47  514O :  1.37
  562O :  1.36  679O :  1.35  439O :  1.34  574O :  1.33  133O :  1.32   67O :  1.30  226O :  1.28  352O :  1.28  589O :  1.26  380H :  1.24  286O :  1.22  608H :  1.21
  169O :  1.18  745O :  1.18  241O :  1.15  256O :  1.15  366H :  1.13  232O :  1.13  472O :  1.13  692H :  1.12  356H :  1.10  238O :  1.10   52O :  1.09  121O :  1.09
  175O :  1.08  235O :  1.06   40O :  1.04   66H :  1.04  463O :  1.03  559O :  1.02  584H :  1.01    1O :  1.00  293H :  1.00  436O :  1.00  701H :  0.99  488H :  0.97
  120H :  0.94  427O :  0.93   37O :  0.93  511O :  0.90  749H :  0.90  491H :  0.89  421O :  0.89  526O :  0.88  457O :  0.87  358O :  0.85  564H :  0.83  500H :  0.83
  654H :  0.83    7O :  0.83  271O :  0.82  645H :  0.79   20H :  0.78  519H :  0.78  704H :  0.76  284H :  0.76  578H :  0.75  737H :  0.73  211O :  0.72  281H :  0.71
  669H :  0.71  447H :  0.71  172O :  0.70  478O :  0.69   13O :  0.67  282H :  0.66  154O :  0.66  258H :  0.65  707H :  0.63  742O :  0.62  493O :  0.62  165H :  0.61
  336H :  0.59  592O :  0.59  314H :  0.55  718O :  0.54  473H :  0.53  687H :  0.53  372H :  0.53  192H :  0.53   61O :  0.52   24H :  0.52  342H :  0.52  625O :  0.51
  349O :  0.51  394O :  0.50   11H :  0.49  264H :  0.49  569H :  0.48  470H :  0.48  668H :  0.48  483H :  0.48  119H :  0.47  598O :  0.46  124O :  0.45  738H :  0.45
   28O :  0.45  291H :  0.45  712O :  0.44  531H :  0.44  220O :  0.42  229O :  0.41  708H :  0.41  339H :  0.40  467H :  0.39  660H :  0.39  161H :  0.38  107H :  0.38
  570H :  0.38   21H :  0.38  697O :  0.37  543H :  0.37  639H :  0.37  375H :  0.36   51H :  0.36  542H :  0.36  593H :  0.35  557H :  0.35   69H :  0.35  477H :  0.35
    8H :  0.35  368H :  0.35  223O :  0.35   27H :  0.34  131H :  0.34  603H :  0.34  752H :  0.34  453H :  0.34  275H :  0.34  753H :  0.33  587H :  0.33  702H :  0.33
  137H :  0.33  647H :  0.32  565O :  0.32  320H :  0.32  554H :  0.32  663H :  0.32  509H :  0.32  623H :  0.32   90H :  0.31  731H :  0.31  392H :  0.31  164H :  0.31
   29H :  0.31  141H :  0.31  330H :  0.30  471H :  0.30  431H :  0.30  212H :  0.30  710H :  0.30  534H :  0.30  300H :  0.29   34O :  0.29  672H :  0.29  485H :  0.27
  690H :  0.27  236H :  0.27  308H :  0.27  140H :  0.27  510H :  0.27  696H :  0.26  219H :  0.26   85O :  0.26  357H :  0.26  474H :  0.26  209H :  0.25  686H :  0.25
  732H :  0.25  315H :  0.25  179H :  0.25   44H :  0.24  624H :  0.24  585H :  0.24  353H :  0.24  581H :  0.24   99H :  0.24  260H :  0.24  278H :  0.24  551H :  0.23
  197H :  0.23  653H :  0.23  117H :  0.23   18H :  0.22  417H :  0.22  650H :  0.22  181O :  0.22  305H :  0.22  409O :  0.22  440H :  0.22  105H :  0.21  426H :  0.21
  444H :  0.21  362H :  0.20  270H :  0.20  101H :  0.20  138H :  0.20  561H :  0.20  381H :  0.19  383H :  0.19  530H :  0.19  456H :  0.19   83H :  0.19  620H :  0.19
  111H :  0.19  149H :  0.19  525H :  0.19  114H :  0.19  399H :  0.19  644H :  0.19  611H :  0.19   80H :  0.19  318H :  0.19  249H :  0.19  747H :  0.18  228H :  0.18
  233H :  0.18  536H :  0.18  515H :  0.17  632H :  0.17  548H :  0.17  755H :  0.17  549H :  0.17  170H :  0.17  537H :  0.16  609H :  0.16  276H :  0.16  582H :  0.16
  290H :  0.15  597H :  0.15  671H :  0.15  527H :  0.15  204H :  0.15  512H :  0.15   89H :  0.15  309H :  0.15   46O :  0.15  666H :  0.14  359H :  0.14   30H :  0.14
  503H :  0.14  345H :  0.14  132H :  0.13  720H :  0.13    5H :  0.13  198H :  0.13  195H :  0.13  497H :  0.13  618H :  0.12  243H :  0.12  216H :  0.12  344H :  0.12
  176H :  0.12  518H :  0.12  324H :  0.12  642H :  0.12   17H :  0.12  459H :  0.12  393H :  0.11  174H :  0.11  242H :  0.11  407H :  0.11  261H :  0.11  269H :  0.10
  476H :  0.10  206H :  0.10  651H :  0.10  224H :  0.10  333H :  0.10  725H :  0.10  575H :  0.10  158H :  0.10  213H :  0.09  221H :  0.09  579H :  0.09  494H :  0.09
   68H :  0.09  408H :  0.09   81H :  0.09   57H :  0.09  296H :  0.09  489H :  0.09  437H :  0.09  311H :  0.08  108H :  0.08  395H :  0.08  194H :  0.08  156H :  0.08
  723H :  0.08   65H :  0.08  425H :  0.08  153H :  0.08  614H :  0.08  729H :  0.08  728H :  0.08  110H :  0.08  674H :  0.08  627H :  0.08  546H :  0.08  648H :  0.08
  317H :  0.08   62H :  0.08  566H :  0.08  384H :  0.08  129H :  0.07  513H :  0.07  434H :  0.07   50H :  0.07  152H :  0.07  251H :  0.07
    7 LP   *******   0.00 -82.09037 -37.42819   9.57981  466O : 17.12  361O : 13.06  610O : 12.89  607O : 12.59  553O : 12.18  454O : 11.91   55O : 11.75  127O : 11.30   49O : 11.22  502O : 10.63  130O : 10.53  664O : 10.52
  637O : 10.07  319O :  9.93  160O :  9.87  646O :  9.64  370O :  9.50  727O :  9.43  418O :  9.39  187O :  9.21  139O :  9.12   22O :  8.98   64O :  8.87  601O :  8.83
  595O :  8.43  706O :  8.26  469O :  8.11  274O :  8.09  481O :  8.06   19O :  8.01  244O :  7.44  280O :  7.37  517O :  6.97  277O :  6.92  205O :  6.85  217O :  6.77
  331O :  6.76  343O :  6.75   70O :  6.74  247O :  6.69   88O :  6.44  616O :  6.31  529O :  6.11  442O :  6.06  490O :  5.58  634O :  5.57  535O :  5.48  367O :  5.39
  688O :  5.31  184O :  5.31  283O :  5.28  334O :  5.28  691O :  5.25  337O :  5.25  703O :  5.24  580O :  5.23  406O :  5.18  577O :  5.14   25O :  4.86  538O :  4.81
  751O :  4.80  643O :  4.67  748O :  4.64  496O :  4.64  694O :  4.59  109O :  4.54  163O :  4.48  733O :  4.46  202O :  4.43  379O :  4.41  652O :  4.38  253O :  4.38
  391O :  4.31  736O :  4.24  355O :  4.19  583O :  4.19  667O :  4.17  118O :  4.15  682O :  4.14  523O :  4.03  322O :  4.01   91O :  3.95  313O :  3.93  292O :  3.86
  259O :  3.83  730O :  3.81  376O :  3.58  556O :  3.57  700O :  3.55  475O :  3.53  541O :  3.47  340O :  3.46  346O :  3.40  631O :  3.40  544O :  3.38  619O :  3.32
   73O :  3.30  304O :  3.28  328O :  3.20   97O :  3.19  586O :  3.15    4O :  3.14  685O :  3.10  673O :  3.01  613O :  2.98  373O :  2.93  445O :  2.93  568O :  2.88
  196O :  2.88  670O :  2.87  364O :  2.87  487O :  2.84  136O :  2.82  655O :  2.81  622O :  2.78  665H :  2.77  715O :  2.75  193O :  2.71  382O :  2.64  430O :  2.64
  709O :  2.58  142O :  2.56  628O :  2.53  250O :  2.53  289O :  2.51  178O :  2.51  403O :  2.48  508O :  2.47   10O :  2.47  724O :  2.43  112O :  2.42  505O :  2.38
  415O :  2.37  721O :  2.35  484O :  2.32  550O :  2.30  295O :  2.30  433O :  2.30  262O :  2.29  397O :  2.27  424O :  2.26  739O :  2.26  451O :  2.26  604O :  2.25
  310O :  2.24  307O :  2.23  316O :  2.23  100O :  2.21  268O :  2.21   31O :  2.19  103O :  2.19  388O :  2.18  419H :  2.16  115O :  2.15  448O :  2.15  571O :  2.14
  400O :  2.13   16O :  2.13  265O :  2.09  157O :  2.09  106O :  2.01  190O :  2.00  532O :  1.88  385O :  1.87   76O :  1.85  460O :  1.85  640O :  1.83   94O :  1.82
  649O :  1.80  166O :  1.77  298O :  1.76  520O :  1.76  214O :  1.75  658O :  1.74  208O :  1.73  148O :  1.73   58O :  1.72  199O :  1.71   43O :  1.69  412O :  1.68
  325O :  1.67  499O :  1.66  661O :  1.60  151O :  1.59  301O :  1.56  547O :  1.55  754O :  1.53   79O :  1.52  189H :  1.51  145O :  1.47   82O :  1.44  514O :  1.34
  562O :  1.33  679O :  1.33  439O :  1.31  574O :  1.30  133O :  1.29   67O :  1.27  226O :  1.26  352O :  1.25  589O :  1.24  380H :  1.22  472O :  1.21  286O :  1.20
  608H :  1.18  169O :  1.16  745O :  1.15  241O :  1.13  256O :  1.13  366H :  1.11  232O :  1.11  692H :  1.10  356H :  1.08  238O :  1.08   52O :  1.07  121O :  1.06
  175O :  1.06  235O :  1.04   40O :  1.02   66H :  1.02  463O :  1.01  559O :  1.00  584H :  0.99    1O :  0.98  293H :  0.98  701H :  0.97  488H :  0.95  436O :  0.94
  120H :  0.92  427O :  0.91   37O :  0.91  511O :  0.88  749H :  0.88  491H :  0.87  421O :  0.87  526O :  0.87  457O :  0.85  358O :  0.83  500H :  0.82  564H :  0.82
  654H :  0.81    7O :  0.81  271O :  0.81  645H :  0.78   20H :  0.77  519H :  0.77  704H :  0.74  578H :  0.73  284H :  0.73  737H :  0.72  473H :  0.71  211O :  0.70
  281H :  0.70  669H :  0.69  447H :  0.69  172O :  0.69  478O :  0.67   13O :  0.66  282H :  0.65  154O :  0.64  258H :  0.64  707H :  0.62  742O :  0.61  493O :  0.61
  165H :  0.60  336H :  0.58  592O :  0.58  314H :  0.54  718O :  0.53  687H :  0.52  192H :  0.52  372H :  0.52   61O :  0.51   24H :  0.51  342H :  0.51  625O :  0.50
  349O :  0.50  394O :  0.49   11H :  0.48  264H :  0.48  569H :  0.47  470H :  0.47  668H :  0.47  483H :  0.47  119H :  0.46  639H :  0.45  598O :  0.45  124O :  0.44
  738H :  0.44   28O :  0.44  291H :  0.44  712O :  0.43  531H :  0.43  220O :  0.41  229O :  0.41  708H :  0.40  339H :  0.39  467H :  0.38  660H :  0.38  161H :  0.38
  107H :  0.37  570H :  0.37   21H :  0.37  697O :  0.36  375H :  0.36   51H :  0.35  542H :  0.35  593H :  0.34  557H :  0.34   69H :  0.34  477H :  0.34    8H :  0.34
  368H :  0.34  223O :  0.34   27H :  0.34  131H :  0.34  603H :  0.33  752H :  0.33  453H :  0.33  275H :  0.33  753H :  0.33  587H :  0.32  702H :  0.32  137H :  0.32
  663H :  0.32  647H :  0.32  565O :  0.32  320H :  0.31  509H :  0.31  623H :  0.31   90H :  0.31  731H :  0.31  164H :  0.31   29H :  0.31  392H :  0.30  141H :  0.30
  330H :  0.30  471H :  0.30  431H :  0.30  212H :  0.29  710H :  0.29  534H :  0.29   34O :  0.29  300H :  0.29  672H :  0.28  485H :  0.27  236H :  0.27  690H :  0.27
  308H :  0.26  140H :  0.26  510H :  0.26  696H :  0.26  219H :  0.26   85O :  0.26  357H :  0.25  474H :  0.25  209H :  0.25  686H :  0.25  732H :  0.25  315H :  0.24
  179H :  0.24   44H :  0.24  624H :  0.24  585H :  0.24  554H :  0.24  353H :  0.24  581H :  0.24   99H :  0.24  543H :  0.23  260H :  0.23  278H :  0.23  551H :  0.23
  197H :  0.23  653H :  0.22  117H :  0.22   18H :  0.22  650H :  0.22  181O :  0.22  305H :  0.22  417H :  0.21  409O :  0.21  440H :  0.21  105H :  0.21  426H :  0.21
  444H :  0.20  362H :  0.20  270H :  0.20  138H :  0.19  101H :  0.19  561H :  0.19  381H :  0.19  383H :  0.19  530H :  0.19  456H :  0.19   83H :  0.19  620H :  0.19
  111H :  0.19  149H :  0.19  525H :  0.18  114H :  0.18  399H :  0.18  644H :  0.18  611H :  0.18   80H :  0.18  318H :  0.18  747H :  0.18  228H :  0.18  233H :  0.18
  536H :  0.17  515H :  0.17  632H :  0.17  548H :  0.17  755H :  0.17  549H :  0.16  170H :  0.16  609H :  0.16  537H :  0.16  276H :  0.16  582H :  0.16  249H :  0.15
  597H :  0.15  290H :  0.15  671H :  0.15  527H :  0.15  204H :  0.15  512H :  0.15   89H :  0.15  309H :  0.14   46O :  0.14  666H :  0.14  359H :  0.14   30H :  0.13
  345H :  0.13  503H :  0.13  132H :  0.13  720H :  0.13    5H :  0.13  198H :  0.12  195H :  0.12  497H :  0.12  618H :  0.12  243H :  0.12  216H :  0.12  344H :  0.12
  176H :  0.12  518H :  0.11  324H :  0.11  642H :  0.11   17H :  0.11  459H :  0.11  393H :  0.11  174H :  0.11  242H :  0.11  407H :  0.10  261H :  0.10  269H :  0.10
  476H :  0.10  206H :  0.10  651H :  0.10  224H :  0.10  333H :  0.10  725H :  0.10  575H :  0.09  158H :  0.09  213H :  0.09  221H :  0.09  579H :  0.09  494H :  0.09
   68H :  0.09  408H :  0.09   81H :  0.09   57H :  0.09  296H :  0.09  489H :  0.08  311H :  0.08  108H :  0.08  395H :  0.08  194H :  0.08  437H :  0.08  156H :  0.08
  723H :  0.08   65H :  0.08  425H :  0.08  153H :  0.08  614H :  0.08  729H :  0.08  728H :  0.08  110H :  0.08  674H :  0.08  627H :  0.08  648H :  0.08  546H :  0.08
  317H :  0.07   62H :  0.07  566H :  0.07  384H :  0.07  129H :  0.07  513H :  0.07  434H :  0.07   50H :  0.07
    8 LP   *******   0.00 -59.94106 -28.67325 -48.52843  466O : 16.99  127O : 13.40  361O : 12.97  610O : 12.79  607O : 12.49  454O : 11.82   55O : 11.64   49O : 11.14  502O : 10.55  130O : 10.46  664O : 10.45  637O : 10.00
  319O :  9.85  160O :  9.80  646O :  9.57  370O :  9.43  553O :  9.40  727O :  9.36  418O :  9.31  187O :  9.14  139O :  9.05   22O :  8.91   64O :  8.80  601O :  8.76
  595O :  8.37  706O :  8.20  469O :  8.05  274O :  8.03  481O :  8.01   19O :  7.95  280O :  7.33  244O :  7.12  517O :  6.92  277O :  6.87  247O :  6.84  205O :  6.80
  217O :  6.72  331O :  6.71  343O :  6.71   70O :  6.69   88O :  6.40  616O :  6.26  529O :  6.06  442O :  6.01  490O :  5.54  634O :  5.52  535O :  5.44  367O :  5.35
  283O :  5.29  688O :  5.27  184O :  5.27  691O :  5.21  337O :  5.21  334O :  5.20  703O :  5.20  580O :  5.19  406O :  5.14  577O :  5.10   25O :  4.82  538O :  4.78
  751O :  4.77  643O :  4.63  748O :  4.61  496O :  4.60  694O :  4.55  109O :  4.51  163O :  4.44  733O :  4.42  202O :  4.40  379O :  4.37  253O :  4.34  652O :  4.34
  391O :  4.28  736O :  4.21  355O :  4.16  583O :  4.16  667O :  4.14  118O :  4.12  682O :  4.11  523O :  4.00  322O :  3.98   91O :  3.92  313O :  3.90  292O :  3.83
  259O :  3.80  730O :  3.78  376O :  3.55  556O :  3.55  700O :  3.53  475O :  3.50  340O :  3.44  541O :  3.44  544O :  3.41  346O :  3.38  631O :  3.37  619O :  3.30
   73O :  3.27  304O :  3.25  328O :  3.18   97O :  3.17  586O :  3.13    4O :  3.12  685O :  3.08  673O :  2.99  613O :  2.96  373O :  2.91  445O :  2.90  568O :  2.86
  196O :  2.86  670O :  2.85  364O :  2.85  487O :  2.81  136O :  2.80  655O :  2.79  622O :  2.76  665H :  2.75  715O :  2.73  193O :  2.69  382O :  2.62  430O :  2.62
  709O :  2.56  142O :  2.53  250O :  2.51  628O :  2.51  289O :  2.50  178O :  2.49  403O :  2.46  508O :  2.46   10O :  2.45  724O :  2.42  112O :  2.40  505O :  2.37
  415O :  2.35  721O :  2.34  484O :  2.30  295O :  2.28  550O :  2.28  433O :  2.28  262O :  2.28  397O :  2.25  424O :  2.25  739O :  2.25  451O :  2.24  604O :  2.24
  310O :  2.22  307O :  2.22  316O :  2.21  100O :  2.19  268O :  2.19   31O :  2.17  103O :  2.17  388O :  2.17  419H :  2.14  115O :  2.13  448O :  2.13  571O :  2.13
  400O :  2.11   16O :  2.11  265O :  2.07  157O :  2.07  106O :  2.00  190O :  1.98  532O :  1.86  385O :  1.85   76O :  1.84  460O :  1.83  640O :  1.82   94O :  1.81
  649O :  1.79  166O :  1.76  520O :  1.75  298O :  1.74  214O :  1.74  658O :  1.73  208O :  1.72  148O :  1.71   58O :  1.71  199O :  1.70   43O :  1.68  412O :  1.67
  325O :  1.65  499O :  1.65  661O :  1.59  151O :  1.58  301O :  1.55  547O :  1.54  754O :  1.52   79O :  1.51  189H :  1.50  145O :  1.46   82O :  1.43  514O :  1.33
  562O :  1.32  679O :  1.32  439O :  1.31  574O :  1.29  133O :  1.28   67O :  1.26  226O :  1.25  352O :  1.24  589O :  1.23  380H :  1.21  286O :  1.19  608H :  1.17
  169O :  1.15  745O :  1.14  241O :  1.12  256O :  1.12  366H :  1.10  232O :  1.10  472O :  1.09  692H :  1.09  356H :  1.07   52O :  1.07  238O :  1.06  121O :  1.06
  175O :  1.04  235O :  1.03   40O :  1.01   66H :  1.01  463O :  1.00  559O :  0.99  584H :  0.98    1O :  0.98  293H :  0.97  436O :  0.97  701H :  0.96  488H :  0.94
  120H :  0.91  427O :  0.91   37O :  0.90  511O :  0.88  749H :  0.87  491H :  0.86  421O :  0.86  526O :  0.86  457O :  0.84  358O :  0.83  500H :  0.81  564H :  0.81
    7O :  0.80  654H :  0.80  271O :  0.80  645H :  0.77   20H :  0.76  519H :  0.76  704H :  0.74  284H :  0.73  578H :  0.73  737H :  0.71  211O :  0.71  281H :  0.70
  669H :  0.69  447H :  0.69  172O :  0.68  478O :  0.67   13O :  0.65  282H :  0.64  154O :  0.64  258H :  0.64  707H :  0.62  742O :  0.61  493O :  0.60  165H :  0.59
  336H :  0.57  592O :  0.57  314H :  0.54  718O :  0.53  473H :  0.52  687H :  0.52  372H :  0.51  192H :  0.51   61O :  0.51   24H :  0.51  342H :  0.50  349O :  0.50
  625O :  0.50  394O :  0.49   11H :  0.48  264H :  0.48  569H :  0.47  470H :  0.47  668H :  0.46  483H :  0.46  119H :  0.46  639H :  0.45  598O :  0.45  124O :  0.44
  738H :  0.44   28O :  0.43  291H :  0.43  712O :  0.43  531H :  0.43  220O :  0.41  229O :  0.40  708H :  0.40  339H :  0.39  467H :  0.38  660H :  0.37  161H :  0.37
  107H :  0.37  570H :  0.37   21H :  0.37  697O :  0.36  375H :  0.35   51H :  0.35  542H :  0.35  593H :  0.34  557H :  0.34   69H :  0.34  477H :  0.34    8H :  0.34
  368H :  0.34  223O :  0.34   27H :  0.34  131H :  0.34  603H :  0.33  752H :  0.33  453H :  0.33  275H :  0.33  753H :  0.32  587H :  0.32  702H :  0.32  137H :  0.32
  663H :  0.32  647H :  0.32  565O :  0.31  320H :  0.31  554H :  0.31  509H :  0.31  623H :  0.31   90H :  0.31  731H :  0.30  164H :  0.30   29H :  0.30  392H :  0.30
  141H :  0.30  330H :  0.30  471H :  0.30  431H :  0.29  710H :  0.29  534H :  0.29  300H :  0.29   34O :  0.29  212H :  0.28  672H :  0.28  485H :  0.27  236H :  0.26
  690H :  0.26  308H :  0.26  140H :  0.26  510H :  0.26  696H :  0.26  219H :  0.26   85O :  0.25  357H :  0.25  474H :  0.25  209H :  0.25  686H :  0.24  732H :  0.24
  315H :  0.24  179H :  0.24   44H :  0.24  624H :  0.24  585H :  0.24  353H :  0.24  581H :  0.23   99H :  0.23  543H :  0.23  260H :  0.23  278H :  0.23  551H :  0.22
  197H :  0.22  653H :  0.22  117H :  0.22   18H :  0.22  650H :  0.21  181O :  0.21  305H :  0.21  417H :  0.21  409O :  0.21  440H :  0.21  105H :  0.21  426H :  0.20
  444H :  0.20  362H :  0.20  270H :  0.20  138H :  0.19  101H :  0.19  561H :  0.19  381H :  0.19  383H :  0.19  530H :  0.19  456H :  0.19   83H :  0.19  620H :  0.19
  149H :  0.18  111H :  0.18  525H :  0.18  114H :  0.18  399H :  0.18  644H :  0.18  611H :  0.18   80H :  0.18  318H :  0.18  249H :  0.18  747H :  0.18  228H :  0.18
  233H :  0.17  536H :  0.17  515H :  0.17  632H :  0.17  548H :  0.17  755H :  0.16  549H :  0.16  170H :  0.16  609H :  0.16  537H :  0.16  276H :  0.16  582H :  0.16
  290H :  0.15  597H :  0.15  671H :  0.15  527H :  0.15  204H :  0.15  512H :  0.15   89H :  0.15  309H :  0.14   46O :  0.14  666H :  0.14  359H :  0.14   30H :  0.13
  345H :  0.13  503H :  0.13  132H :  0.13  720H :  0.12    5H :  0.12  198H :  0.12  195H :  0.12  497H :  0.12  618H :  0.12  243H :  0.12  216H :  0.11  344H :  0.11
  176H :  0.11  518H :  0.11  324H :  0.11  642H :  0.11   17H :  0.11  459H :  0.11  393H :  0.11  174H :  0.11  242H :  0.11  407H :  0.10  261H :  0.10  269H :  0.10
  476H :  0.10  206H :  0.10  224H :  0.10  651H :  0.10  333H :  0.10  213H :  0.10  725H :  0.09  575H :  0.09  158H :  0.09  221H :  0.09  494H :  0.09  579H :  0.09
   68H :  0.09  335H :  0.09  408H :  0.09   81H :  0.09   57H :  0.09  296H :  0.08  489H :  0.08  437H :  0.08  311H :  0.08  108H :  0.08  395H :  0.08  194H :  0.08
  156H :  0.08  723H :  0.08   65H :  0.08  425H :  0.08  153H :  0.08  614H :  0.08  729H :  0.08  728H :  0.08  110H :  0.08  674H :  0.08  627H :  0.08  648H :  0.07
  317H :  0.07  546H :  0.07   62H :  0.07  566H :  0.07  384H :  0.07  434H :  0.07  513H :  0.07
    9 LP   *******   0.00  -0.29799   5.11838  24.47636  466O : 16.93  361O : 12.92  160O : 12.88  610O : 12.76  607O : 12.46  454O : 11.79   55O : 11.63  127O : 11.18   49O : 11.11  502O : 10.52  130O : 10.42  664O : 10.42
  637O :  9.97  319O :  9.83  646O :  9.55  370O :  9.40  553O :  9.37  727O :  9.33  418O :  9.30  187O :  9.12  139O :  9.02   22O :  8.89   64O :  8.78  601O :  8.74
  595O :  8.35  706O :  8.18  469O :  8.07  274O :  8.01  481O :  7.99   19O :  7.93  244O :  7.37  280O :  7.30  517O :  6.90  277O :  6.85  247O :  6.82  205O :  6.78
  217O :  6.70  331O :  6.70  343O :  6.68   70O :  6.67   88O :  6.38  616O :  6.24  529O :  6.05  442O :  6.00  490O :  5.52  634O :  5.51  535O :  5.43  367O :  5.33
  283O :  5.27  688O :  5.26  184O :  5.25  334O :  5.23  691O :  5.20  337O :  5.19  703O :  5.18  580O :  5.16  406O :  5.13  577O :  5.09   25O :  4.81  538O :  4.76
  751O :  4.76  643O :  4.62  748O :  4.59  496O :  4.59  694O :  4.54  109O :  4.50  733O :  4.41  202O :  4.39  379O :  4.35  253O :  4.33  163O :  4.33  652O :  4.33
  391O :  4.27  736O :  4.20  355O :  4.15  583O :  4.15  667O :  4.13  118O :  4.11  682O :  4.09  523O :  3.99  322O :  3.97   91O :  3.91  313O :  3.89  292O :  3.82
  259O :  3.79  730O :  3.77  376O :  3.54  556O :  3.54  700O :  3.52  541O :  3.43  340O :  3.42  346O :  3.37  631O :  3.36  544O :  3.35  475O :  3.33  619O :  3.29
   73O :  3.26  304O :  3.24  328O :  3.17   97O :  3.16  586O :  3.12    4O :  3.11  685O :  3.07  673O :  2.98  613O :  2.95  373O :  2.90  445O :  2.90  568O :  2.85
  196O :  2.85  670O :  2.84  364O :  2.84  487O :  2.81  136O :  2.79  655O :  2.78  622O :  2.75  665H :  2.74  715O :  2.72  193O :  2.69  382O :  2.61  430O :  2.61
  709O :  2.56  142O :  2.53  628O :  2.50  250O :  2.50  289O :  2.49  178O :  2.49  403O :  2.46  508O :  2.45   10O :  2.44  724O :  2.41  112O :  2.39  505O :  2.36
  415O :  2.34  721O :  2.33  484O :  2.29  550O :  2.28  295O :  2.28  433O :  2.27  262O :  2.27  397O :  2.24  424O :  2.24  739O :  2.24  451O :  2.24  604O :  2.23
  310O :  2.22  307O :  2.21  316O :  2.21  100O :  2.19  268O :  2.18  103O :  2.16  388O :  2.16  419H :  2.14  448O :  2.13  115O :  2.13  571O :  2.12  400O :  2.11
   16O :  2.11   31O :  2.08  157O :  2.07  265O :  2.07  106O :  1.99  190O :  1.98  532O :  1.86  385O :  1.85   76O :  1.83  460O :  1.83  640O :  1.81   94O :  1.80
  649O :  1.78  166O :  1.76  520O :  1.74  298O :  1.74  214O :  1.73  658O :  1.72  208O :  1.71  148O :  1.71   58O :  1.71  199O :  1.70   43O :  1.67  412O :  1.66
  325O :  1.65  499O :  1.64  661O :  1.59  151O :  1.58  301O :  1.55  547O :  1.53  754O :  1.52   79O :  1.51  189H :  1.49  145O :  1.46   82O :  1.43  514O :  1.33
  562O :  1.32  679O :  1.31  439O :  1.30  574O :  1.29  133O :  1.28   67O :  1.26  226O :  1.24  352O :  1.24  589O :  1.22  380H :  1.20  286O :  1.18  608H :  1.17
  169O :  1.15  745O :  1.14  241O :  1.12  256O :  1.12  366H :  1.10  232O :  1.10  472O :  1.09  692H :  1.09  356H :  1.07  238O :  1.07   52O :  1.06  121O :  1.05
  175O :  1.05  235O :  1.02   40O :  1.01   66H :  1.01  463O :  1.00  559O :  0.99  584H :  0.98    1O :  0.97  293H :  0.97  436O :  0.97  701H :  0.96  488H :  0.94
  120H :  0.91  427O :  0.90   37O :  0.90  511O :  0.88  749H :  0.87  491H :  0.86  421O :  0.86  526O :  0.86  457O :  0.84  358O :  0.82  564H :  0.81  500H :  0.81
    7O :  0.80  654H :  0.80  271O :  0.80  645H :  0.77   20H :  0.76  519H :  0.76  704H :  0.74  284H :  0.73  578H :  0.73  737H :  0.71  211O :  0.70  281H :  0.69
  669H :  0.69  447H :  0.68  172O :  0.68  478O :  0.67   13O :  0.65  282H :  0.64  154O :  0.64  258H :  0.63  707H :  0.62  742O :  0.60  493O :  0.60  165H :  0.59
  336H :  0.57  592O :  0.57  314H :  0.53  718O :  0.53  473H :  0.51  687H :  0.51  372H :  0.51  192H :  0.51   61O :  0.51   24H :  0.50  342H :  0.50  625O :  0.50
  349O :  0.49  394O :  0.49   11H :  0.48  264H :  0.48  470H :  0.47  569H :  0.47  668H :  0.46  483H :  0.46  119H :  0.46  639H :  0.45  598O :  0.44  124O :  0.44
  738H :  0.44  291H :  0.43   28O :  0.43  712O :  0.43  531H :  0.43  220O :  0.41  229O :  0.40  708H :  0.40  339H :  0.38  467H :  0.38  660H :  0.37  107H :  0.37
  570H :  0.37   21H :  0.37  697O :  0.36  375H :  0.35  593H :  0.35   51H :  0.35  542H :  0.35  557H :  0.34   69H :  0.34    8H :  0.34  368H :  0.33  223O :  0.33
   27H :  0.33  131H :  0.33  477H :  0.33  603H :  0.33  752H :  0.33  453H :  0.33  275H :  0.33  753H :  0.32  587H :  0.32  702H :  0.32  137H :  0.32  663H :  0.32
  647H :  0.31  320H :  0.31  554H :  0.31  565O :  0.31  509H :  0.31  623H :  0.31   90H :  0.30  731H :  0.30   29H :  0.30  392H :  0.30  161H :  0.30  141H :  0.30
  164H :  0.30  330H :  0.30  431H :  0.29  212H :  0.29  710H :  0.29  534H :  0.29  300H :  0.28   34O :  0.28  672H :  0.28  471H :  0.27  485H :  0.27  236H :  0.26
  690H :  0.26  308H :  0.26  140H :  0.26  510H :  0.26  696H :  0.25  219H :  0.25   85O :  0.25  357H :  0.25  474H :  0.25  209H :  0.25  686H :  0.24  732H :  0.24
  315H :  0.24  179H :  0.24   44H :  0.24  624H :  0.24  585H :  0.24  353H :  0.23  581H :  0.23   99H :  0.23  543H :  0.23  260H :  0.23  278H :  0.23  551H :  0.22
  197H :  0.22  653H :  0.22  117H :  0.22   18H :  0.22  650H :  0.21  181O :  0.21  305H :  0.21  417H :  0.21  409O :  0.21  440H :  0.21  105H :  0.21  426H :  0.20
  444H :  0.20  362H :  0.20  270H :  0.20  138H :  0.19  101H :  0.19  561H :  0.19  381H :  0.19  383H :  0.19  530H :  0.19  456H :  0.19   83H :  0.19  620H :  0.19
  111H :  0.18  149H :  0.18  525H :  0.18  114H :  0.18  399H :  0.18  644H :  0.18  611H :  0.18   80H :  0.18  318H :  0.18  249H :  0.18  233H :  0.18  747H :  0.18
  228H :  0.18  536H :  0.17  515H :  0.17  632H :  0.17  548H :  0.17  755H :  0.16  549H :  0.16  170H :  0.16  609H :  0.16  537H :  0.16  276H :  0.16  582H :  0.16
  290H :  0.15  597H :  0.15  671H :  0.15  527H :  0.15  204H :  0.15  512H :  0.15   89H :  0.14  309H :  0.14   46O :  0.14  666H :  0.14  359H :  0.14   30H :  0.13
  503H :  0.13  345H :  0.13  132H :  0.13  720H :  0.12    5H :  0.12  198H :  0.12  195H :  0.12  497H :  0.12  618H :  0.12  243H :  0.12  216H :  0.11  344H :  0.11
  176H :  0.11  518H :  0.11  324H :  0.11  642H :  0.11   17H :  0.11  459H :  0.11  393H :  0.11  174H :  0.11  242H :  0.11  407H :  0.10  261H :  0.10  269H :  0.10
  206H :  0.10  651H :  0.10  224H :  0.10  333H :  0.10  725H :  0.09  575H :  0.09  158H :  0.09  213H :  0.09  221H :  0.09  579H :  0.09  494H :  0.09   68H :  0.09
  408H :  0.09   81H :  0.09   57H :  0.09  296H :  0.08  489H :  0.08  437H :  0.08  311H :  0.08  108H :  0.08  395H :  0.08  194H :  0.08  156H :  0.08  723H :  0.08
   65H :  0.08  425H :  0.08  153H :  0.08  614H :  0.08  729H :  0.08  728H :  0.08  110H :  0.08  674H :  0.08  627H :  0.08  648H :  0.07  546H :  0.07  317H :  0.07
   62H :  0.07  384H :  0.07  129H :  0.07  513H :  0.07  434H :  0.07
   10 LP   *******   0.00 -45.64189  36.81287 -36.36917  466O : 16.94  361O : 12.92  610O : 12.75  502O : 12.74  607O : 12.45  454O : 11.78   55O : 11.63  127O : 11.18   49O : 11.10  130O : 10.42  664O : 10.41  637O :  9.97
[...]
   371   1 h    0.881 --   370 o    0.816
   372   1 h    0.886 --   370 o    0.826
   373   8 o    1.827 --   375 h    0.870   374 h    0.847
   374   1 h    0.897 --   373 o    0.847
   375   1 h    0.894 --   373 o    0.870
   376   8 o    1.854 --   378 h    0.838   377 h    0.835
   377   1 h    0.883 --   376 o    0.835
   378   1 h    0.881 --   376 o    0.838
   379   8 o    1.849 --   380 h    0.853   381 h    0.849
   380   1 h    0.894 --   379 o    0.853
   381   1 h    0.894 --   379 o    0.849
   382   8 o    1.842 --   384 h    0.873   383 h    0.816
   383   1 h    0.881 --   382 o    0.816
   384   1 h    0.900 --   382 o    0.873
   385   8 o    1.844 --   386 h    0.883   387 h    0.848
   386   1 h    0.899 --   385 o    0.883
   387   1 h    0.890 --   385 o    0.848
   388   8 o    1.866 --   389 h    0.911   390 h    0.796
   389   1 h    0.914 --   388 o    0.911
   390   1 h    0.877 --   388 o    0.796
   391   8 o    1.852 --   392 h    0.883   393 h    0.834
   392   1 h    0.900 --   391 o    0.883
   393   1 h    0.882 --   391 o    0.834
   394   8 o    1.857 --   396 h    0.840   395 h    0.808
   395   1 h    0.879 --   394 o    0.808
   396   1 h    0.889 --   394 o    0.840
   397   8 o    1.868 --   398 h    0.815   399 h    0.809
   398   1 h    0.881 --   397 o    0.815
   399   1 h    0.878 --   397 o    0.809
   400   8 o    1.863 --   401 h    0.841   402 h    0.835
   401   1 h    0.892 --   400 o    0.841
   402   1 h    0.891 --   400 o    0.835
   403   8 o    1.866 --   405 h    0.836   404 h    0.820
   404   1 h    0.889 --   403 o    0.820
   405   1 h    0.889 --   403 o    0.836
   406   8 o    1.827 --   408 h    0.839   407 h    0.830
   407   1 h    0.885 --   406 o    0.830
   408   1 h    0.891 --   406 o    0.839
   409   8 o    1.865 --   410 h    0.834   411 h    0.793
   410   1 h    0.885 --   409 o    0.834
   411   1 h    0.880 --   409 o    0.793
   412   8 o    1.864 --   413 h    0.868   414 h    0.812
   413   1 h    0.890 --   412 o    0.868
   414   1 h    0.875 --   412 o    0.812
   415   8 o    1.849 --   417 h    0.866   416 h    0.778
   416   1 h    0.877 --   415 o    0.778
   417   1 h    0.896 --   415 o    0.866
   418   8 o    1.864 --   420 h    0.840   419 h    0.819
   419   1 h    0.884 --   418 o    0.819
   420   1 h    0.889 --   418 o    0.840
   421   8 o    1.842 --   422 h    0.845   423 h    0.843
   422   1 h    0.888 --   421 o    0.845
   423   1 h    0.890 --   421 o    0.843
   424   8 o    1.833 --   425 h    0.895   426 h    0.860
   425   1 h    0.903 --   424 o    0.895
   426   1 h    0.892 --   424 o    0.860
   427   8 o    1.855 --   429 h    0.817   428 h    0.807
   428   1 h    0.878 --   427 o    0.807
   429   1 h    0.878 --   427 o    0.817
   430   8 o    1.835 --   432 h    0.822   431 h    0.822
   431   1 h    0.881 --   430 o    0.822
   432   1 h    0.879 --   430 o    0.822
   433   8 o    1.826 --   434 h    0.838   435 h    0.836
   434   1 h    0.887 --   433 o    0.838
   435   1 h    0.896 --   433 o    0.836
   436   8 o    1.841 --   438 h    0.852   437 h    0.830
   437   1 h    0.881 --   436 o    0.830
   438   1 h    0.893 --   436 o    0.852
   439   8 o    1.861 --   441 h    0.844   440 h    0.787
   440   1 h    0.876 --   439 o    0.787
   441   1 h    0.895 --   439 o    0.844
   442   8 o    1.850 --   444 h    0.880   443 h    0.823
   443   1 h    0.886 --   442 o    0.823
   444   1 h    0.900 --   442 o    0.880
   445   8 o    1.861 --   447 h    0.880   446 h    0.838
   446   1 h    0.888 --   445 o    0.838
   447   1 h    0.900 --   445 o    0.880
   448   8 o    1.865 --   450 h    0.874   449 h    0.831
   449   1 h    0.887 --   448 o    0.831
   450   1 h    0.896 --   448 o    0.874
   451   8 o    1.848 --   453 h    0.841   452 h    0.809
   452   1 h    0.882 --   451 o    0.809
   453   1 h    0.884 --   451 o    0.841
   454   8 o    1.869 --   455 h    0.837   456 h    0.831
   455   1 h    0.878 --   454 o    0.837
   456   1 h    0.885 --   454 o    0.831
   457   8 o    1.827 --   458 h    0.904   459 h    0.826
   458   1 h    0.913 --   457 o    0.904
   459   1 h    0.879 --   457 o    0.826
   460   8 o    1.872 --   462 h    0.835   461 h    0.789
   461   1 h    0.877 --   460 o    0.789
   462   1 h    0.892 --   460 o    0.835
   463   8 o    1.866 --   464 h    0.887   465 h    0.813
   464   1 h    0.904 --   463 o    0.887
   465   1 h    0.884 --   463 o    0.813
   466   8 o    1.896 --   468 h    0.826   467 h    0.795
   467   1 h    0.875 --   466 o    0.795
   468   1 h    0.882 --   466 o    0.826
   469   8 o    1.839 --   470 h    0.841   471 h    0.833
   470   1 h    0.890 --   469 o    0.841
   471   1 h    0.886 --   469 o    0.833
   472   8 o    1.868 --   474 h    0.878   473 h    0.827
   473   1 h    0.887 --   472 o    0.827
   474   1 h    0.897 --   472 o    0.878
   475   8 o    1.873 --   477 h    0.848   476 h    0.823
   476   1 h    0.884 --   475 o    0.823
   477   1 h    0.886 --   475 o    0.848
   478   8 o    1.860 --   479 h    0.829   480 h    0.788
   479   1 h    0.886 --   478 o    0.829
   480   1 h    0.883 --   478 o    0.788
   481   8 o    1.879 --   483 h    0.823   482 h    0.814
   482   1 h    0.886 --   481 o    0.814
   483   1 h    0.880 --   481 o    0.823
   484   8 o    1.838 --   486 h    0.906   485 h    0.802
   485   1 h    0.878 --   484 o    0.802
   486   1 h    0.914 --   484 o    0.906
   487   8 o    1.849 --   488 h    0.858   489 h    0.810
   488   1 h    0.896 --   487 o    0.858
   489   1 h    0.880 --   487 o    0.810
   490   8 o    1.883 --   492 h    0.810   491 h    0.806
   491   1 h    0.873 --   490 o    0.806
   492   1 h    0.885 --   490 o    0.810
   493   8 o    1.863 --   494 h    0.823   495 h    0.810
   494   1 h    0.884 --   493 o    0.823
   495   1 h    0.879 --   493 o    0.810
   496   8 o    1.872 --   498 h    0.860   497 h    0.768
   497   1 h    0.868 --   496 o    0.768
   498   1 h    0.891 --   496 o    0.860
   499   8 o    1.841 --   501 h    0.864   500 h    0.833
   500   1 h    0.891 --   499 o    0.833
   501   1 h    0.899 --   499 o    0.864
   502   8 o    1.861 --   504 h    0.870   503 h    0.861
   503   1 h    0.892 --   502 o    0.861
   504   1 h    0.895 --   502 o    0.870
   505   8 o    1.847 --   506 h    0.853   507 h    0.835
   506   1 h    0.897 --   505 o    0.853
   507   1 h    0.890 --   505 o    0.835
   508   8 o    1.859 --   509 h    0.832   510 h    0.831   270 h    0.102
   509   1 h    0.888 --   508 o    0.832
   510   1 h    0.888 --   508 o    0.831
   511   8 o    1.853 --   513 h    0.826   512 h    0.802
   512   1 h    0.876 --   511 o    0.802
   513   1 h    0.885 --   511 o    0.826
   514   8 o    1.833 --   516 h    0.858   515 h    0.842
   515   1 h    0.896 --   514 o    0.842
   516   1 h    0.900 --   514 o    0.858
   517   8 o    1.869 --   519 h    0.823   518 h    0.819
   518   1 h    0.885 --   517 o    0.819
   519   1 h    0.891 --   517 o    0.823
   520   8 o    1.861 --   521 h    0.871   522 h    0.825
   521   1 h    0.893 --   520 o    0.871
   522   1 h    0.887 --   520 o    0.825
   523   8 o    1.848 --   524 h    0.861   525 h    0.851
   524   1 h    0.897 --   523 o    0.861
   525   1 h    0.896 --   523 o    0.851
   526   8 o    1.852 --   527 h    0.851   528 h    0.837
   527   1 h    0.889 --   526 o    0.851
   528   1 h    0.888 --   526 o    0.837
   529   8 o    1.861 --   530 h    0.816   531 h    0.791
   530   1 h    0.875 --   529 o    0.816
   531   1 h    0.874 --   529 o    0.791
   532   8 o    1.847 --   533 h    0.857   534 h    0.823
   533   1 h    0.902 --   532 o    0.857
   534   1 h    0.888 --   532 o    0.823
   535   8 o    1.866 --   537 h    0.885   536 h    0.860
   536   1 h    0.893 --   535 o    0.860
   537   1 h    0.900 --   535 o    0.885
   538   8 o    1.843 --   539 h    0.864   540 h    0.833
   539   1 h    0.897 --   538 o    0.864
   540   1 h    0.882 --   538 o    0.833
   541   8 o    1.867 --   542 h    0.847   543 h    0.824
   542   1 h    0.892 --   541 o    0.847
   543   1 h    0.886 --   541 o    0.824
   544   8 o    1.820 --   545 h    0.857   546 h    0.831
   545   1 h    0.900 --   544 o    0.857
   546   1 h    0.882 --   544 o    0.831
   547   8 o    1.850 --   549 h    0.909   548 h    0.758
   548   1 h    0.874 --   547 o    0.758   205 o    0.111
   549   1 h    0.917 --   547 o    0.909
   550   8 o    1.835 --   551 h    0.874   552 h    0.829
   551   1 h    0.902 --   550 o    0.874
   552   1 h    0.885 --   550 o    0.829
   553   8 o    1.875 --   554 h    0.883   555 h    0.831
   554   1 h    0.900 --   553 o    0.883
   555   1 h    0.875 --   553 o    0.831
   556   8 o    1.836 --   557 h    0.915   558 h    0.800
   557   1 h    0.922 --   556 o    0.915
   558   1 h    0.882 --   556 o    0.800
   559   8 o    1.837 --   561 h    0.889   560 h    0.804
   560   1 h    0.879 --   559 o    0.804
   561   1 h    0.908 --   559 o    0.889
   562   8 o    1.855 --   564 h    0.835   563 h    0.825
   563   1 h    0.885 --   562 o    0.825
   564   1 h    0.886 --   562 o    0.835
   565   8 o    1.874 --   566 h    0.877   567 h    0.857
   566   1 h    0.897 --   565 o    0.877
   567   1 h    0.891 --   565 o    0.857
   568   8 o    1.855 --   569 h    0.879   570 h    0.807
   569   1 h    0.902 --   568 o    0.879
   570   1 h    0.878 --   568 o    0.807
   571   8 o    1.907 --   573 h    0.796   572 h    0.791   705 h    0.130
   572   1 h    0.884 --   571 o    0.791
   573   1 h    0.876 --   571 o    0.796
   574   8 o    1.849 --   575 h    0.904   576 h    0.781
   575   1 h    0.914 --   574 o    0.904
   576   1 h    0.877 --   574 o    0.781
   577   8 o    1.866 --   579 h    0.789   578 h    0.777
   578   1 h    0.869 --   577 o    0.777
   579   1 h    0.882 --   577 o    0.789
   580   8 o    1.859 --   582 h    0.865   581 h    0.854
   581   1 h    0.893 --   580 o    0.854
   582   1 h    0.897 --   580 o    0.865
   583   8 o    1.839 --   585 h    0.822   584 h    0.820
   584   1 h    0.887 --   583 o    0.820
   585   1 h    0.891 --   583 o    0.822
   586   8 o    1.835 --   587 h    0.909   588 h    0.811
   587   1 h    0.916 --   586 o    0.909
   588   1 h    0.881 --   586 o    0.811
   589   8 o    1.820 --   591 h    0.853   590 h    0.848
   590   1 h    0.888 --   589 o    0.848
   591   1 h    0.896 --   589 o    0.853
   592   8 o    1.858 --   593 h    0.887   594 h    0.870
   593   1 h    0.900 --   592 o    0.887
   594   1 h    0.890 --   592 o    0.870
   595   8 o    1.841 --   596 h    0.829   597 h    0.813
   596   1 h    0.890 --   595 o    0.829
   597   1 h    0.876 --   595 o    0.813
   598   8 o    1.841 --   599 h    0.826   600 h    0.824
   599   1 h    0.891 --   598 o    0.826
   600   1 h    0.886 --   598 o    0.824
   601   8 o    1.837 --   602 h    0.822   603 h    0.821
   602   1 h    0.887 --   601 o    0.822
   603   1 h    0.881 --   601 o    0.821
   604   8 o    1.859 --   606 h    0.831   605 h    0.810
   605   1 h    0.888 --   604 o    0.810
   606   1 h    0.883 --   604 o    0.831
   607   8 o    1.849 --   609 h    0.831   608 h    0.810
   608   1 h    0.886 --   607 o    0.810
   609   1 h    0.886 --   607 o    0.831
   610   8 o    1.864 --   612 h    0.851   611 h    0.813
   611   1 h    0.875 --   610 o    0.813
   612   1 h    0.889 --   610 o    0.851
   613   8 o    1.868 --   615 h    0.879   614 h    0.839
   614   1 h    0.889 --   613 o    0.839
   615   1 h    0.899 --   613 o    0.879
   616   8 o    1.846 --   618 h    0.882   617 h    0.867
   617   1 h    0.895 --   616 o    0.867
   618   1 h    0.898 --   616 o    0.882
   619   8 o    1.854 --   620 h    0.827   621 h    0.795
   620   1 h    0.878 --   619 o    0.827
   621   1 h    0.877 --   619 o    0.795
   622   8 o    1.881 --   624 h    0.858   623 h    0.810
   623   1 h    0.878 --   622 o    0.810
   624   1 h    0.892 --   622 o    0.858
   625   8 o    1.879 --   626 h    0.906   627 h    0.789
   626   1 h    0.911 --   625 o    0.906
   627   1 h    0.872 --   625 o    0.789
   628   8 o    1.863 --   630 h    0.852   629 h    0.792
   629   1 h    0.870 --   628 o    0.792
   630   1 h    0.889 --   628 o    0.852
   631   8 o    1.856 --   633 h    0.850   632 h    0.804
   632   1 h    0.878 --   631 o    0.804
   633   1 h    0.890 --   631 o    0.850
   634   8 o    1.872 --   636 h    0.850   635 h    0.839
   635   1 h    0.892 --   634 o    0.839
   636   1 h    0.894 --   634 o    0.850
   637   8 o    1.837 --   639 h    0.841   638 h    0.835
   638   1 h    0.894 --   637 o    0.835
   639   1 h    0.897 --   637 o    0.841
   640   8 o    1.836 --   642 h    0.908   641 h    0.817
   641   1 h    0.875 --   640 o    0.817
   642   1 h    0.914 --   640 o    0.908
   643   8 o    1.835 --   645 h    0.887   644 h    0.817
   644   1 h    0.881 --   643 o    0.817
   645   1 h    0.905 --   643 o    0.887
   646   8 o    1.820 --   648 h    0.829   647 h    0.805
   647   1 h    0.882 --   646 o    0.805
   648   1 h    0.892 --   646 o    0.829
   649   8 o    1.846 --   650 h    0.866   651 h    0.823
   650   1 h    0.899 --   649 o    0.866
   651   1 h    0.891 --   649 o    0.823
   652   8 o    1.850 --   653 h    0.832   654 h    0.815
   653   1 h    0.884 --   652 o    0.832
   654   1 h    0.886 --   652 o    0.815
   655   8 o    1.832 --   657 h    0.892   656 h    0.826
   656   1 h    0.886 --   655 o    0.826
   657   1 h    0.906 --   655 o    0.892
   658   8 o    1.847 --   659 h    0.877   660 h    0.830
   659   1 h    0.901 --   658 o    0.877
   660   1 h    0.879 --   658 o    0.830
   661   8 o    1.862 --   662 h    0.871   663 h    0.824
   662   1 h    0.896 --   661 o    0.871
   663   1 h    0.893 --   661 o    0.824
   664   8 o    1.851 --   665 h    0.822   666 h    0.813
   665   1 h    0.887 --   664 o    0.822
   666   1 h    0.881 --   664 o    0.813
   667   8 o    1.858 --   669 h    0.866   668 h    0.834
   668   1 h    0.888 --   667 o    0.834
   669   1 h    0.897 --   667 o    0.866
   670   8 o    1.864 --   672 h    0.844   671 h    0.827
   671   1 h    0.887 --   670 o    0.827
   672   1 h    0.895 --   670 o    0.844
   673   8 o    1.827 --   674 h    0.852   675 h    0.827
   674   1 h    0.894 --   673 o    0.852
   675   1 h    0.882 --   673 o    0.827
   676   8 o    1.853 --   677 h    0.817   678 h    0.810
   677   1 h    0.886 --   676 o    0.817
   678   1 h    0.875 --   676 o    0.810
   679   8 o    1.834 --   680 h    0.837   681 h    0.826
   680   1 h    0.890 --   679 o    0.837
   681   1 h    0.884 --   679 o    0.826
   682   8 o    1.841 --   683 h    0.860   684 h    0.848
   683   1 h    0.890 --   682 o    0.860
   684   1 h    0.888 --   682 o    0.848
   685   8 o    1.865 --   686 h    0.827   687 h    0.817
   686   1 h    0.883 --   685 o    0.827
   687   1 h    0.888 --   685 o    0.817
   688   8 o    1.870 --   689 h    0.853   690 h    0.811
   689   1 h    0.890 --   688 o    0.853
   690   1 h    0.881 --   688 o    0.811
   691   8 o    1.841 --   693 h    0.850   692 h    0.843
   692   1 h    0.894 --   691 o    0.843
   693   1 h    0.891 --   691 o    0.850
   694   8 o    1.890 --   696 h    0.808   695 h    0.807
   695   1 h    0.879 --   694 o    0.807
   696   1 h    0.875 --   694 o    0.808
   697   8 o    1.878 --   698 h    0.825   699 h    0.807
   698   1 h    0.881 --   697 o    0.825
   699   1 h    0.881 --   697 o    0.807
   700   8 o    1.837 --   701 h    0.861   702 h    0.833
   701   1 h    0.900 --   700 o    0.861
   702   1 h    0.891 --   700 o    0.833
   703   8 o    1.857 --   704 h    0.907   705 h    0.740
   704   1 h    0.913 --   703 o    0.907
   705   1 h    0.876 --   703 o    0.740   571 o    0.130
   706   8 o    1.847 --   708 h    0.885   707 h    0.826
   707   1 h    0.887 --   706 o    0.826
   708   1 h    0.903 --   706 o    0.885
   709   8 o    1.820 --   710 h    0.882   711 h    0.868
   710   1 h    0.901 --   709 o    0.882
   711   1 h    0.898 --   709 o    0.868
   712   8 o    1.855 --   714 h    0.817   713 h    0.806
   713   1 h    0.885 --   712 o    0.806
   714   1 h    0.881 --   712 o    0.817
   715   8 o    1.852 --   717 h    0.847   716 h    0.839
   716   1 h    0.889 --   715 o    0.839
   717   1 h    0.881 --   715 o    0.847
   718   8 o    1.846 --   720 h    0.829   719 h    0.787
   719   1 h    0.879 --   718 o    0.787
   720   1 h    0.890 --   718 o    0.829
   721   8 o    1.837 --   723 h    0.891   722 h    0.821
   722   1 h    0.885 --   721 o    0.821
   723   1 h    0.906 --   721 o    0.891
   724   8 o    1.886 --   725 h    0.827   726 h    0.809
   725   1 h    0.890 --   724 o    0.827
   726   1 h    0.880 --   724 o    0.809
   727   8 o    1.847 --   729 h    0.834   728 h    0.813
   728   1 h    0.876 --   727 o    0.813
   729   1 h    0.889 --   727 o    0.834
   730   8 o    1.848 --   731 h    0.878   732 h    0.854
   731   1 h    0.900 --   730 o    0.878
   732   1 h    0.896 --   730 o    0.854
   733   8 o    1.862 --   734 h    0.873   735 h    0.850
   734   1 h    0.899 --   733 o    0.873
   735   1 h    0.892 --   733 o    0.850
   736   8 o    1.840 --   737 h    0.871   738 h    0.865
   737   1 h    0.896 --   736 o    0.871
   738   1 h    0.893 --   736 o    0.865
   739   8 o    1.831 --   741 h    0.848   740 h    0.826
   740   1 h    0.895 --   739 o    0.826
   741   1 h    0.887 --   739 o    0.848
   742   8 o    1.890 --   743 h    0.833   744 h    0.829
   743   1 h    0.883 --   742 o    0.833
   744   1 h    0.889 --   742 o    0.829
   745   8 o    1.853 --   746 h    0.862   747 h    0.822
   746   1 h    0.897 --   745 o    0.862
   747   1 h    0.878 --   745 o    0.822
   748   8 o    1.863 --   749 h    0.861   750 h    0.851
   749   1 h    0.895 --   748 o    0.861
   750   1 h    0.895 --   748 o    0.851
   751   8 o    1.844 --   752 h    0.886   753 h    0.795
   752   1 h    0.894 --   751 o    0.886
   753   1 h    0.873 --   751 o    0.795
   754   8 o    1.798 --   756 h    0.854   755 h    0.842
   755   1 h    0.886 --   754 o    0.842
   756   1 h    0.886 --   754 o    0.854
 ---------------------------------------------------------------------------

Topologies differ in total number of bonds
Writing topology from bond orders to xtbtopo.mol

molecular dipole:
                 x           y           z       tot (Debye)
 q only:        0.807      -0.952       1.152
   full:        1.898      -1.882       1.209       7.457
molecular quadrupole (traceless):
                xx          xy          yy          xz          yz          zz
 q only:      -43.742     -41.648      72.687       9.918     -31.939     -28.945
  q+dip:      -63.682     -60.960      97.322       7.235     -47.476     -33.641
   full:      -62.397     -61.171      96.520       7.029     -46.676     -34.123


           -------------------------------------------------
          | TOTAL ENERGY            -1283.358483716143 Eh   |
          | GRADIENT NORM               0.027524330079 Eh/α |
          | HOMO-LUMO GAP               7.995371033048 eV   |
           -------------------------------------------------

------------------------------------------------------------------------
 * finished run on 2022/11/24 at 09:29:07.941     
------------------------------------------------------------------------
 total:
 * wall-time:     0 d,  0 h,  0 min, 57.866 sec
 *  cpu-time:     0 d,  0 h,  1 min, 13.623 sec
 * ratio c/w:     1.272 speedup
 SCF:
 * wall-time:     0 d,  0 h,  0 min, 56.804 sec
 *  cpu-time:     0 d,  0 h,  1 min, 11.882 sec
 * ratio c/w:     1.265 speedup

