      -----------------------------------------------------------      
     |                   =====================                   |     
     |                           x T B                           |     
     |                   =====================                   |     
     |                         S. Grimme                         |     
     |          Mulliken Center for Theoretical Chemistry        |     
     |                    University of Bonn                     |     
      -----------------------------------------------------------      

   * xtb version 6.5.1 (579679a) compiled by 'ehlert@majestix' on 2022-07-11

   xtb is free software: you can redistribute it and/or modify it under
   the terms of the GNU Lesser General Public License as published by
   the Free Software Foundation, either version 3 of the License, or
   (at your option) any later version.
   
   xtb is distributed in the hope that it will be useful,
   but WITHOUT ANY WARRANTY; without even the implied warranty of
   MERCHANTABILITY or FITNESS FOR A PARTICULAR PURPOSE.  See the
   GNU Lesser General Public License for more details.
   
   Cite this work as:
   * C. Bannwarth, E. Caldeweyher, S. Ehlert, A. Hansen, P. Pracht,
     J. Seibert, S. Spicher, S. Grimme, WIREs Comput. Mol. Sci., 2020, 11,
     e01493. DOI: 10.1002/wcms.1493
   
   for GFN2-xTB:
   * C. Bannwarth, S. Ehlert and S. Grimme., J. Chem. Theory Comput., 2019,
     15, 1652-1671. DOI: 10.1021/acs.jctc.8b01176
   for GFN1-xTB:
   * S. Grimme, C. Bannwarth, P. Shushkov, J. Chem. Theory Comput., 2017,
     13, 1989-2009. DOI: 10.1021/acs.jctc.7b00118
   for GFN0-xTB:
   * P. Pracht, E. Caldeweyher, S. Ehlert, S. Grimme, ChemRxiv, 2019, preprint.
     DOI: 10.26434/chemrxiv.8326202.v1
   for GFN-FF:
   * S. Spicher and S. Grimme, Angew. Chem. Int. Ed., 2020, 59, 15665-15673.
     DOI: 10.1002/anie.202004239
   
   for ALPB and GBSA implicit solvation:
   * S. Ehlert, M. Stahn, S. Spicher, S. Grimme, J. Chem. Theory Comput.,
     2021, 17, 4250-4261. DOI: 10.1021/acs.jctc.1c00471
   
   for DFT-D4:
   * E. Caldeweyher, C. Bannwarth and S. Grimme, J. Chem. Phys., 2017,
     147, 034112. DOI: 10.1063/1.4993215
   * E. Caldeweyher, S. Ehlert, A. Hansen, H. Neugebauer, S. Spicher,
     C. Bannwarth and S. Grimme, J. Chem. Phys., 2019, 150, 154122.
     DOI: 10.1063/1.5090222
   * E. Caldeweyher, J.-M. Mewes, S. Ehlert and S. Grimme, Phys. Chem. Chem. Phys.
     2020, 22, 8499-8512. DOI: 10.1039/D0CP00502A
   
   for sTDA-xTB:
   * S. Grimme and C. Bannwarth, J. Chem. Phys., 2016, 145, 054103.
     DOI: 10.1063/1.4959605
   
   in the mass-spec context:
   * V. Asgeirsson, C. Bauer and S. Grimme, Chem. Sci., 2017, 8, 4879.
     DOI: 10.1039/c7sc00601b
   * J. Koopman and S. Grimme, ACS Omega 2019, 4, 12, 15120-15133.
     DOI: 10.1021/acsomega.9b02011
   
   for metadynamics refer to:
   * S. Grimme, J. Chem. Theory Comput., 2019, 155, 2847-2862
     DOI: 10.1021/acs.jctc.9b00143
   
   for SPH calculations refer to:
   * S. Spicher and S. Grimme, J. Chem. Theory Comput., 2021, 17, 1701-1714
     DOI: 10.1021/acs.jctc.0c01306
   
   with help from (in alphabetical order)
   P. Atkinson, C. Bannwarth, F. Bohle, G. Brandenburg, E. Caldeweyher
   M. Checinski, S. Dohm, S. Ehlert, S. Ehrlich, I. Gerasimov, C. Hölzer
   A. Katbashev, J. Koopman, C. Lavigne, S. Lehtola, F. März, M. Müller,
   F. Musil, H. Neugebauer, J. Pisarek, C. Plett, P. Pracht, F. Pultar,
   J. Seibert, P. Shushkov, S. Spicher, M. Stahn, M. Steiner, T. Strunk,
   J. Stückrath, T. Rose, and J. Unsleber
   
 * started run on 2022/11/24 at 09:27:46.526     

           -------------------------------------------------
          |                Calculation Setup                |
           -------------------------------------------------

          program call               : xtb xtbopt.coord --gfn2 --sp --gbsa water
          hostname                   : cn0341
          coordinate file            : xtbopt.coord
          omp threads                :                     2

   ID    Z sym.   atoms
    1    8 o      1, 4, 7, 10, 13, 16, 19, 22, 25, 28, 31, 34, 37, 40, 43,
                  46, 49, 52, 55, 58, 61, 64, 67, 70, 73, 76, 79, 82, 85, 88,
                  91, 94, 97, 100, 103, 106, 109, 112, 115, 118, 121, 124,
                  127, 130, 133, 136, 139, 142, 145, 148, 151, 154, 157, 160,
                  163, 166, 169, 172, 175, 178, 181, 184, 187, 190, 193, 196,
                  199, 202, 205, 208, 211, 214, 217, 220, 223, 226, 229, 232,
                  235, 238, 241, 244, 247, 250, 253, 256, 259, 262, 265, 268,
                  271, 274, 277, 280, 283, 286, 289, 292, 295, 298, 301, 304,
                  307, 310, 313, 316, 319, 322, 325, 328, 331, 334, 337, 340,
                  343, 346, 349, 352, 355, 358, 361, 364, 367, 370, 373, 376,
                  379, 382, 385, 388, 391, 394, 397, 400, 403, 406, 409, 412,
                  415, 418, 421, 424, 427, 430, 433, 436, 439, 442, 445, 448,
                  451, 454, 457, 460, 463, 466, 469, 472, 475, 478, 481, 484,
                  487, 490, 493, 496, 499, 502, 505, 508, 511, 514, 517, 520,
                  523, 526, 529, 532, 535, 538, 541, 544, 547, 550, 553, 556,
                  559, 562, 565, 568, 571, 574, 577, 580, 583, 586, 589, 592,
                  595, 598, 601, 604, 607, 610, 613, 616, 619, 622, 625, 628,
                  631, 634, 637, 640, 643, 646, 649, 652, 655, 658, 661, 664,
                  667, 670, 673, 676, 679, 682, 685, 688, 691, 694, 697, 700,
                  703, 706, 709, 712, 715, 718, 721, 724, 727, 730, 733, 736,
                  739, 742, 745, 748, 751, 754
    2    1 h      2, 3, 5, 6, 8, 9, 11, 12, 14, 15, 17, 18, 20, 21, 23, 24,
                  26, 27, 29, 30, 32, 33, 35, 36, 38, 39, 41, 42, 44, 45, 47,
                  48, 50, 51, 53, 54, 56, 57, 59, 60, 62, 63, 65, 66, 68, 69,
                  71, 72, 74, 75, 77, 78, 80, 81, 83, 84, 86, 87, 89, 90, 92,
                  93, 95, 96, 98, 99, 101, 102, 104, 105, 107, 108, 110, 111,
                  113, 114, 116, 117, 119, 120, 122, 123, 125, 126, 128, 129,
                  131, 132, 134, 135, 137, 138, 140, 141, 143, 144, 146, 147,
                  149, 150, 152, 153, 155, 156, 158, 159, 161, 162, 164, 165,
                  167, 168, 170, 171, 173, 174, 176, 177, 179, 180, 182, 183,
                  185, 186, 188, 189, 191, 192, 194, 195, 197, 198, 200, 201,
                  203, 204, 206, 207, 209, 210, 212, 213, 215, 216, 218, 219,
                  221, 222, 224, 225, 227, 228, 230, 231, 233, 234, 236, 237,
                  239, 240, 242, 243, 245, 246, 248, 249, 251, 252, 254, 255,
                  257, 258, 260, 261, 263, 264, 266, 267, 269, 270, 272, 273,
                  275, 276, 278, 279, 281, 282, 284, 285, 287, 288, 290, 291,
                  293, 294, 296, 297, 299, 300, 302, 303, 305, 306, 308, 309,
                  311, 312, 314, 315, 317, 318, 320, 321, 323, 324, 326, 327,
                  329, 330, 332, 333, 335, 336, 338, 339, 341, 342, 344, 345,
                  347, 348, 350, 351, 353, 354, 356, 357, 359, 360, 362, 363,
                  365, 366, 368, 369, 371, 372, 374, 375, 377, 378, 380, 381,
                  383, 384, 386, 387, 389, 390, 392, 393, 395, 396, 398, 399,
                  401, 402, 404, 405, 407, 408, 410, 411, 413, 414, 416, 417,
                  419, 420, 422, 423, 425, 426, 428, 429, 431, 432, 434, 435,
                  437, 438, 440, 441, 443, 444, 446, 447, 449, 450, 452, 453,
                  455, 456, 458, 459, 461, 462, 464, 465, 467, 468, 470, 471,
                  473, 474, 476, 477, 479, 480, 482, 483, 485, 486, 488, 489,
                  491, 492, 494, 495, 497, 498, 500, 501, 503, 504, 506, 507,
                  509, 510, 512, 513, 515, 516, 518, 519, 521, 522, 524, 525,
                  527, 528, 530, 531, 533, 534, 536, 537, 539, 540, 542, 543,
                  545, 546, 548, 549, 551, 552, 554, 555, 557, 558, 560, 561,
                  563, 564, 566, 567, 569, 570, 572, 573, 575, 576, 578, 579,
                  581, 582, 584, 585, 587, 588, 590, 591, 593, 594, 596, 597,
                  599, 600, 602, 603, 605, 606, 608, 609, 611, 612, 614, 615,
                  617, 618, 620, 621, 623, 624, 626, 627, 629, 630, 632, 633,
                  635, 636, 638, 639, 641, 642, 644, 645, 647, 648, 650, 651,
                  653, 654, 656, 657, 659, 660, 662, 663, 665, 666, 668, 669,
                  671, 672, 674, 675, 677, 678, 680, 681, 683, 684, 686, 687,
                  689, 690, 692, 693, 695, 696, 698, 699, 701, 702, 704, 705,
                  707, 708, 710, 711, 713, 714, 716, 717, 719, 720, 722, 723,
                  725, 726, 728, 729, 731, 732, 734, 735, 737, 738, 740, 741,
                  743, 744, 746, 747, 749, 750, 752, 753, 755, 756

molecular fragmentation (1/2 indicates fragments):
111222222222222222222222222222222222222222222222222222222222222222222222
222222222222222222222222222222222222222222222222222222222222222222222222
222222222222222222222222222222222222222222222222222222222222222222222222
222222222222222222222222222222222222222222222222222222222222222222222222
222222222222222222222222222222222222222222222222222222222222222222222222
222222222222222222222222222222222222222222222222222222222222222222222222
222222222222222222222222222222222222222222222222222222222222222222222222
222222222222222222222222222222222222222222222222222222222222222222222222
222222222222222222222222222222222222222222222222222222222222222222222222
222222222222222222222222222222222222222222222222222222222222222222222222
222222222222222222222222222222222222
# atoms in fragment 1/2:     3   753
 fragment masses (1/2) :       18.02     4521.84
CMA distance (Bohr)    :  16.036
constraining FC (au)   :  0.0500

           -------------------------------------------------
          |                 G F N 2 - x T B                 |
           -------------------------------------------------

        Reference                      10.1021/acs.jctc.8b01176
      * Hamiltonian:
        H0-scaling (s, p, d)           1.850000    2.230000    2.230000
        zeta-weighting                 0.500000
      * Dispersion:
        s8                             2.700000
        a1                             0.520000
        a2                             5.000000
        s9                             5.000000
      * Repulsion:
        kExp                           1.500000    1.000000
        rExp                           1.000000
      * Coulomb:
        alpha                          2.000000
        third order                    shell-resolved
        anisotropic                    true
        a3                             3.000000
        a5                             4.000000
        cn-shift                       1.200000
        cn-exp                         4.000000
        max-rad                        5.000000

      * Solvation model:               GBSA
        Solvent                        water
        Parameter file                 internal GFN2-xTB/GBSA
        Dielectric constant                8.0200E+01
        Reference state                gsolv [1 M gas/solution]
        Free energy shift                  1.8574E-03 Eh       1.1656E+00 kcal/mol
        Temperature                        2.9815E+02 K
        Density                            1.0000E+00 kg/L
        Solvent mass                       1.8000E+01 g/mol
        Interaction kernel             Still
        Born radius scaling (c1)           1.5524E+00
        Born radii integrator          GBOBC
        Born offset                        2.4628E-02 a0       4.6540E-02 AA
        H-bond correction              true
        Ion screening                  false
        Surface tension                    1.0000E-05 Eh       1.5569E+01 dyn/cm
        Grid points                               230 per atom

          ...................................................
          :                      SETUP                      :
          :.................................................:
          :  # basis functions                1512          :
          :  # atomic orbitals                1512          :
          :  # shells                         1008          :
          :  # electrons                      2016          :
          :  max. iterations                   250          :
          :  Hamiltonian                  GFN2-xTB          :
          :  restarted?                      false          :
          :  GBSA solvation                   true          :
          :  PC potential                    false          :
          :  electronic temp.          300.0000000     K    :
          :  accuracy                    1.0000000          :
          :  -> integral cutoff          0.2500000E+02      :
          :  -> integral neglect         0.1000000E-07      :
          :  -> SCF convergence          0.1000000E-05 Eh   :
          :  -> wf. convergence          0.1000000E-03 e    :
          :  Broyden damping             0.4000000          :
          ...................................................

 iter      E             dE          RMSdq      gap      omega  full diag
   1  -1291.2565477 -0.129126E+04  0.408E+00    8.37       0.0  T
   2  -1291.3390498 -0.825021E-01  0.241E+00    8.29       1.0  T
   3  -1291.3743390 -0.352892E-01  0.223E-01    8.03       1.0  T
   4  -1291.3797429 -0.540384E-02  0.474E-02    8.12       1.0  T
   5  -1291.3798869 -0.144044E-03  0.304E-02    8.11       1.0  T
   6  -1291.3799358 -0.488685E-04  0.389E-03    8.10       1.0  T
   7  -1291.3799376 -0.180302E-05  0.973E-04    8.10       3.7  T
   8  -1291.3799377 -0.137377E-06  0.458E-04    8.10       7.9  T
   9  -1291.3799377 -0.390635E-07  0.142E-04    8.10      25.6  T

   *** convergence criteria satisfied after 9 iterations ***

         #    Occupation            Energy/Eh            Energy/eV
      -------------------------------------------------------------
         1        2.0000           -0.6524500             -17.7541
       ...           ...                  ...                  ...
      1002        2.0000           -0.3587898              -9.7632
      1003        2.0000           -0.3584024              -9.7526
      1004        2.0000           -0.3569705              -9.7137
      1005        2.0000           -0.3568470              -9.7103
      1006        2.0000           -0.3565826              -9.7031
      1007        2.0000           -0.3556271              -9.6771
      1008        2.0000           -0.3553608              -9.6699 (HOMO)
      1009                         -0.0578626              -1.5745 (LUMO)
      1010                         -0.0496548              -1.3512
      1011                         -0.0391512              -1.0654
      1012                         -0.0351733              -0.9571
      1013                         -0.0293088              -0.7975
       ...                                ...                  ...
      1512                          0.4775666              12.9952
      -------------------------------------------------------------
                  HL-Gap            0.2974982 Eh            8.0953 eV
             Fermi-level           -0.2066117 Eh           -5.6222 eV

 SCC (total)                   0 d,  0 h,  0 min, 21.930 sec
 SCC setup                      ...        0 min,  0.120 sec (  0.546%)
 Dispersion                     ...        0 min,  0.117 sec (  0.531%)
 classical contributions        ...        0 min,  0.023 sec (  0.107%)
 integral evaluation            ...        0 min,  0.622 sec (  2.836%)
 iterations                     ...        0 min,  8.225 sec ( 37.507%)
 molecular gradient             ...        0 min, 12.750 sec ( 58.139%)
 printout                       ...        0 min,  0.073 sec (  0.334%)

         :::::::::::::::::::::::::::::::::::::::::::::::::::::
         ::                     SUMMARY                     ::
         :::::::::::::::::::::::::::::::::::::::::::::::::::::
         :: total energy           -1283.628704190943 Eh    ::
         :: total w/o Gsasa/hb     -1283.401477941087 Eh    ::
         :: gradient norm              0.106420975593 Eh/a0 ::
         :: HOMO-LUMO gap              8.095338974603 eV    ::
         ::.................................................::
         :: SCC energy             -1291.379937749143 Eh    ::
         :: -> isotropic ES            7.365964861787 Eh    ::
         :: -> anisotropic ES         -1.652706440853 Eh    ::
         :: -> anisotropic XC         -0.120372481203 Eh    ::
         :: -> dispersion             -0.788293064808 Eh    ::
         :: -> Gsolv                  -0.296467484545 Eh    ::
         ::    -> Gelec               -0.069241234690 Eh    ::
         ::    -> Gsasa                0.007741309944 Eh    ::
         ::    -> Ghb                 -0.236825002927 Eh    ::
         ::    -> Gshift               0.001857443127 Eh    ::
         :: repulsion energy           7.596794597131 Eh    ::
         :: add. restraining           0.000000000000 Eh    ::
         :: total charge               0.000000000000 e     ::
         :::::::::::::::::::::::::::::::::::::::::::::::::::::

           -------------------------------------------------
          |                Property Printout                |
           -------------------------------------------------

    * Orbital Energies and Occupations

         #    Occupation            Energy/Eh            Energy/eV
      -------------------------------------------------------------
         1        2.0000           -0.6524500             -17.7541
       ...           ...                  ...                  ...
       996        2.0000           -0.3628738              -9.8743
       997        2.0000           -0.3624824              -9.8636
       998        2.0000           -0.3618923              -9.8476
       999        2.0000           -0.3606432              -9.8136
      1000        2.0000           -0.3602442              -9.8027
      1001        2.0000           -0.3591130              -9.7720
      1002        2.0000           -0.3587898              -9.7632
      1003        2.0000           -0.3584024              -9.7526
      1004        2.0000           -0.3569705              -9.7137
      1005        2.0000           -0.3568470              -9.7103
      1006        2.0000           -0.3565826              -9.7031
      1007        2.0000           -0.3556271              -9.6771
      1008        2.0000           -0.3553608              -9.6699 (HOMO)
      1009                         -0.0578626              -1.5745 (LUMO)
      1010                         -0.0496548              -1.3512
      1011                         -0.0391512              -1.0654
      1012                         -0.0351733              -0.9571
      1013                         -0.0293088              -0.7975
      1014                         -0.0243590              -0.6628
      1015                         -0.0221363              -0.6024
      1016                         -0.0127025              -0.3457
      1017                         -0.0090372              -0.2459
      1018                         -0.0073913              -0.2011
      1019                         -0.0022893              -0.0623
       ...                                ...                  ...
      1512                          0.4775666              12.9952
      -------------------------------------------------------------
                  HL-Gap            0.2974982 Eh            8.0953 eV
             Fermi-level           -0.2066117 Eh           -5.6222 eV

     #   Z          covCN         q      C6AA      α(0)
     1   8 o        1.608    -0.672    26.979     7.010
     2   1 h        0.803     0.365     0.555     1.170
     3   1 h        0.806     0.319     0.666     1.281
     4   8 o        1.608    -0.693    27.526     7.081
     5   1 h        0.804     0.324     0.654     1.270
     6   1 h        0.804     0.343     0.606     1.222
     7   8 o        1.607    -0.703    27.786     7.114
     8   1 h        0.803     0.358     0.570     1.186
     9   1 h        0.803     0.359     0.567     1.183
    10   8 o        1.609    -0.686    27.336     7.057
    11   1 h        0.805     0.337     0.621     1.237
    12   1 h        0.804     0.347     0.595     1.212
    13   8 o        1.606    -0.694    27.547     7.084
    14   1 h        0.803     0.353     0.581     1.198
    15   1 h        0.805     0.346     0.598     1.215
    16   8 o        1.606    -0.692    27.513     7.079
    17   1 h        0.803     0.326     0.649     1.265
    18   1 h        0.803     0.358     0.570     1.186
    19   8 o        1.609    -0.685    27.311     7.053
    20   1 h        0.804     0.349     0.590     1.207
    21   1 h        0.804     0.342     0.608     1.224
    22   8 o        1.609    -0.670    26.919     7.003
    23   1 h        0.805     0.344     0.602     1.219
    24   1 h        0.804     0.354     0.580     1.196
    25   8 o        1.608    -0.687    27.373     7.061
    26   1 h        0.804     0.355     0.576     1.193
    27   1 h        0.804     0.346     0.597     1.214
    28   8 o        1.607    -0.700    27.717     7.105
    29   1 h        0.803     0.356     0.574     1.191
    30   1 h        0.805     0.342     0.607     1.223
    31   8 o        1.607    -0.683    27.255     7.046
    32   1 h        0.805     0.346     0.598     1.215
    33   1 h        0.802     0.361     0.563     1.179
    34   8 o        1.607    -0.678    27.130     7.030
    35   1 h        0.802     0.367     0.551     1.166
    36   1 h        0.805     0.324     0.653     1.269
    37   8 o        1.606    -0.717    28.164     7.163
    38   1 h        0.802     0.361     0.564     1.180
    39   1 h        0.805     0.324     0.654     1.270
    40   8 o        1.609    -0.680    27.184     7.037
    41   1 h        0.805     0.345     0.600     1.217
    42   1 h        0.804     0.344     0.602     1.219
    43   8 o        1.606    -0.688    27.384     7.063
    44   1 h        0.804     0.338     0.618     1.234
    45   1 h        0.803     0.351     0.587     1.203
    46   8 o        1.608    -0.658    26.630     6.965
    47   1 h        0.806     0.304     0.709     1.322
    48   1 h        0.802     0.369     0.545     1.160
    49   8 o        1.609    -0.684    27.292     7.051
    50   1 h        0.804     0.328     0.641     1.258
    51   1 h        0.804     0.341     0.611     1.227
    52   8 o        1.607    -0.671    26.951     7.007
    53   1 h        0.802     0.355     0.578     1.194
    54   1 h        0.805     0.333     0.631     1.247
    55   8 o        1.608    -0.680    27.187     7.037
    56   1 h        0.804     0.356     0.575     1.191
    57   1 h        0.805     0.343     0.604     1.221
    58   8 o        1.608    -0.672    26.986     7.011
    59   1 h        0.805     0.341     0.609     1.226
    60   1 h        0.803     0.357     0.573     1.189
    61   8 o        1.608    -0.694    27.544     7.083
    62   1 h        0.803     0.355     0.576     1.193
    63   1 h        0.804     0.355     0.577     1.193
    64   8 o        1.606    -0.697    27.621     7.093
    65   1 h        0.804     0.326     0.648     1.265
    66   1 h        0.803     0.360     0.565     1.181
    67   8 o        1.607    -0.700    27.698     7.103
    68   1 h        0.804     0.351     0.585     1.201
    69   1 h        0.804     0.348     0.593     1.210
    70   8 o        1.609    -0.667    26.844     6.993
    71   1 h        0.804     0.355     0.576     1.192
    72   1 h        0.805     0.338     0.618     1.235
    73   8 o        1.605    -0.707    27.895     7.128
    74   1 h        0.803     0.345     0.600     1.217
    75   1 h        0.804     0.342     0.608     1.225
    76   8 o        1.609    -0.692    27.502     7.078
    77   1 h        0.804     0.347     0.594     1.211
    78   1 h        0.804     0.341     0.609     1.225
    79   8 o        1.607    -0.691    27.476     7.074
    80   1 h        0.804     0.335     0.625     1.241
    81   1 h        0.803     0.368     0.549     1.164
    82   8 o        1.604    -0.717    28.181     7.165
    83   1 h        0.803     0.365     0.554     1.169
    84   1 h        0.803     0.351     0.586     1.203
    85   8 o        1.607    -0.694    27.557     7.085
    86   1 h        0.804     0.343     0.605     1.222
    87   1 h        0.804     0.346     0.597     1.213
    88   8 o        1.607    -0.691    27.479     7.075
    89   1 h        0.803     0.345     0.599     1.216
    90   1 h        0.804     0.349     0.591     1.208
    91   8 o        1.608    -0.693    27.521     7.080
    92   1 h        0.804     0.335     0.624     1.240
    93   1 h        0.804     0.338     0.617     1.234
    94   8 o        1.607    -0.697    27.622     7.093
    95   1 h        0.803     0.346     0.598     1.215
    96   1 h        0.804     0.346     0.598     1.215
    97   8 o        1.607    -0.672    26.967     7.009
    98   1 h        0.806     0.308     0.697     1.312
    99   1 h        0.802     0.369     0.547     1.161
   100   8 o        1.607    -0.689    27.430     7.069
   101   1 h        0.805     0.346     0.597     1.214
   102   1 h        0.803     0.362     0.562     1.178
   103   8 o        1.608    -0.679    27.170     7.035
   104   1 h        0.804     0.366     0.553     1.168
   105   1 h        0.804     0.347     0.596     1.212
   106   8 o        1.606    -0.689    27.421     7.067
   107   1 h        0.803     0.331     0.635     1.252
   108   1 h        0.804     0.355     0.577     1.193
   109   8 o        1.605    -0.703    27.780     7.113
   110   1 h        0.802     0.351     0.585     1.202
   111   1 h        0.804     0.340     0.612     1.229
   112   8 o        1.607    -0.698    27.663     7.098
   113   1 h        0.803     0.340     0.611     1.228
   114   1 h        0.804     0.339     0.615     1.232
   115   8 o        1.606    -0.675    27.058     7.020
   116   1 h        0.802     0.342     0.608     1.225
   117   1 h        0.804     0.352     0.583     1.200
   118   8 o        1.608    -0.685    27.326     7.055
   119   1 h        0.804     0.344     0.603     1.220
   120   1 h        0.804     0.351     0.585     1.201
   121   8 o        1.607    -0.667    26.858     6.995
   122   1 h        0.806     0.308     0.698     1.313
   123   1 h        0.802     0.355     0.576     1.193
   124   8 o        1.606    -0.697    27.631     7.094
   125   1 h        0.803     0.346     0.597     1.214
   126   1 h        0.803     0.362     0.560     1.176
   127   8 o        1.606    -0.673    27.016     7.015
   128   1 h        0.805     0.318     0.669     1.284
   129   1 h        0.802     0.350     0.588     1.204
   130   8 o        1.609    -0.683    27.260     7.047
   131   1 h        0.804     0.342     0.607     1.224
   132   1 h        0.805     0.336     0.623     1.240
   133   8 o        1.607    -0.655    26.537     6.953
   134   1 h        0.805     0.330     0.636     1.253
   135   1 h        0.803     0.339     0.615     1.232
   136   8 o        1.608    -0.681    27.203     7.039
   137   1 h        0.804     0.348     0.593     1.210
   138   1 h        0.803     0.350     0.589     1.206
   139   8 o        1.607    -0.673    27.010     7.014
   140   1 h        0.803     0.359     0.568     1.184
   141   1 h        0.804     0.326     0.648     1.264
   142   8 o        1.607    -0.688    27.403     7.065
   143   1 h        0.804     0.332     0.633     1.250
   144   1 h        0.803     0.359     0.568     1.184
   145   8 o        1.606    -0.692    27.495     7.077
   146   1 h        0.803     0.341     0.611     1.228
   147   1 h        0.803     0.340     0.611     1.228
   148   8 o        1.609    -0.681    27.204     7.039
   149   1 h        0.805     0.327     0.646     1.262
   150   1 h        0.804     0.358     0.571     1.187
   151   8 o        1.608    -0.679    27.166     7.035
   152   1 h        0.804     0.335     0.625     1.242
   153   1 h        0.804     0.355     0.577     1.193
   154   8 o        1.608    -0.701    27.750     7.110
   155   1 h        0.804     0.353     0.581     1.197
   156   1 h        0.804     0.348     0.594     1.211
   157   8 o        1.606    -0.709    27.964     7.137
   158   1 h        0.803     0.343     0.605     1.222
   159   1 h        0.803     0.330     0.639     1.256
   160   8 o        1.607    -0.694    27.547     7.084
   161   1 h        0.803     0.329     0.639     1.256
   162   1 h        0.804     0.354     0.580     1.196
   163   8 o        1.607    -0.690    27.455     7.072
   164   1 h        0.802     0.357     0.572     1.188
   165   1 h        0.805     0.319     0.665     1.281
   166   8 o        1.608    -0.692    27.505     7.078
   167   1 h        0.803     0.358     0.571     1.187
   168   1 h        0.805     0.334     0.626     1.243
   169   8 o        1.606    -0.695    27.581     7.088
   170   1 h        0.804     0.348     0.594     1.210
   171   1 h        0.803     0.348     0.593     1.210
   172   8 o        1.608    -0.695    27.589     7.089
   173   1 h        0.804     0.354     0.578     1.195
   174   1 h        0.804     0.334     0.627     1.244
   175   8 o        1.607    -0.682    27.232     7.043
   176   1 h        0.804     0.337     0.619     1.236
   177   1 h        0.803     0.334     0.627     1.244
   178   8 o        1.606    -0.674    27.030     7.017
   179   1 h        0.802     0.344     0.602     1.219
   180   1 h        0.804     0.325     0.651     1.268
   181   8 o        1.606    -0.706    27.867     7.125
   182   1 h        0.803     0.355     0.577     1.193
   183   1 h        0.803     0.355     0.578     1.194
   184   8 o        1.608    -0.667    26.859     6.995
   185   1 h        0.804     0.328     0.644     1.260
   186   1 h        0.804     0.333     0.630     1.247
   187   8 o        1.606    -0.685    27.313     7.053
   188   1 h        0.802     0.332     0.631     1.248
   189   1 h        0.804     0.331     0.635     1.252
   190   8 o        1.608    -0.682    27.249     7.045
   191   1 h        0.803     0.337     0.619     1.235
   192   1 h        0.804     0.323     0.655     1.271
   193   8 o        1.608    -0.658    26.623     6.964
   194   1 h        0.803     0.348     0.593     1.209
   195   1 h        0.805     0.319     0.667     1.283
   196   8 o        1.605    -0.706    27.869     7.125
   197   1 h        0.802     0.370     0.544     1.159
   198   1 h        0.804     0.352     0.584     1.201
   199   8 o        1.607    -0.642    26.214     6.910
   200   1 h        0.805     0.322     0.657     1.273
   201   1 h        0.802     0.334     0.628     1.245
   202   8 o        1.608    -0.689    27.419     7.067
   203   1 h        0.804     0.336     0.623     1.240
   204   1 h        0.804     0.369     0.545     1.160
   205   8 o        1.610    -0.699    27.671     7.100
   206   1 h        0.803     0.337     0.619     1.235
   207   1 h        0.803     0.355     0.576     1.193
   208   8 o        1.608    -0.682    27.249     7.045
   209   1 h        0.804     0.360     0.565     1.181
   210   1 h        0.804     0.326     0.647     1.263
   211   8 o        1.607    -0.698    27.651     7.097
   212   1 h        0.802     0.369     0.546     1.161
   213   1 h        0.805     0.341     0.609     1.225
   214   8 o        1.607    -0.698    27.666     7.099
   215   1 h        0.803     0.353     0.582     1.199
   216   1 h        0.804     0.339     0.615     1.232
   217   8 o        1.610    -0.664    26.764     6.982
   218   1 h        0.805     0.344     0.603     1.219
   219   1 h        0.804     0.324     0.653     1.269
   220   8 o        1.607    -0.675    27.061     7.021
   221   1 h        0.805     0.352     0.583     1.200
   222   1 h        0.802     0.339     0.614     1.231
   223   8 o        1.607    -0.670    26.921     7.003
   224   1 h        0.804     0.351     0.587     1.203
   225   1 h        0.803     0.334     0.628     1.245
   226   8 o        1.607    -0.698    27.670     7.099
   227   1 h        0.804     0.358     0.569     1.185
   228   1 h        0.803     0.350     0.588     1.205
   229   8 o        1.609    -0.669    26.893     6.999
   230   1 h        0.805     0.319     0.666     1.282
   231   1 h        0.805     0.337     0.618     1.235
   232   8 o        1.608    -0.674    27.040     7.018
   233   1 h        0.803     0.353     0.582     1.199
   234   1 h        0.805     0.336     0.621     1.238
   235   8 o        1.611    -0.690    27.455     7.072
   236   1 h        0.804     0.343     0.606     1.222
   237   1 h        0.805     0.341     0.610     1.227
   238   8 o        1.607    -0.690    27.448     7.071
   239   1 h        0.805     0.339     0.615     1.231
   240   1 h        0.803     0.333     0.631     1.248
   241   8 o        1.610    -0.651    26.445     6.941
   242   1 h        0.805     0.338     0.617     1.234
   243   1 h        0.805     0.330     0.637     1.254
   244   8 o        1.606    -0.685    27.315     7.054
   245   1 h        0.803     0.329     0.641     1.257
   246   1 h        0.803     0.360     0.566     1.181
   247   8 o        1.608    -0.683    27.266     7.047
   248   1 h        0.804     0.336     0.622     1.239
   249   1 h        0.804     0.330     0.639     1.255
   250   8 o        1.608    -0.667    26.853     6.994
   251   1 h        0.803     0.350     0.589     1.206
   252   1 h        0.805     0.315     0.676     1.292
   253   8 o        1.607    -0.685    27.313     7.054
   254   1 h        0.804     0.357     0.572     1.188
   255   1 h        0.804     0.332     0.634     1.250
   256   8 o        1.610    -0.662    26.715     6.976
   257   1 h        0.805     0.308     0.698     1.312
   258   1 h        0.804     0.355     0.578     1.194
   259   8 o        1.605    -0.697    27.631     7.094
   260   1 h        0.802     0.331     0.635     1.252
   261   1 h        0.803     0.349     0.590     1.207
   262   8 o        1.606    -0.666    26.812     6.988
   263   1 h        0.802     0.344     0.602     1.219
   264   1 h        0.805     0.330     0.637     1.254
   265   8 o        1.609    -0.688    27.383     7.063
   266   1 h        0.804     0.340     0.613     1.230
   267   1 h        0.804     0.337     0.621     1.238
   268   8 o        1.604    -0.670    26.927     7.003
   269   1 h        0.806     0.311     0.690     1.304
   270   1 h        0.802     0.360     0.566     1.182
   271   8 o        1.607    -0.669    26.909     7.001
   272   1 h        0.803     0.335     0.625     1.242
   273   1 h        0.805     0.333     0.629     1.246
   274   8 o        1.609    -0.692    27.509     7.079
   275   1 h        0.804     0.316     0.674     1.290
   276   1 h        0.804     0.348     0.592     1.209
   277   8 o        1.606    -0.691    27.477     7.075
   278   1 h        0.803     0.351     0.587     1.204
   279   1 h        0.803     0.342     0.607     1.224
   280   8 o        1.607    -0.670    26.927     7.003
   281   1 h        0.803     0.327     0.646     1.262
   282   1 h        0.804     0.338     0.618     1.235
   283   8 o        1.607    -0.680    27.173     7.035
   284   1 h        0.803     0.322     0.660     1.276
   285   1 h        0.804     0.351     0.586     1.203
   286   8 o        1.609    -0.661    26.703     6.974
   287   1 h        0.805     0.338     0.618     1.234
   288   1 h        0.803     0.353     0.580     1.197
   289   8 o        1.609    -0.668    26.862     6.995
   290   1 h        0.805     0.340     0.611     1.228
   291   1 h        0.804     0.340     0.612     1.228
   292   8 o        1.608    -0.685    27.319     7.054
   293   1 h        0.805     0.321     0.661     1.277
   294   1 h        0.803     0.354     0.578     1.195
   295   8 o        1.604    -0.698    27.672     7.100
   296   1 h        0.802     0.329     0.640     1.257
   297   1 h        0.803     0.363     0.560     1.175
   298   8 o        1.606    -0.695    27.588     7.089
   299   1 h        0.803     0.346     0.598     1.215
   300   1 h        0.803     0.344     0.604     1.220
   301   8 o        1.603    -0.696    27.597     7.090
   302   1 h        0.802     0.352     0.583     1.200
   303   1 h        0.802     0.337     0.621     1.238
   304   8 o        1.607    -0.702    27.773     7.113
   305   1 h        0.803     0.345     0.601     1.218
   306   1 h        0.804     0.327     0.646     1.263
   307   8 o        1.607    -0.697    27.634     7.095
   308   1 h        0.803     0.357     0.572     1.188
   309   1 h        0.804     0.347     0.596     1.212
   310   8 o        1.606    -0.685    27.311     7.053
   311   1 h        0.802     0.362     0.561     1.177
   312   1 h        0.804     0.342     0.608     1.225
   313   8 o        1.607    -0.670    26.939     7.005
   314   1 h        0.804     0.324     0.654     1.271
   315   1 h        0.802     0.335     0.625     1.242
   316   8 o        1.608    -0.678    27.132     7.030
   317   1 h        0.804     0.335     0.626     1.243
   318   1 h        0.804     0.338     0.617     1.234
   319   8 o        1.606    -0.690    27.455     7.072
   320   1 h        0.803     0.329     0.641     1.258
   321   1 h        0.803     0.360     0.566     1.182
   322   8 o        1.608    -0.690    27.435     7.069
   323   1 h        0.804     0.337     0.619     1.236
   324   1 h        0.804     0.340     0.613     1.230
   325   8 o        1.606    -0.669    26.896     6.999
   326   1 h        0.805     0.331     0.635     1.252
   327   1 h        0.801     0.344     0.603     1.220
   328   8 o        1.607    -0.684    27.277     7.049
   329   1 h        0.804     0.345     0.601     1.217
   330   1 h        0.803     0.334     0.628     1.245
   331   8 o        1.605    -0.696    27.614     7.092
   332   1 h        0.803     0.321     0.660     1.276
   333   1 h        0.802     0.361     0.563     1.178
   334   8 o        1.608    -0.672    26.966     7.009
   335   1 h        0.804     0.331     0.635     1.252
   336   1 h        0.803     0.363     0.558     1.174
   337   8 o        1.608    -0.682    27.247     7.045
   338   1 h        0.804     0.351     0.586     1.203
   339   1 h        0.804     0.320     0.665     1.281
   340   8 o        1.609    -0.677    27.116     7.028
   341   1 h        0.804     0.339     0.615     1.232
   342   1 h        0.805     0.341     0.609     1.226
   343   8 o        1.610    -0.685    27.304     7.052
   344   1 h        0.804     0.338     0.616     1.233
   345   1 h        0.805     0.356     0.574     1.190
   346   8 o        1.607    -0.667    26.848     6.993
   347   1 h        0.806     0.313     0.683     1.299
   348   1 h        0.802     0.359     0.567     1.183
   349   8 o        1.608    -0.664    26.773     6.983
   350   1 h        0.804     0.347     0.595     1.212
   351   1 h        0.803     0.327     0.646     1.263
   352   8 o        1.608    -0.683    27.263     7.047
   353   1 h        0.804     0.333     0.629     1.246
   354   1 h        0.804     0.329     0.640     1.256
   355   8 o        1.607    -0.666    26.833     6.991
   356   1 h        0.805     0.321     0.661     1.278
   357   1 h        0.803     0.339     0.615     1.232
   358   8 o        1.606    -0.707    27.897     7.128
   359   1 h        0.802     0.350     0.588     1.204
   360   1 h        0.804     0.345     0.599     1.216
   361   8 o        1.609    -0.642    26.210     6.910
   362   1 h        0.804     0.334     0.628     1.244
   363   1 h        0.805     0.312     0.687     1.302
   364   8 o        1.607    -0.658    26.617     6.963
   365   1 h        0.802     0.362     0.562     1.177
   366   1 h        0.805     0.316     0.673     1.289
   367   8 o        1.607    -0.693    27.522     7.080
   368   1 h        0.802     0.359     0.568     1.184
   369   1 h        0.805     0.324     0.654     1.270
   370   8 o        1.607    -0.690    27.435     7.069
   371   1 h        0.803     0.353     0.581     1.197
   372   1 h        0.803     0.335     0.625     1.242
   373   8 o        1.609    -0.674    27.029     7.017
   374   1 h        0.804     0.325     0.650     1.266
   375   1 h        0.805     0.340     0.612     1.229
   376   8 o        1.610    -0.670    26.931     7.004
   377   1 h        0.804     0.340     0.612     1.229
   378   1 h        0.805     0.344     0.602     1.218
   379   8 o        1.609    -0.649    26.397     6.934
   380   1 h        0.805     0.326     0.646     1.263
   381   1 h        0.804     0.323     0.656     1.273
   382   8 o        1.608    -0.665    26.807     6.988
   383   1 h        0.803     0.339     0.614     1.231
   384   1 h        0.805     0.325     0.651     1.267
   385   8 o        1.609    -0.675    27.054     7.020
   386   1 h        0.805     0.332     0.633     1.250
   387   1 h        0.804     0.346     0.597     1.214
   388   8 o        1.607    -0.651    26.441     6.940
   389   1 h        0.806     0.309     0.695     1.310
   390   1 h        0.802     0.351     0.585     1.202
   391   8 o        1.610    -0.653    26.493     6.947
   392   1 h        0.805     0.311     0.688     1.303
   393   1 h        0.804     0.359     0.568     1.183
   394   8 o        1.607    -0.689    27.414     7.067
   395   1 h        0.803     0.359     0.567     1.183
   396   1 h        0.804     0.329     0.640     1.257
   397   8 o        1.607    -0.693    27.528     7.081
   398   1 h        0.803     0.343     0.606     1.222
   399   1 h        0.804     0.363     0.560     1.175
   400   8 o        1.608    -0.697    27.640     7.096
   401   1 h        0.804     0.334     0.627     1.244
   402   1 h        0.804     0.348     0.594     1.210
   403   8 o        1.607    -0.684    27.288     7.050
   404   1 h        0.803     0.330     0.639     1.255
   405   1 h        0.804     0.351     0.586     1.203
   406   8 o        1.609    -0.679    27.151     7.033
   407   1 h        0.804     0.349     0.590     1.207
   408   1 h        0.805     0.321     0.662     1.278
   409   8 o        1.605    -0.680    27.174     7.035
   410   1 h        0.804     0.339     0.614     1.231
   411   1 h        0.802     0.340     0.613     1.230
   412   8 o        1.608    -0.665    26.808     6.988
   413   1 h        0.805     0.333     0.629     1.245
   414   1 h        0.803     0.354     0.579     1.195
   415   8 o        1.605    -0.698    27.656     7.098
   416   1 h        0.801     0.363     0.559     1.175
   417   1 h        0.805     0.324     0.654     1.270
   418   8 o        1.608    -0.667    26.852     6.994
   419   1 h        0.804     0.335     0.626     1.243
   420   1 h        0.804     0.338     0.617     1.233
   421   8 o        1.608    -0.678    27.134     7.030
   422   1 h        0.804     0.342     0.608     1.225
   423   1 h        0.804     0.332     0.633     1.249
   424   8 o        1.610    -0.651    26.445     6.941
   425   1 h        0.805     0.319     0.667     1.282
   426   1 h        0.805     0.341     0.611     1.228
   427   8 o        1.607    -0.697    27.637     7.095
   428   1 h        0.803     0.350     0.587     1.204
   429   1 h        0.804     0.356     0.575     1.192
   430   8 o        1.608    -0.693    27.515     7.080
   431   1 h        0.804     0.352     0.584     1.201
   432   1 h        0.804     0.344     0.603     1.219
   433   8 o        1.607    -0.691    27.468     7.073
   434   1 h        0.803     0.343     0.604     1.221
   435   1 h        0.804     0.327     0.646     1.262
   436   8 o        1.609    -0.667    26.838     6.992
   437   1 h        0.805     0.356     0.575     1.191
   438   1 h        0.805     0.318     0.670     1.286
   439   8 o        1.606    -0.693    27.517     7.080
   440   1 h        0.802     0.362     0.562     1.177
   441   1 h        0.804     0.326     0.649     1.265
   442   8 o        1.608    -0.669    26.902     7.000
   443   1 h        0.803     0.345     0.601     1.218
   444   1 h        0.805     0.327     0.646     1.262
   445   8 o        1.609    -0.670    26.920     7.003
   446   1 h        0.804     0.349     0.591     1.208
   447   1 h        0.805     0.326     0.649     1.265
   448   8 o        1.608    -0.671    26.963     7.008
   449   1 h        0.803     0.345     0.601     1.218
   450   1 h        0.805     0.333     0.631     1.248
   451   8 o        1.607    -0.672    26.980     7.010
   452   1 h        0.803     0.336     0.623     1.240
   453   1 h        0.805     0.345     0.599     1.216
   454   8 o        1.608    -0.673    27.006     7.014
   455   1 h        0.804     0.361     0.563     1.179
   456   1 h        0.804     0.335     0.626     1.242
   457   8 o        1.609    -0.668    26.867     6.996
   458   1 h        0.806     0.304     0.708     1.322
   459   1 h        0.804     0.360     0.566     1.182
   460   8 o        1.606    -0.688    27.395     7.064
   461   1 h        0.802     0.361     0.563     1.178
   462   1 h        0.804     0.323     0.656     1.272
   463   8 o        1.610    -0.642    26.218     6.911
   464   1 h        0.806     0.310     0.692     1.306
   465   1 h        0.803     0.342     0.607     1.224
   466   8 o        1.607    -0.673    26.994     7.012
   467   1 h        0.802     0.347     0.595     1.211
   468   1 h        0.804     0.347     0.596     1.212
   469   8 o        1.608    -0.688    27.398     7.064
   470   1 h        0.804     0.336     0.623     1.240
   471   1 h        0.804     0.347     0.595     1.212
   472   8 o        1.608    -0.659    26.632     6.965
   473   1 h        0.803     0.341     0.611     1.228
   474   1 h        0.805     0.325     0.649     1.266
   475   8 o        1.608    -0.666    26.811     6.988
   476   1 h        0.804     0.347     0.595     1.211
   477   1 h        0.805     0.334     0.628     1.245
   478   8 o        1.604    -0.681    27.209     7.040
   479   1 h        0.804     0.333     0.629     1.246
   480   1 h        0.801     0.339     0.616     1.233
   481   8 o        1.606    -0.668    26.874     6.997
   482   1 h        0.803     0.329     0.641     1.258
   483   1 h        0.803     0.348     0.593     1.210
   484   8 o        1.607    -0.678    27.124     7.029
   485   1 h        0.802     0.360     0.567     1.183
   486   1 h        0.806     0.305     0.707     1.321
   487   8 o        1.607    -0.707    27.911     7.130
   488   1 h        0.804     0.329     0.639     1.256
   489   1 h        0.802     0.363     0.559     1.175
   490   8 o        1.607    -0.685    27.309     7.053
   491   1 h        0.803     0.362     0.560     1.176
   492   1 h        0.803     0.336     0.621     1.238
   493   8 o        1.606    -0.676    27.081     7.023
   494   1 h        0.803     0.328     0.643     1.259
   495   1 h        0.803     0.354     0.579     1.196
   496   8 o        1.606    -0.686    27.348     7.058
   497   1 h        0.802     0.371     0.542     1.156
   498   1 h        0.805     0.327     0.644     1.260
   499   8 o        1.608    -0.687    27.368     7.061
   500   1 h        0.804     0.343     0.604     1.221
   501   1 h        0.804     0.326     0.648     1.264
   502   8 o        1.610    -0.661    26.694     6.973
   503   1 h        0.805     0.340     0.613     1.230
   504   1 h        0.805     0.336     0.622     1.239
   505   8 o        1.608    -0.696    27.617     7.093
   506   1 h        0.804     0.333     0.629     1.246
   507   1 h        0.804     0.346     0.599     1.216
   508   8 o        1.611    -0.691    27.466     7.073
   509   1 h        0.804     0.338     0.618     1.235
   510   1 h        0.804     0.348     0.593     1.209
   511   8 o        1.607    -0.681    27.207     7.040
   512   1 h        0.803     0.355     0.578     1.194
   513   1 h        0.804     0.332     0.632     1.249
   514   8 o        1.608    -0.686    27.339     7.057
   515   1 h        0.804     0.336     0.621     1.238
   516   1 h        0.804     0.325     0.650     1.266
   517   8 o        1.606    -0.691    27.487     7.076
   518   1 h        0.803     0.357     0.573     1.189
   519   1 h        0.803     0.325     0.650     1.267
   520   8 o        1.608    -0.670    26.935     7.004
   521   1 h        0.805     0.331     0.635     1.252
   522   1 h        0.803     0.345     0.600     1.217
   523   8 o        1.608    -0.687    27.360     7.060
   524   1 h        0.804     0.336     0.621     1.238
   525   1 h        0.804     0.337     0.620     1.237
   526   8 o        1.609    -0.661    26.692     6.973
   527   1 h        0.805     0.336     0.622     1.239
   528   1 h        0.804     0.335     0.624     1.241
   529   8 o        1.605    -0.700    27.715     7.105
   530   1 h        0.803     0.353     0.582     1.198
   531   1 h        0.802     0.357     0.573     1.190
   532   8 o        1.608    -0.687    27.364     7.060
   533   1 h        0.805     0.326     0.647     1.264
   534   1 h        0.803     0.341     0.609     1.226
   535   8 o        1.609    -0.669    26.906     7.001
   536   1 h        0.804     0.346     0.598     1.214
   537   1 h        0.805     0.335     0.625     1.241
   538   8 o        1.608    -0.691    27.465     7.073
   539   1 h        0.805     0.330     0.638     1.254
   540   1 h        0.804     0.357     0.573     1.189
   541   8 o        1.607    -0.651    26.433     6.939
   542   1 h        0.804     0.325     0.650     1.266
   543   1 h        0.803     0.331     0.634     1.251
   544   8 o        1.608    -0.703    27.795     7.115
   545   1 h        0.804     0.322     0.659     1.275
   546   1 h        0.804     0.360     0.566     1.182
   547   8 o        1.603    -0.678    27.125     7.029
   548   1 h        0.802     0.355     0.577     1.193
   549   1 h        0.806     0.309     0.694     1.309
   550   8 o        1.608    -0.677    27.106     7.027
   551   1 h        0.805     0.322     0.659     1.275
   552   1 h        0.803     0.348     0.593     1.210
   553   8 o        1.608    -0.664    26.771     6.983
   554   1 h        0.805     0.319     0.666     1.282
   555   1 h        0.803     0.369     0.546     1.161
   556   8 o        1.607    -0.686    27.332     7.056
   557   1 h        0.806     0.312     0.685     1.300
   558   1 h        0.802     0.352     0.585     1.202
   559   8 o        1.607    -0.677    27.095     7.025
   560   1 h        0.802     0.359     0.568     1.185
   561   1 h        0.805     0.308     0.696     1.311
   562   8 o        1.608    -0.682    27.238     7.044
   563   1 h        0.803     0.335     0.624     1.241
   564   1 h        0.804     0.349     0.590     1.206
   565   8 o        1.610    -0.631    25.930     6.873
   566   1 h        0.805     0.320     0.663     1.279
   567   1 h        0.805     0.333     0.630     1.247
   568   8 o        1.607    -0.677    27.115     7.028
   569   1 h        0.805     0.315     0.679     1.294
   570   1 h        0.802     0.362     0.561     1.177
   571   8 o        1.614    -0.703    27.789     7.115
   572   1 h        0.803     0.341     0.610     1.227
   573   1 h        0.802     0.363     0.560     1.176
   574   8 o        1.606    -0.683    27.261     7.047
   575   1 h        0.806     0.309     0.695     1.310
   576   1 h        0.801     0.359     0.568     1.184
   577   8 o        1.605    -0.715    28.111     7.156
   578   1 h        0.802     0.367     0.551     1.166
   579   1 h        0.803     0.345     0.600     1.217
   580   8 o        1.609    -0.680    27.174     7.036
   581   1 h        0.804     0.344     0.602     1.219
   582   1 h        0.804     0.335     0.623     1.240
   583   8 o        1.606    -0.695    27.573     7.087
   584   1 h        0.803     0.349     0.592     1.208
   585   1 h        0.803     0.321     0.662     1.279
   586   8 o        1.608    -0.676    27.070     7.022
   587   1 h        0.806     0.311     0.689     1.304
   588   1 h        0.802     0.354     0.580     1.197
   589   8 o        1.608    -0.678    27.131     7.030
   590   1 h        0.804     0.341     0.609     1.226
   591   1 h        0.804     0.329     0.639     1.256
   592   8 o        1.610    -0.659    26.635     6.966
   593   1 h        0.805     0.328     0.643     1.260
   594   1 h        0.805     0.352     0.583     1.199
   595   8 o        1.606    -0.705    27.838     7.121
   596   1 h        0.804     0.329     0.641     1.257
   597   1 h        0.803     0.367     0.550     1.165
   598   8 o        1.608    -0.677    27.113     7.028
   599   1 h        0.804     0.321     0.661     1.277
   600   1 h        0.804     0.347     0.595     1.212
   601   8 o        1.606    -0.703    27.793     7.115
   602   1 h        0.803     0.334     0.628     1.245
   603   1 h        0.803     0.357     0.572     1.188
   604   8 o        1.606    -0.677    27.105     7.026
   605   1 h        0.802     0.333     0.631     1.248
   606   1 h        0.804     0.342     0.607     1.224
   607   8 o        1.606    -0.689    27.424     7.068
   608   1 h        0.802     0.335     0.626     1.243
   609   1 h        0.803     0.342     0.609     1.226
   610   8 o        1.608    -0.687    27.366     7.060
   611   1 h        0.803     0.366     0.552     1.167
   612   1 h        0.805     0.331     0.634     1.251
   613   8 o        1.609    -0.659    26.636     6.966
   614   1 h        0.803     0.338     0.618     1.235
   615   1 h        0.805     0.331     0.634     1.251
   616   8 o        1.610    -0.666    26.824     6.990
   617   1 h        0.805     0.343     0.605     1.221
   618   1 h        0.805     0.331     0.635     1.252
   619   8 o        1.606    -0.693    27.516     7.080
   620   1 h        0.804     0.354     0.579     1.196
   621   1 h        0.803     0.347     0.596     1.213
   622   8 o        1.608    -0.675    27.056     7.020
   623   1 h        0.803     0.357     0.572     1.188
   624   1 h        0.805     0.333     0.630     1.247
   625   8 o        1.607    -0.657    26.604     6.961
   626   1 h        0.806     0.314     0.681     1.296
   627   1 h        0.802     0.362     0.560     1.176
   628   8 o        1.608    -0.679    27.169     7.035
   629   1 h        0.803     0.372     0.540     1.155
   630   1 h        0.805     0.328     0.643     1.260
   631   8 o        1.608    -0.678    27.122     7.029
   632   1 h        0.803     0.357     0.573     1.189
   633   1 h        0.804     0.328     0.642     1.259
   634   8 o        1.609    -0.685    27.320     7.054
   635   1 h        0.803     0.338     0.618     1.235
   636   1 h        0.804     0.342     0.607     1.224
   637   8 o        1.607    -0.689    27.412     7.066
   638   1 h        0.804     0.335     0.625     1.242
   639   1 h        0.804     0.328     0.643     1.260
   640   8 o        1.609    -0.670    26.934     7.004
   641   1 h        0.803     0.363     0.559     1.174
   642   1 h        0.806     0.308     0.696     1.310
   643   8 o        1.608    -0.688    27.387     7.063
   644   1 h        0.803     0.361     0.563     1.178
   645   1 h        0.805     0.313     0.684     1.299
   646   8 o        1.606    -0.715    28.124     7.157
   647   1 h        0.803     0.357     0.573     1.189
   648   1 h        0.804     0.328     0.643     1.260
   649   8 o        1.608    -0.682    27.239     7.044
   650   1 h        0.805     0.326     0.647     1.264
   651   1 h        0.803     0.338     0.617     1.234
   652   8 o        1.606    -0.697    27.628     7.094
   653   1 h        0.803     0.359     0.568     1.184
   654   1 h        0.802     0.332     0.633     1.250
   655   8 o        1.608    -0.683    27.270     7.048
   656   1 h        0.803     0.352     0.584     1.201
   657   1 h        0.805     0.318     0.669     1.285
   658   8 o        1.609    -0.662    26.731     6.978
   659   1 h        0.805     0.315     0.679     1.294
   660   1 h        0.804     0.358     0.570     1.186
   661   8 o        1.608    -0.680    27.179     7.036
   662   1 h        0.805     0.328     0.643     1.260
   663   1 h        0.803     0.343     0.606     1.222
   664   8 o        1.607    -0.691    27.468     7.074
   665   1 h        0.804     0.342     0.607     1.223
   666   1 h        0.803     0.339     0.614     1.231
   667   8 o        1.609    -0.683    27.260     7.047
   668   1 h        0.803     0.350     0.588     1.204
   669   1 h        0.805     0.328     0.642     1.258
   670   8 o        1.607    -0.680    27.190     7.038
   671   1 h        0.803     0.339     0.614     1.231
   672   1 h        0.804     0.333     0.630     1.247
   673   8 o        1.609    -0.669    26.895     6.999
   674   1 h        0.805     0.321     0.661     1.277
   675   1 h        0.804     0.345     0.600     1.217
   676   8 o        1.607    -0.676    27.084     7.024
   677   1 h        0.804     0.338     0.618     1.235
   678   1 h        0.803     0.342     0.607     1.224
   679   8 o        1.608    -0.676    27.070     7.022
   680   1 h        0.804     0.321     0.660     1.276
   681   1 h        0.804     0.345     0.600     1.217
   682   8 o        1.609    -0.665    26.784     6.985
   683   1 h        0.805     0.329     0.640     1.257
   684   1 h        0.804     0.342     0.608     1.225
   685   8 o        1.607    -0.685    27.329     7.055
   686   1 h        0.804     0.355     0.577     1.193
   687   1 h        0.803     0.327     0.646     1.263
   688   8 o        1.609    -0.680    27.175     7.036
   689   1 h        0.805     0.339     0.615     1.232
   690   1 h        0.804     0.351     0.586     1.202
   691   8 o        1.608    -0.674    27.017     7.015
   692   1 h        0.804     0.328     0.641     1.258
   693   1 h        0.804     0.338     0.618     1.235
   694   8 o        1.606    -0.678    27.142     7.031
   695   1 h        0.803     0.338     0.617     1.234
   696   1 h        0.803     0.357     0.573     1.189
   697   8 o        1.606    -0.699    27.675     7.100
   698   1 h        0.803     0.346     0.598     1.215
   699   1 h        0.803     0.360     0.566     1.181
   700   8 o        1.607    -0.689    27.408     7.066
   701   1 h        0.804     0.325     0.652     1.268
   702   1 h        0.803     0.341     0.609     1.226
   703   8 o        1.602    -0.675    27.071     7.022
   704   1 h        0.806     0.309     0.695     1.309
   705   1 h        0.808     0.351     0.585     1.201
   706   8 o        1.609    -0.641    26.188     6.907
   707   1 h        0.804     0.333     0.630     1.247
   708   1 h        0.805     0.306     0.702     1.316
   709   8 o        1.610    -0.658    26.613     6.963
   710   1 h        0.805     0.325     0.649     1.265
   711   1 h        0.805     0.328     0.643     1.259
   712   8 o        1.607    -0.677    27.106     7.027
   713   1 h        0.803     0.331     0.634     1.251
   714   1 h        0.803     0.343     0.604     1.221
   715   8 o        1.610    -0.656    26.567     6.957
   716   1 h        0.804     0.324     0.653     1.269
   717   1 h        0.805     0.349     0.590     1.207
   718   8 o        1.605    -0.702    27.754     7.110
   719   1 h        0.802     0.358     0.569     1.185
   720   1 h        0.803     0.326     0.647     1.264
   721   8 o        1.608    -0.658    26.614     6.963
   722   1 h        0.803     0.341     0.610     1.227
   723   1 h        0.805     0.315     0.678     1.293
   724   8 o        1.607    -0.677    27.108     7.027
   725   1 h        0.804     0.330     0.638     1.255
   726   1 h        0.803     0.355     0.577     1.194
   727   8 o        1.606    -0.704    27.819     7.119
   728   1 h        0.803     0.366     0.552     1.167
   729   1 h        0.804     0.336     0.623     1.240
   730   8 o        1.609    -0.670    26.930     7.004
   731   1 h        0.805     0.336     0.622     1.239
   732   1 h        0.804     0.335     0.623     1.240
   733   8 o        1.609    -0.680    27.186     7.037
   734   1 h        0.805     0.340     0.612     1.229
   735   1 h        0.804     0.341     0.609     1.226
   736   8 o        1.610    -0.664    26.773     6.983
   737   1 h        0.805     0.335     0.624     1.241
   738   1 h        0.805     0.337     0.621     1.237
   739   8 o        1.608    -0.693    27.521     7.080
   740   1 h        0.803     0.322     0.658     1.274
   741   1 h        0.804     0.357     0.572     1.188
   742   8 o        1.609    -0.661    26.684     6.972
   743   1 h        0.804     0.351     0.585     1.201
   744   1 h        0.804     0.329     0.641     1.257
   745   8 o        1.608    -0.686    27.338     7.057
   746   1 h        0.804     0.325     0.651     1.267
   747   1 h        0.803     0.362     0.560     1.176
   748   8 o        1.609    -0.681    27.215     7.041
   749   1 h        0.804     0.338     0.616     1.233
   750   1 h        0.804     0.340     0.612     1.229
   751   8 o        1.607    -0.667    26.858     6.994
   752   1 h        0.805     0.323     0.654     1.271
   753   1 h        0.802     0.356     0.574     1.190
   754   8 o        1.608    -0.683    27.260     7.047
   755   1 h        0.804     0.339     0.614     1.231
   756   1 h        0.804     0.334     0.627     1.243

 Mol. C6AA /au·bohr⁶  :    2900597.921861
 Mol. C8AA /au·bohr⁸  :   52637946.803181
 Mol. α(0) /au        :       2393.437202


Wiberg/Mayer (AO) data.
largest (>0.10) Wiberg bond orders for each atom

 ---------------------------------------------------------------------------
     #   Z sym  total        # sym  WBO       # sym  WBO       # sym  WBO
 ---------------------------------------------------------------------------
     1   8 o    1.840 --     3 h    0.886     2 h    0.801
     2   1 h    0.867 --     1 o    0.801
     3   1 h    0.898 --     1 o    0.886
     4   8 o    1.832 --     5 h    0.832     6 h    0.811
     5   1 h    0.895 --     4 o    0.832
     6   1 h    0.882 --     4 o    0.811
     7   8 o    1.866 --     8 h    0.807     9 h    0.801
     8   1 h    0.872 --     7 o    0.807
     9   1 h    0.871 --     7 o    0.801
    10   8 o    1.836 --    11 h    0.843    12 h    0.808
    11   1 h    0.887 --    10 o    0.843
    12   1 h    0.879 --    10 o    0.808
    13   8 o    1.865 --    15 h    0.830    14 h    0.791
    14   1 h    0.875 --    13 o    0.791
    15   1 h    0.880 --    13 o    0.830
    16   8 o    1.858 --    17 h    0.824    18 h    0.800
    17   1 h    0.894 --    16 o    0.824
    18   1 h    0.872 --    16 o    0.800
    19   8 o    1.853 --    21 h    0.835    20 h    0.823
    20   1 h    0.878 --    19 o    0.823
    21   1 h    0.883 --    19 o    0.835
    22   8 o    1.850 --    23 h    0.858    24 h    0.820
    23   1 h    0.882 --    22 o    0.858
    24   1 h    0.875 --    22 o    0.820
    25   8 o    1.854 --    27 h    0.831    26 h    0.808
    26   1 h    0.874 --    25 o    0.808
    27   1 h    0.880 --    25 o    0.831
    28   8 o    1.838 --    30 h    0.838    29 h    0.781
    29   1 h    0.873 --    28 o    0.781
    30   1 h    0.883 --    28 o    0.838
    31   8 o    1.869 --    32 h    0.861    33 h    0.791
    32   1 h    0.880 --    31 o    0.861
    33   1 h    0.869 --    31 o    0.791
    34   8 o    1.867 --    36 h    0.862    35 h    0.775
    35   1 h    0.865 --    34 o    0.775
    36   1 h    0.895 --    34 o    0.862
    37   8 o    1.809 --    39 h    0.865    38 h    0.766
    38   1 h    0.870 --    37 o    0.766
    39   1 h    0.895 --    37 o    0.865
    40   8 o    1.857 --    41 h    0.828    42 h    0.826
    41   1 h    0.881 --    40 o    0.828
    42   1 h    0.882 --    40 o    0.826
    43   8 o    1.851 --    44 h    0.832    45 h    0.797
    44   1 h    0.886 --    43 o    0.832
    45   1 h    0.877 --    43 o    0.797
    46   8 o    1.849 --    47 h    0.902    48 h    0.796
    47   1 h    0.907 --    46 o    0.902
    48   1 h    0.863 --    46 o    0.796
    49   8 o    1.838 --    50 h    0.829    51 h    0.823
    50   1 h    0.892 --    49 o    0.829
    51   1 h    0.884 --    49 o    0.823
    52   8 o    1.866 --    54 h    0.862    53 h    0.788
    53   1 h    0.874 --    52 o    0.788
    54   1 h    0.889 --    52 o    0.862
    55   8 o    1.870 --    57 h    0.840    56 h    0.809
    56   1 h    0.873 --    55 o    0.809
    57   1 h    0.882 --    55 o    0.840
    58   8 o    1.872 --    59 h    0.866    60 h    0.786
    59   1 h    0.883 --    58 o    0.866
    60   1 h    0.873 --    58 o    0.786
    61   8 o    1.861 --    63 h    0.815    62 h    0.807
    62   1 h    0.874 --    61 o    0.807
    63   1 h    0.874 --    61 o    0.815
    64   8 o    1.841 --    65 h    0.836    66 h    0.798
    65   1 h    0.894 --    64 o    0.836
    66   1 h    0.870 --    64 o    0.798
    67   8 o    1.832 --    69 h    0.822    68 h    0.807
    68   1 h    0.876 --    67 o    0.807
    69   1 h    0.879 --    67 o    0.822
    70   8 o    1.857 --    72 h    0.853    71 h    0.824
    71   1 h    0.874 --    70 o    0.824
    72   1 h    0.886 --    70 o    0.853
    73   8 o    1.846 --    74 h    0.808    75 h    0.792
    74   1 h    0.881 --    73 o    0.808
    75   1 h    0.883 --    73 o    0.792
    76   8 o    1.836 --    77 h    0.824    78 h    0.820
    77   1 h    0.879 --    76 o    0.824
    78   1 h    0.883 --    76 o    0.820
    79   8 o    1.876 --    80 h    0.833    81 h    0.790
    80   1 h    0.888 --    79 o    0.833
    81   1 h    0.865 --    79 o    0.790
    82   8 o    1.857 --    84 h    0.801    83 h    0.774
    83   1 h    0.866 --    82 o    0.774
    84   1 h    0.877 --    82 o    0.801
    85   8 o    1.838 --    86 h    0.814    87 h    0.813
    86   1 h    0.882 --    85 o    0.814
    87   1 h    0.880 --    85 o    0.813
    88   8 o    1.857 --    90 h    0.813    89 h    0.806
    89   1 h    0.881 --    88 o    0.806
    90   1 h    0.878 --    88 o    0.813
    91   8 o    1.808 --    92 h    0.848    93 h    0.836
    92   1 h    0.887 --    91 o    0.848
    93   1 h    0.886 --    91 o    0.836
    94   8 o    1.846 --    96 h    0.814    95 h    0.809
    95   1 h    0.880 --    94 o    0.809
    96   1 h    0.880 --    94 o    0.814
    97   8 o    1.836 --    98 h    0.898    99 h    0.788
    98   1 h    0.905 --    97 o    0.898
    99   1 h    0.864 --    97 o    0.788
   100   8 o    1.871 --   101 h    0.836   102 h    0.792
   101   1 h    0.880 --   100 o    0.836
   102   1 h    0.869 --   100 o    0.792
   103   8 o    1.889 --   105 h    0.837   104 h    0.797
   104   1 h    0.866 --   103 o    0.797
   105   1 h    0.880 --   103 o    0.837
   106   8 o    1.851 --   107 h    0.818   108 h    0.809
   107   1 h    0.890 --   106 o    0.818
   108   1 h    0.874 --   106 o    0.809
   109   8 o    1.846 --   111 h    0.830   110 h    0.787
   110   1 h    0.876 --   109 o    0.787
   111   1 h    0.884 --   109 o    0.830
   112   8 o    1.826 --   114 h    0.829   113 h    0.809
   113   1 h    0.884 --   112 o    0.809
   114   1 h    0.885 --   112 o    0.829
   115   8 o    1.868 --   116 h    0.845   117 h    0.803
   116   1 h    0.883 --   115 o    0.845
   117   1 h    0.876 --   115 o    0.803
   118   8 o    1.851 --   119 h    0.832   120 h    0.818
   119   1 h    0.882 --   118 o    0.832
   120   1 h    0.876 --   118 o    0.818
   121   8 o    1.835 --   122 h    0.899   123 h    0.786
   122   1 h    0.905 --   121 o    0.899
   123   1 h    0.874 --   121 o    0.786
   124   8 o    1.868 --   125 h    0.811   126 h    0.790
   125   1 h    0.880 --   124 o    0.811
   126   1 h    0.869 --   124 o    0.790
   127   8 o    1.848 --   128 h    0.865   129 h    0.788
   128   1 h    0.899 --   127 o    0.865
   129   1 h    0.877 --   127 o    0.788
   130   8 o    1.825 --   132 h    0.860   131 h    0.837
   131   1 h    0.883 --   130 o    0.837
   132   1 h    0.887 --   130 o    0.860
   133   8 o    1.864 --   134 h    0.874   135 h    0.812
   134   1 h    0.891 --   133 o    0.874
   135   1 h    0.885 --   133 o    0.812
   136   8 o    1.865 --   137 h    0.822   138 h    0.812
   137   1 h    0.879 --   136 o    0.822
   138   1 h    0.878 --   136 o    0.812
   139   8 o    1.884 --   141 h    0.837   140 h    0.800
   140   1 h    0.871 --   139 o    0.800
   141   1 h    0.894 --   139 o    0.837
   142   8 o    1.869 --   143 h    0.820   144 h    0.790
   143   1 h    0.890 --   142 o    0.820
   144   1 h    0.871 --   142 o    0.790
   145   8 o    1.835 --   147 h    0.825   146 h    0.820
   146   1 h    0.884 --   145 o    0.820
   147   1 h    0.884 --   145 o    0.825
   148   8 o    1.826 --   149 h    0.873   150 h    0.817
   149   1 h    0.893 --   148 o    0.873
   150   1 h    0.872 --   148 o    0.817
   151   8 o    1.857 --   152 h    0.829   153 h    0.828
   152   1 h    0.888 --   151 o    0.829
   153   1 h    0.874 --   151 o    0.828
   154   8 o    1.828 --   156 h    0.817   155 h    0.813
   155   1 h    0.875 --   154 o    0.813
   156   1 h    0.879 --   154 o    0.817
   157   8 o    1.794 --   159 h    0.825   158 h    0.815
   158   1 h    0.882 --   157 o    0.815
   159   1 h    0.891 --   157 o    0.825
   160   8 o    1.839 --   161 h    0.822   162 h    0.811
   161   1 h    0.891 --   160 o    0.822
   162   1 h    0.875 --   160 o    0.811
   163   8 o    1.816 --   165 h    0.868   164 h    0.798
   164   1 h    0.872 --   163 o    0.798
   165   1 h    0.898 --   163 o    0.868
   166   8 o    1.836 --   168 h    0.851   167 h    0.782
   167   1 h    0.872 --   166 o    0.782
   168   1 h    0.888 --   166 o    0.851
   169   8 o    1.867 --   170 h    0.817   171 h    0.800
   170   1 h    0.879 --   169 o    0.817
   171   1 h    0.879 --   169 o    0.800
   172   8 o    1.828 --   174 h    0.827   173 h    0.811
   173   1 h    0.874 --   172 o    0.811
   174   1 h    0.888 --   172 o    0.827
   175   8 o    1.862 --   176 h    0.820   177 h    0.814
   176   1 h    0.886 --   175 o    0.820
   177   1 h    0.888 --   175 o    0.814
   178   8 o    1.867 --   180 h    0.845   179 h    0.800
   179   1 h    0.881 --   178 o    0.800
   180   1 h    0.895 --   178 o    0.845
   181   8 o    1.866 --   182 h    0.803   183 h    0.790
   182   1 h    0.874 --   181 o    0.803
   183   1 h    0.874 --   181 o    0.790
   184   8 o    1.840 --   186 h    0.837   185 h    0.835
   185   1 h    0.893 --   184 o    0.835
   186   1 h    0.889 --   184 o    0.837
   187   8 o    1.827 --   189 h    0.836   188 h    0.817
   188   1 h    0.889 --   187 o    0.817
   189   1 h    0.890 --   187 o    0.836
   190   8 o    1.834 --   192 h    0.853   191 h    0.817
   191   1 h    0.886 --   190 o    0.817
   192   1 h    0.895 --   190 o    0.853
   193   8 o    1.851 --   195 h    0.883   194 h    0.807
   194   1 h    0.879 --   193 o    0.807
   195   1 h    0.898 --   193 o    0.883
   196   8 o    1.872 --   198 h    0.815   197 h    0.769
   197   1 h    0.863 --   196 o    0.769
   198   1 h    0.876 --   196 o    0.815
   199   8 o    1.890 --   200 h    0.882   201 h    0.810
   200   1 h    0.896 --   199 o    0.882
   201   1 h    0.889 --   199 o    0.810
   202   8 o    1.861 --   203 h    0.829   204 h    0.789
   203   1 h    0.887 --   202 o    0.829
   204   1 h    0.864 --   202 o    0.789
   205   8 o    1.853 --   206 h    0.826   207 h    0.792   548 h    0.109
   206   1 h    0.886 --   205 o    0.826
   207   1 h    0.874 --   205 o    0.792
   208   8 o    1.835 --   210 h    0.843   209 h    0.829
   209   1 h    0.870 --   208 o    0.829
   210   1 h    0.893 --   208 o    0.843
   211   8 o    1.863 --   213 h    0.843   212 h    0.766
   212   1 h    0.864 --   211 o    0.766
   213   1 h    0.883 --   211 o    0.843
   214   8 o    1.827 --   216 h    0.831   215 h    0.805
   215   1 h    0.876 --   214 o    0.805
   216   1 h    0.885 --   214 o    0.831
   217   8 o    1.850 --   218 h    0.846   219 h    0.842
   218   1 h    0.882 --   217 o    0.846
   219   1 h    0.895 --   217 o    0.842
   220   8 o    1.885 --   221 h    0.831   222 h    0.806
   221   1 h    0.876 --   220 o    0.831
   222   1 h    0.885 --   220 o    0.806
   223   8 o    1.907 --   224 h    0.822   225 h    0.802
   224   1 h    0.877 --   223 o    0.822
   225   1 h    0.888 --   223 o    0.802
   226   8 o    1.853 --   227 h    0.821   228 h    0.800
   227   1 h    0.871 --   226 o    0.821
   228   1 h    0.877 --   226 o    0.800
   229   8 o    1.820 --   230 h    0.846   231 h    0.837
   230   1 h    0.898 --   229 o    0.846
   231   1 h    0.886 --   229 o    0.837
   232   8 o    1.856 --   234 h    0.869   233 h    0.799
   233   1 h    0.876 --   232 o    0.799
   234   1 h    0.887 --   232 o    0.869
   235   8 o    1.844 --   237 h    0.832   236 h    0.805
   236   1 h    0.882 --   235 o    0.805
   237   1 h    0.884 --   235 o    0.832
   238   8 o    1.803 --   239 h    0.854   240 h    0.826
   239   1 h    0.885 --   238 o    0.854
   240   1 h    0.889 --   238 o    0.826
   241   8 o    1.840 --   243 h    0.868   242 h    0.856
   242   1 h    0.886 --   241 o    0.856
   243   1 h    0.891 --   241 o    0.868
   244   8 o    1.888 --   245 h    0.821   246 h    0.793
   245   1 h    0.892 --   244 o    0.821
   246   1 h    0.870 --   244 o    0.793
   247   8 o    1.811 --   249 h    0.857   248 h    0.830
   248   1 h    0.887 --   247 o    0.830
   249   1 h    0.891 --   247 o    0.857
   250   8 o    1.829 --   252 h    0.884   251 h    0.822
   251   1 h    0.878 --   250 o    0.822
   252   1 h    0.900 --   250 o    0.884
   253   8 o    1.859 --   255 h    0.827   254 h    0.806
   254   1 h    0.872 --   253 o    0.806
   255   1 h    0.890 --   253 o    0.827
   256   8 o    1.827 --   257 h    0.881   258 h    0.822
   257   1 h    0.905 --   256 o    0.881
   258   1 h    0.874 --   256 o    0.822
   259   8 o    1.851 --   260 h    0.811   261 h    0.804
   260   1 h    0.890 --   259 o    0.811
   261   1 h    0.878 --   259 o    0.804
   262   8 o    1.879 --   264 h    0.856   263 h    0.793
   263   1 h    0.881 --   262 o    0.793
   264   1 h    0.891 --   262 o    0.856
   265   8 o    1.835 --   267 h    0.838   266 h    0.826
   266   1 h    0.884 --   265 o    0.826
   267   1 h    0.887 --   265 o    0.838
   268   8 o    1.855 --   269 h    0.897   270 h    0.768
   269   1 h    0.903 --   268 o    0.897
   270   1 h    0.871 --   268 o    0.768
   271   8 o    1.867 --   273 h    0.847   272 h    0.810
   272   1 h    0.888 --   271 o    0.810
   273   1 h    0.889 --   271 o    0.847
   274   8 o    1.818 --   275 h    0.841   276 h    0.798
   275   1 h    0.900 --   274 o    0.841
   276   1 h    0.878 --   274 o    0.798
   277   8 o    1.888 --   279 h    0.804   278 h    0.792
   278   1 h    0.877 --   277 o    0.792
   279   1 h    0.883 --   277 o    0.804
   280   8 o    1.848 --   282 h    0.845   281 h    0.827
   281   1 h    0.893 --   280 o    0.827
   282   1 h    0.886 --   280 o    0.845
   283   8 o    1.865 --   284 h    0.822   285 h    0.811
   284   1 h    0.896 --   283 o    0.822
   285   1 h    0.877 --   283 o    0.811
   286   8 o    1.873 --   287 h    0.864   288 h    0.814
   287   1 h    0.886 --   286 o    0.864
   288   1 h    0.875 --   286 o    0.814
   289   8 o    1.857 --   290 h    0.843   291 h    0.833
   290   1 h    0.884 --   289 o    0.843
   291   1 h    0.884 --   289 o    0.833
   292   8 o    1.816 --   293 h    0.869   294 h    0.811
   293   1 h    0.897 --   292 o    0.869
   294   1 h    0.874 --   292 o    0.811
   295   8 o    1.870 --   296 h    0.809   297 h    0.779
   296   1 h    0.892 --   295 o    0.809
   297   1 h    0.869 --   295 o    0.779
   298   8 o    1.855 --   299 h    0.817   300 h    0.805
   299   1 h    0.880 --   298 o    0.817
   300   1 h    0.882 --   298 o    0.805
   301   8 o    1.876 --   302 h    0.795   303 h    0.794
   302   1 h    0.876 --   301 o    0.795
   303   1 h    0.887 --   301 o    0.794
   304   8 o    1.807 --   306 h    0.848   305 h    0.813
   305   1 h    0.881 --   304 o    0.813
   306   1 h    0.893 --   304 o    0.848
   307   8 o    1.856 --   309 h    0.820   308 h    0.800
   308   1 h    0.872 --   307 o    0.800
   309   1 h    0.880 --   307 o    0.820
   310   8 o    1.884 --   312 h    0.829   311 h    0.796
   311   1 h    0.869 --   310 o    0.796
   312   1 h    0.883 --   310 o    0.829
   313   8 o    1.851 --   314 h    0.847   315 h    0.816
   314   1 h    0.895 --   313 o    0.847
   315   1 h    0.888 --   313 o    0.816
   316   8 o    1.831 --   317 h    0.843   318 h    0.831
   317   1 h    0.888 --   316 o    0.843
   318   1 h    0.886 --   316 o    0.831
   319   8 o    1.869 --   320 h    0.813   321 h    0.796
   320   1 h    0.892 --   319 o    0.813
   321   1 h    0.871 --   319 o    0.796
   322   8 o    1.815 --   323 h    0.849   324 h    0.845
   323   1 h    0.886 --   322 o    0.849
   324   1 h    0.885 --   322 o    0.845
   325   8 o    1.879 --   326 h    0.853   327 h    0.790
   326   1 h    0.890 --   325 o    0.853
   327   1 h    0.882 --   325 o    0.790
   328   8 o    1.826 --   329 h    0.839   330 h    0.834
   329   1 h    0.881 --   328 o    0.839
   330   1 h    0.888 --   328 o    0.834
   331   8 o    1.844 --   332 h    0.834   333 h    0.790
   332   1 h    0.897 --   331 o    0.834
   333   1 h    0.869 --   331 o    0.790
   334   8 o    1.871 --   335 h    0.839   336 h    0.815
   335   1 h    0.890 --   334 o    0.839
   336   1 h    0.868 --   334 o    0.815
   337   8 o    1.823 --   339 h    0.845   338 h    0.829
   338   1 h    0.877 --   337 o    0.829
   339   1 h    0.898 --   337 o    0.845
   340   8 o    1.832 --   342 h    0.851   341 h    0.849
   341   1 h    0.885 --   340 o    0.849
   342   1 h    0.883 --   340 o    0.851
   343   8 o    1.845 --   344 h    0.831   345 h    0.823
   344   1 h    0.885 --   343 o    0.831
   345   1 h    0.873 --   343 o    0.823
   346   8 o    1.862 --   347 h    0.877   348 h    0.778
   347   1 h    0.902 --   346 o    0.877
   348   1 h    0.871 --   346 o    0.778
   349   8 o    1.864 --   351 h    0.834   350 h    0.833
   350   1 h    0.879 --   349 o    0.833
   351   1 h    0.893 --   349 o    0.834
   352   8 o    1.803 --   354 h    0.844   353 h    0.837
   353   1 h    0.889 --   352 o    0.837
   354   1 h    0.892 --   352 o    0.844
   355   8 o    1.862 --   356 h    0.855   357 h    0.808
   356   1 h    0.897 --   355 o    0.855
   357   1 h    0.885 --   355 o    0.808
   358   8 o    1.836 --   360 h    0.829   359 h    0.789
   359   1 h    0.877 --   358 o    0.789
   360   1 h    0.881 --   358 o    0.829
   361   8 o    1.846 --   363 h    0.881   362 h    0.841
   362   1 h    0.889 --   361 o    0.841
   363   1 h    0.903 --   361 o    0.881
   364   8 o    1.891 --   366 h    0.873   365 h    0.784
[...]
   371   1 h    0.875 --   370 o    0.809
   372   1 h    0.888 --   370 o    0.829
   373   8 o    1.812 --   375 h    0.860   374 h    0.845
   374   1 h    0.894 --   373 o    0.845
   375   1 h    0.884 --   373 o    0.860
   376   8 o    1.857 --   378 h    0.839   377 h    0.837
   377   1 h    0.884 --   376 o    0.837
   378   1 h    0.881 --   376 o    0.839
   379   8 o    1.852 --   380 h    0.853   381 h    0.851
   380   1 h    0.893 --   379 o    0.853
   381   1 h    0.896 --   379 o    0.851
   382   8 o    1.836 --   384 h    0.868   383 h    0.823
   383   1 h    0.885 --   382 o    0.823
   384   1 h    0.894 --   382 o    0.868
   385   8 o    1.820 --   386 h    0.874   387 h    0.835
   386   1 h    0.890 --   385 o    0.874
   387   1 h    0.880 --   385 o    0.835
   388   8 o    1.860 --   389 h    0.902   390 h    0.798
   389   1 h    0.905 --   388 o    0.902
   390   1 h    0.876 --   388 o    0.798
   391   8 o    1.844 --   392 h    0.886   393 h    0.819
   392   1 h    0.903 --   391 o    0.886
   393   1 h    0.871 --   391 o    0.819
   394   8 o    1.856 --   396 h    0.845   395 h    0.797
   395   1 h    0.871 --   394 o    0.797
   396   1 h    0.892 --   394 o    0.845
   397   8 o    1.869 --   398 h    0.819   399 h    0.795
   398   1 h    0.882 --   397 o    0.819
   399   1 h    0.868 --   397 o    0.795
   400   8 o    1.835 --   401 h    0.837   402 h    0.818
   401   1 h    0.888 --   400 o    0.837
   402   1 h    0.879 --   400 o    0.818
   403   8 o    1.856 --   404 h    0.826   405 h    0.820
   404   1 h    0.891 --   403 o    0.826
   405   1 h    0.877 --   403 o    0.820
   406   8 o    1.829 --   408 h    0.848   407 h    0.821
   407   1 h    0.878 --   406 o    0.821
   408   1 h    0.897 --   406 o    0.848
   409   8 o    1.865 --   410 h    0.834   411 h    0.802
   410   1 h    0.885 --   409 o    0.834
   411   1 h    0.884 --   409 o    0.802
   412   8 o    1.867 --   413 h    0.867   414 h    0.813
   413   1 h    0.889 --   412 o    0.867
   414   1 h    0.875 --   412 o    0.813
   415   8 o    1.836 --   417 h    0.865   416 h    0.763
   416   1 h    0.868 --   415 o    0.763   688 o    0.101
   417   1 h    0.895 --   415 o    0.865
   418   8 o    1.858 --   420 h    0.836   419 h    0.827
   419   1 h    0.888 --   418 o    0.827
   420   1 h    0.886 --   418 o    0.836
   421   8 o    1.830 --   423 h    0.843   422 h    0.838
   422   1 h    0.883 --   421 o    0.838
   423   1 h    0.890 --   421 o    0.843
   424   8 o    1.818 --   425 h    0.890   426 h    0.852
   425   1 h    0.898 --   424 o    0.890
   426   1 h    0.884 --   424 o    0.852
   427   8 o    1.856 --   429 h    0.811   428 h    0.808
   428   1 h    0.877 --   427 o    0.808
   429   1 h    0.874 --   427 o    0.811
   430   8 o    1.837 --   432 h    0.826   431 h    0.816
   431   1 h    0.876 --   430 o    0.816
   432   1 h    0.882 --   430 o    0.826
   433   8 o    1.810 --   435 h    0.833   434 h    0.831
   434   1 h    0.882 --   433 o    0.831
   435   1 h    0.893 --   433 o    0.833
   436   8 o    1.843 --   438 h    0.862   437 h    0.821
   437   1 h    0.873 --   436 o    0.821
   438   1 h    0.899 --   436 o    0.862
   439   8 o    1.852 --   441 h    0.843   440 h    0.774
   440   1 h    0.869 --   439 o    0.774
   441   1 h    0.894 --   439 o    0.843
   442   8 o    1.835 --   444 h    0.873   443 h    0.818
   443   1 h    0.881 --   442 o    0.818
   444   1 h    0.893 --   442 o    0.873
   445   8 o    1.837 --   447 h    0.875   446 h    0.826
   446   1 h    0.878 --   445 o    0.826
   447   1 h    0.894 --   445 o    0.875
   448   8 o    1.842 --   450 h    0.867   449 h    0.825
   449   1 h    0.881 --   448 o    0.825
   450   1 h    0.889 --   448 o    0.867
   451   8 o    1.855 --   453 h    0.837   452 h    0.818
   452   1 h    0.887 --   451 o    0.818
   453   1 h    0.881 --   451 o    0.837
   454   8 o    1.865 --   456 h    0.837   455 h    0.828
   455   1 h    0.870 --   454 o    0.828
   456   1 h    0.888 --   454 o    0.837
   457   8 o    1.811 --   458 h    0.899   459 h    0.814
   458   1 h    0.907 --   457 o    0.899
   459   1 h    0.871 --   457 o    0.814
   460   8 o    1.864 --   462 h    0.842   461 h    0.779
   461   1 h    0.869 --   460 o    0.779
   462   1 h    0.896 --   460 o    0.842
   463   8 o    1.863 --   464 h    0.888   465 h    0.814
   464   1 h    0.904 --   463 o    0.888
   465   1 h    0.883 --   463 o    0.814
   466   8 o    1.902 --   468 h    0.823   467 h    0.804
   467   1 h    0.879 --   466 o    0.804
   468   1 h    0.880 --   466 o    0.823
   469   8 o    1.824 --   470 h    0.839   471 h    0.825
   470   1 h    0.887 --   469 o    0.839
   471   1 h    0.879 --   469 o    0.825
   472   8 o    1.853 --   474 h    0.876   473 h    0.824
   473   1 h    0.884 --   472 o    0.824
   474   1 h    0.894 --   472 o    0.876
   475   8 o    1.865 --   477 h    0.851   476 h    0.816
   476   1 h    0.879 --   475 o    0.816
   477   1 h    0.889 --   475 o    0.851
   478   8 o    1.865 --   479 h    0.833   480 h    0.796
   479   1 h    0.889 --   478 o    0.833
   480   1 h    0.885 --   478 o    0.796
   481   8 o    1.888 --   482 h    0.824   483 h    0.822
   482   1 h    0.892 --   481 o    0.824
   483   1 h    0.879 --   481 o    0.822
   484   8 o    1.819 --   486 h    0.900   485 h    0.788
   485   1 h    0.871 --   484 o    0.788
   486   1 h    0.907 --   484 o    0.900
   487   8 o    1.824 --   488 h    0.853   489 h    0.792
   488   1 h    0.891 --   487 o    0.853
   489   1 h    0.868 --   487 o    0.792
   490   8 o    1.885 --   492 h    0.814   491 h    0.801
   491   1 h    0.869 --   490 o    0.801
   492   1 h    0.887 --   490 o    0.814
   493   8 o    1.869 --   494 h    0.835   495 h    0.806
   494   1 h    0.892 --   493 o    0.835
   495   1 h    0.875 --   493 o    0.806
   496   8 o    1.874 --   498 h    0.862   497 h    0.759
   497   1 h    0.862 --   496 o    0.759
   498   1 h    0.893 --   496 o    0.862
   499   8 o    1.819 --   501 h    0.858   500 h    0.821
   500   1 h    0.882 --   499 o    0.821
   501   1 h    0.894 --   499 o    0.858
   502   8 o    1.837 --   504 h    0.862   503 h    0.853
   503   1 h    0.885 --   502 o    0.853
   504   1 h    0.887 --   502 o    0.862
   505   8 o    1.824 --   506 h    0.842   507 h    0.821
   506   1 h    0.889 --   505 o    0.842
   507   1 h    0.881 --   505 o    0.821
   508   8 o    1.839 --   509 h    0.830   510 h    0.818
   509   1 h    0.886 --   508 o    0.830
   510   1 h    0.879 --   508 o    0.818
   511   8 o    1.860 --   513 h    0.834   512 h    0.802
   512   1 h    0.874 --   511 o    0.802
   513   1 h    0.890 --   511 o    0.834
   514   8 o    1.811 --   516 h    0.852   515 h    0.831
   515   1 h    0.887 --   514 o    0.831
   516   1 h    0.894 --   514 o    0.852
   517   8 o    1.859 --   519 h    0.830   518 h    0.799
   518   1 h    0.873 --   517 o    0.799
   519   1 h    0.894 --   517 o    0.830
   520   8 o    1.844 --   521 h    0.869   522 h    0.819
   521   1 h    0.891 --   520 o    0.869
   522   1 h    0.881 --   520 o    0.819
   523   8 o    1.818 --   524 h    0.849   525 h    0.838
   524   1 h    0.887 --   523 o    0.849
   525   1 h    0.887 --   523 o    0.838
   526   8 o    1.847 --   527 h    0.850   528 h    0.838
   527   1 h    0.887 --   526 o    0.850
   528   1 h    0.888 --   526 o    0.838
   529   8 o    1.864 --   530 h    0.816   531 h    0.789
   530   1 h    0.875 --   529 o    0.816
   531   1 h    0.873 --   529 o    0.789
   532   8 o    1.824 --   533 h    0.847   534 h    0.818
   533   1 h    0.894 --   532 o    0.847
   534   1 h    0.883 --   532 o    0.818
   535   8 o    1.832 --   537 h    0.872   536 h    0.846
   536   1 h    0.880 --   535 o    0.846
   537   1 h    0.888 --   535 o    0.872
   538   8 o    1.825 --   539 h    0.857   540 h    0.820
   539   1 h    0.891 --   538 o    0.857
   540   1 h    0.873 --   538 o    0.820
   541   8 o    1.870 --   542 h    0.850   543 h    0.832
   542   1 h    0.894 --   541 o    0.850
   543   1 h    0.890 --   541 o    0.832
   544   8 o    1.799 --   545 h    0.853   546 h    0.815
   545   1 h    0.896 --   544 o    0.853
   546   1 h    0.871 --   544 o    0.815
   547   8 o    1.839 --   549 h    0.896   548 h    0.759
   548   1 h    0.874 --   547 o    0.759   205 o    0.109
   549   1 h    0.904 --   547 o    0.896
   550   8 o    1.818 --   551 h    0.869   552 h    0.822
   551   1 h    0.896 --   550 o    0.869
   552   1 h    0.879 --   550 o    0.822
   553   8 o    1.859 --   554 h    0.882   555 h    0.817
   554   1 h    0.898 --   553 o    0.882
   555   1 h    0.864 --   553 o    0.817
   556   8 o    1.806 --   557 h    0.895   558 h    0.791
   557   1 h    0.902 --   556 o    0.895
   558   1 h    0.876 --   556 o    0.791
   559   8 o    1.823 --   561 h    0.887   560 h    0.792
   560   1 h    0.871 --   559 o    0.792
   561   1 h    0.905 --   559 o    0.887
   562   8 o    1.850 --   563 h    0.830   564 h    0.825
   563   1 h    0.888 --   562 o    0.830
   564   1 h    0.878 --   562 o    0.825
   565   8 o    1.866 --   566 h    0.878   567 h    0.855
   566   1 h    0.897 --   565 o    0.878
   567   1 h    0.889 --   565 o    0.855
   568   8 o    1.838 --   569 h    0.878   570 h    0.792
   569   1 h    0.901 --   568 o    0.878
   570   1 h    0.869 --   568 o    0.792
   571   8 o    1.893 --   572 h    0.792   573 h    0.784   705 h    0.124
   572   1 h    0.884 --   571 o    0.792
   573   1 h    0.869 --   571 o    0.784
   574   8 o    1.827 --   575 h    0.895   576 h    0.771
   575   1 h    0.905 --   574 o    0.895
   576   1 h    0.871 --   574 o    0.771
   577   8 o    1.870 --   579 h    0.788   578 h    0.771
   578   1 h    0.865 --   577 o    0.771
   579   1 h    0.881 --   577 o    0.788
   580   8 o    1.829 --   582 h    0.854   581 h    0.840
   581   1 h    0.882 --   580 o    0.840
   582   1 h    0.887 --   580 o    0.854
   583   8 o    1.829 --   585 h    0.832   584 h    0.807
   584   1 h    0.878 --   583 o    0.807
   585   1 h    0.897 --   583 o    0.832
   586   8 o    1.813 --   587 h    0.896   588 h    0.803
   587   1 h    0.903 --   586 o    0.896
   588   1 h    0.875 --   586 o    0.803
   589   8 o    1.809 --   591 h    0.848   590 h    0.844
   590   1 h    0.884 --   589 o    0.844
   591   1 h    0.892 --   589 o    0.848
   592   8 o    1.833 --   593 h    0.880   594 h    0.855
   593   1 h    0.893 --   592 o    0.880
   594   1 h    0.876 --   592 o    0.855
   595   8 o    1.830 --   596 h    0.833   597 h    0.797
   596   1 h    0.892 --   595 o    0.833
   597   1 h    0.865 --   595 o    0.797
   598   8 o    1.846 --   599 h    0.836   600 h    0.817
   599   1 h    0.897 --   598 o    0.836
   600   1 h    0.879 --   598 o    0.817
   601   8 o    1.827 --   602 h    0.826   603 h    0.811
   602   1 h    0.889 --   601 o    0.826
   603   1 h    0.872 --   601 o    0.811
   604   8 o    1.858 --   606 h    0.832   605 h    0.815
   605   1 h    0.889 --   604 o    0.815
   606   1 h    0.883 --   604 o    0.832
   607   8 o    1.839 --   609 h    0.828   608 h    0.815
   608   1 h    0.888 --   607 o    0.815
   609   1 h    0.883 --   607 o    0.828
   610   8 o    1.848 --   612 h    0.854   611 h    0.800
   611   1 h    0.866 --   610 o    0.800
   612   1 h    0.890 --   610 o    0.854
   613   8 o    1.848 --   615 h    0.870   614 h    0.836
   614   1 h    0.886 --   613 o    0.836
   615   1 h    0.890 --   613 o    0.870
   616   8 o    1.821 --   618 h    0.874   617 h    0.852
   617   1 h    0.882 --   616 o    0.852
   618   1 h    0.891 --   616 o    0.874
   619   8 o    1.860 --   620 h    0.824   621 h    0.801
   620   1 h    0.875 --   619 o    0.824
   621   1 h    0.880 --   619 o    0.801
   622   8 o    1.860 --   624 h    0.855   623 h    0.802
   623   1 h    0.873 --   622 o    0.802
   624   1 h    0.889 --   622 o    0.855
   625   8 o    1.868 --   626 h    0.897   627 h    0.784
   626   1 h    0.901 --   625 o    0.897
   627   1 h    0.869 --   625 o    0.784
   628   8 o    1.864 --   630 h    0.858   629 h    0.781
   629   1 h    0.862 --   628 o    0.781
   630   1 h    0.893 --   628 o    0.858
   631   8 o    1.858 --   633 h    0.855   632 h    0.797
   632   1 h    0.873 --   631 o    0.797
   633   1 h    0.892 --   631 o    0.855
   634   8 o    1.841 --   636 h    0.836   635 h    0.831
   635   1 h    0.886 --   634 o    0.831
   636   1 h    0.883 --   634 o    0.836
   637   8 o    1.819 --   639 h    0.836   638 h    0.827
   638   1 h    0.888 --   637 o    0.827
   639   1 h    0.893 --   637 o    0.836
   640   8 o    1.818 --   642 h    0.899   641 h    0.806
   641   1 h    0.868 --   640 o    0.806
   642   1 h    0.905 --   640 o    0.899
   643   8 o    1.813 --   645 h    0.884   644 h    0.800
   644   1 h    0.869 --   643 o    0.800
   645   1 h    0.902 --   643 o    0.884
   646   8 o    1.809 --   648 h    0.831   647 h    0.791
   647   1 h    0.873 --   646 o    0.791
   648   1 h    0.892 --   646 o    0.831
   649   8 o    1.826 --   650 h    0.861   651 h    0.817
   650   1 h    0.893 --   649 o    0.861
   651   1 h    0.886 --   649 o    0.817
   652   8 o    1.845 --   654 h    0.822   653 h    0.815
   653   1 h    0.871 --   652 o    0.815
   654   1 h    0.890 --   652 o    0.822
   655   8 o    1.810 --   657 h    0.884   656 h    0.811
   656   1 h    0.876 --   655 o    0.811
   657   1 h    0.899 --   655 o    0.884
   658   8 o    1.842 --   659 h    0.878   660 h    0.821
   659   1 h    0.901 --   658 o    0.878
   660   1 h    0.872 --   658 o    0.821
   661   8 o    1.836 --   662 h    0.868   663 h    0.810
   662   1 h    0.893 --   661 o    0.868
   663   1 h    0.882 --   661 o    0.810
   664   8 o    1.853 --   666 h    0.819   665 h    0.816
   665   1 h    0.883 --   664 o    0.816
   666   1 h    0.885 --   664 o    0.819
   667   8 o    1.834 --   669 h    0.860   668 h    0.818
   668   1 h    0.877 --   667 o    0.818
   669   1 h    0.892 --   667 o    0.860
   670   8 o    1.845 --   672 h    0.838   671 h    0.826
   671   1 h    0.885 --   670 o    0.826
   672   1 h    0.889 --   670 o    0.838
   673   8 o    1.830 --   674 h    0.857   675 h    0.827
   674   1 h    0.897 --   673 o    0.857
   675   1 h    0.881 --   673 o    0.827
   676   8 o    1.862 --   678 h    0.822   677 h    0.819
   677   1 h    0.886 --   676 o    0.819
   678   1 h    0.883 --   676 o    0.822
   679   8 o    1.836 --   680 h    0.847   681 h    0.821
   680   1 h    0.897 --   679 o    0.847
   681   1 h    0.881 --   679 o    0.821
   682   8 o    1.831 --   683 h    0.862   684 h    0.841
   683   1 h    0.892 --   682 o    0.862
   684   1 h    0.883 --   682 o    0.841
   685   8 o    1.866 --   687 h    0.826   686 h    0.814
   686   1 h    0.874 --   685 o    0.814
   687   1 h    0.893 --   685 o    0.826
   688   8 o    1.867 --   689 h    0.849   690 h    0.805   416 h    0.101
   689   1 h    0.885 --   688 o    0.849
   690   1 h    0.877 --   688 o    0.805
   691   8 o    1.830 --   693 h    0.845   692 h    0.843
   692   1 h    0.892 --   691 o    0.843
   693   1 h    0.886 --   691 o    0.845
   694   8 o    1.897 --   695 h    0.818   696 h    0.806
   695   1 h    0.885 --   694 o    0.818
   696   1 h    0.873 --   694 o    0.806
   697   8 o    1.871 --   698 h    0.824   699 h    0.793
   698   1 h    0.880 --   697 o    0.824
   699   1 h    0.870 --   697 o    0.793
   700   8 o    1.813 --   701 h    0.855   702 h    0.822
   701   1 h    0.895 --   700 o    0.855
   702   1 h    0.883 --   700 o    0.822
   703   8 o    1.853 --   704 h    0.899   705 h    0.747
   704   1 h    0.905 --   703 o    0.899
   705   1 h    0.877 --   703 o    0.747   571 o    0.124
   706   8 o    1.849 --   708 h    0.888   707 h    0.829
   707   1 h    0.889 --   706 o    0.829
   708   1 h    0.906 --   706 o    0.888
   709   8 o    1.805 --   710 h    0.873   711 h    0.862
   710   1 h    0.894 --   709 o    0.873
   711   1 h    0.892 --   709 o    0.862
   712   8 o    1.863 --   714 h    0.819   713 h    0.817
   713   1 h    0.890 --   712 o    0.817
   714   1 h    0.882 --   712 o    0.819
   715   8 o    1.857 --   716 h    0.848   717 h    0.844
   716   1 h    0.895 --   715 o    0.848
   717   1 h    0.878 --   715 o    0.844
   718   8 o    1.844 --   720 h    0.835   719 h    0.777
   719   1 h    0.871 --   718 o    0.777
   720   1 h    0.893 --   718 o    0.835
   721   8 o    1.826 --   723 h    0.886   722 h    0.821
   722   1 h    0.884 --   721 o    0.821
   723   1 h    0.901 --   721 o    0.886
   724   8 o    1.887 --   725 h    0.830   726 h    0.801
   725   1 h    0.891 --   724 o    0.830
   726   1 h    0.874 --   724 o    0.801
   727   8 o    1.833 --   729 h    0.834   728 h    0.799
   728   1 h    0.866 --   727 o    0.799
   729   1 h    0.887 --   727 o    0.834
   730   8 o    1.823 --   731 h    0.864   732 h    0.845
   731   1 h    0.887 --   730 o    0.864
   732   1 h    0.887 --   730 o    0.845
   733   8 o    1.829 --   734 h    0.857   735 h    0.839
   734   1 h    0.884 --   733 o    0.857
   735   1 h    0.884 --   733 o    0.839
   736   8 o    1.820 --   737 h    0.862   738 h    0.858
   737   1 h    0.888 --   736 o    0.862
   738   1 h    0.887 --   736 o    0.858
   739   8 o    1.819 --   741 h    0.831   740 h    0.830
   740   1 h    0.896 --   739 o    0.830
   741   1 h    0.873 --   739 o    0.831
   742   8 o    1.892 --   744 h    0.835   743 h    0.827
   743   1 h    0.876 --   742 o    0.827
   744   1 h    0.892 --   742 o    0.835
   745   8 o    1.840 --   746 h    0.859   747 h    0.809
   746   1 h    0.894 --   745 o    0.859
   747   1 h    0.869 --   745 o    0.809
   748   8 o    1.831 --   749 h    0.850   750 h    0.838
   749   1 h    0.885 --   748 o    0.850
   750   1 h    0.884 --   748 o    0.838
   751   8 o    1.849 --   752 h    0.888   753 h    0.796
   752   1 h    0.895 --   751 o    0.888
   753   1 h    0.873 --   751 o    0.796
   754   8 o    1.801 --   756 h    0.857   755 h    0.842
   755   1 h    0.885 --   754 o    0.842
   756   1 h    0.888 --   754 o    0.857
 ---------------------------------------------------------------------------

Topologies differ in total number of bonds
Writing topology from bond orders to xtbtopo.mol

molecular dipole:
                 x           y           z       tot (Debye)
 q only:        0.945      -1.059       1.395
   full:        1.988      -1.920       1.363       7.832
molecular quadrupole (traceless):
                xx          xy          yy          xz          yz          zz
 q only:      -59.407     -56.367      88.209      12.093     -40.683     -28.802
  q+dip:      -74.309     -71.331     108.210       9.013     -53.185     -33.901
   full:      -73.020     -71.495     107.459       8.803     -52.405     -34.440


           -------------------------------------------------
          | TOTAL ENERGY            -1283.628704190943 Eh   |
          | GRADIENT NORM               0.106420975593 Eh/α |
          | HOMO-LUMO GAP               8.095338974603 eV   |
           -------------------------------------------------

------------------------------------------------------------------------
 * finished run on 2022/11/24 at 09:28:09.498     
------------------------------------------------------------------------
 total:
 * wall-time:     0 d,  0 h,  0 min, 22.972 sec
 *  cpu-time:     0 d,  0 h,  0 min, 37.135 sec
 * ratio c/w:     1.616 speedup
 SCF:
 * wall-time:     0 d,  0 h,  0 min, 21.942 sec
 *  cpu-time:     0 d,  0 h,  0 min, 35.394 sec
 * ratio c/w:     1.613 speedup

