756
 energy: -1283.349503509593 gnorm: 0.021269886825 xtb: 6.5.1 (579679a)
o           -2.90477806420311       -7.24108215809390       -3.28957756960289
h           -3.08583023560584       -6.67399537980626       -2.51002949892684
h           -2.54799243760474       -8.05411547626300       -2.92828279952232
o            0.05556853854475       -2.33565644000478       -3.67033704837684
h            0.65843108291256       -2.90470468911018       -4.17945686624211
h            0.61782331978000       -1.61299018565149       -3.33725027937987
o            3.29592503761359        1.62174680533908       -2.94457811401091
h            4.06652040712010        1.60285616839180       -2.34344936898170
h            2.82847789558213        0.76782413706348       -2.86918654020515
o            3.08440957503761        0.31675003371307       -0.07222859709865
h            2.47536917244267        1.02978003175982       -0.29733997751386
h            3.97032768144483        0.67467290920587       -0.27928609608866
o            1.62066134193977       -0.45435631994634       -2.56067232312827
h            1.03640518064562        0.32970558041110       -2.70255108836513
h            1.48951762580695       -0.73807219522360       -1.64592621759554
o           -3.72463808483926       -5.45861978256551        1.27100795687969
h           -4.60283045106287       -5.89053091849371        1.22649236010987
h           -3.86773497316286       -4.50710538734374        1.09686945293585
o            4.15613472670623       -1.57179383497362        1.90420992413319
h            3.29240657414029       -1.14065364757337        2.02300682121112
h            4.72504044222463       -0.92893949791565        1.45647933677205
o           -1.26550482879012       -3.08683480021246        1.41522217070009
h           -0.88542208405309       -3.25019319695686        0.54784574337244
h           -2.21602161410406       -2.94905007649579        1.27058541111891
o            2.68585542691401       -3.76554427924377        0.82266919507516
h            2.86300652407855       -3.02076482144235        0.21807485996775
h            2.24559891996008       -3.39954195110063        1.60594799500512
o            2.17077264700192        2.19476885977593        1.85187221278898
h            3.10278218183320        2.05564241368375        2.13779044926228
h            2.21714272030003        2.56047965384606        0.95763640465334
o            2.15556910621277        3.20200306552747        4.55506776939432
h            2.00476013830413        2.29774956452175        4.26509373959724
h            2.73594415116712        3.61950861769285        3.87535899775579
o           -1.14129380031415        1.82571797191509        4.63408847206307
h           -0.93529603972586        2.27994812487306        3.78073712353424
h           -0.40403360141478        1.96655620834867        5.23804793922937
o           -1.03529808674787       -3.82837704041431       -7.42950745691201
h           -1.29827736104975       -3.30351336880993       -6.62996277519128
h           -0.45790034641755       -4.53270546506914       -7.10780626975871
o           -0.40602593913026        2.79322528435288        2.31221686077956
h            0.54468742496574        2.65945708286349        2.18832464057383
h           -0.57810607126492        3.72764965215944        2.10990371054950
o            5.76262157346068        3.42353203407474       -3.04119640444687
h            5.93092558244605        3.98602996978778       -2.26269800207362
h            4.89811836076676        3.73549985623120       -3.38888959138896
o           -3.14376861903057       -0.92663372672943       -7.42152358445270
h           -3.17699440004771       -1.62730802522332       -8.07283793012605
h           -2.70319058750591       -1.30738984380408       -6.62940754404306
o            0.28808500557209        1.76203162642406       -2.79449884553439
h            0.42440153832508        2.33924843867144       -3.56610323064754
h           -0.66719969619896        1.76888424028820       -2.61209140675792
o           -7.49791466406536       -1.32858712543770       -4.22790608894754
h           -7.45712061245035       -0.41103258956586       -4.58717330181542
h           -6.83802862828784       -1.83333545710856       -4.71287881615269
o           -5.70107335597104        0.66785180343871       -2.61295074227794
h           -5.16019090125274        0.48395915969976       -1.82215961054548
h           -5.85686985131670        1.62003506249769       -2.68368250111567
o           -3.49142694917561        4.13027937360483        0.53248241419804
h           -3.31786920727803        3.20681529618117        0.34106896045661
h           -4.26680369363868        4.15647506557419        1.13828227619335
o           -4.47243392256090        2.18698129669827       -5.01450113676938
h           -4.46340512369861        1.21023784661778       -4.99337371462930
h           -4.35848566433260        2.50956238947034       -4.10267010046612
o            2.88931540143769       -2.55325325341687       -7.03600805212003
h            2.04933034246899       -2.23024989178393       -7.40639574215611
h            2.63101999810191       -3.03898268615219       -6.22174727456473
o           -3.71476582015501       -2.93672872263893        0.36078411572732
h           -4.64506193404458       -2.69622186735254        0.19306231458819
h           -3.25061650741734       -2.82409973528832       -0.48812187811357
o           -4.13177668956567       -0.38965093664930       -0.71938528065756
h           -4.56305363835352       -0.43678412047660        0.14958430992204
h           -3.34864707182212        0.15463280535358       -0.58013730707681
o           -2.90599691458994       -1.16725574660563        3.46599887303487
h           -3.55209040844754       -0.91180359370545        2.77849110421998
h           -3.10081322061574       -2.11701997278920        3.64638758149889
o           -5.43498055615858        1.68972154793243        0.40061523143205
h           -4.95406736667641        1.78187297758310        1.23798462184349
h           -5.60286097038301        2.58155871709074        0.05693902001731
o           -1.47032598968757        1.18366704578277       -7.48567612510107
h           -2.10505740439874        0.46562281500063       -7.66389124886650
h           -1.06950563297417        0.93202187182958       -6.62209878302099
o            3.61884119685468       -2.02788763775846       -1.02595738191449
h            3.28283488252830       -1.18555365260772       -0.63646626445066
h            4.57770874909374       -2.03706117800757       -0.81364593101227
o           -6.31215452967707       -2.34497339254018       -0.02718954137723
h           -6.87010594301151       -2.66675726608595       -0.76082946031229
h           -6.68317584355440       -1.47670762779527        0.20912577539794
o            5.02455682743663        3.57940894681318        0.55373143312668
h            4.58809739732971        4.26639931347584        0.00674346637429
h            4.67895324600063        3.71383257084178        1.45373301872713
o           -7.46348735385972       -1.50897949840152       -7.50670709774954
h           -6.88952953100968       -0.73877778565844       -7.64854325339079
h           -6.92922555482692       -2.10799677152641       -6.96141395544038
o           -6.07488882488979       -2.07813471509676        4.31440683192205
h           -5.86841086674632       -2.71932440520932        3.60694578545822
h           -6.88275717263813       -1.64404552147048        3.98269926929685
o            5.27920199801110        3.76659180714647       -6.57804729120828
h            5.03285937496592        3.60763206169429       -7.48991985020733
h            4.96243894739961        2.97147772861523       -6.08382487456069
o            4.42569429449721       -4.18719663942429        3.47038538242795
h            5.24132950062507       -3.88341317250826        3.04996844483305
h            3.88854818833175       -3.38899537237880        3.66762531742851
o            6.20200279479654       -1.63884286025312       -0.70228043294451
h            6.22483882617789       -0.86109105891037       -0.10876540450923
h            6.51382550086637       -1.35175472718835       -1.57410926475892
o           -5.83329927110368       -3.75217799718421        2.23701908715586
h           -6.36955814155113       -4.45548564703318        2.66412471563052
h           -6.35282426910369       -3.42691212326110        1.48025801726578
o            2.01890147489245        2.85359970855148       -0.81919752519743
h            1.04209712881730        3.00776736914807       -0.81043845371012
h            2.24095786219052        2.53998396624753       -1.71156121030641
o           -0.33764830277412       -0.61497195234490        3.90004342266544
h           -0.60682862470049        0.28500016795829        4.17793567898352
h           -1.17980971024085       -1.01761597078849        3.62550124353660
o           -2.32333699654750        1.71615757637969       -2.12738515962755
h           -2.21467175172942        1.63331378326578       -1.15418690981799
h           -2.96054669932909        2.43273319909803       -2.30238293999184
o            4.23886792423050       -0.99976677184450       -3.50536901658196
h            4.96488370167263       -0.35488869747446       -3.50531206108741
h            3.99775152860015       -1.24216851665501       -2.59638103931514
o            6.07600218978621       -6.70498471223122       -3.86371170293606
h            6.60952949058727       -7.49758951029572       -3.87523786936685
h            6.68702281479763       -5.94790243127087       -4.05450605713509
o            4.25465507136538        1.59669952246283       -5.46877102692366
h            4.44137350154259        0.66568396663970       -5.70899798983617
h            3.90769393135537        1.57760680903419       -4.55291762859346
o           -5.62254940025613       -2.77611987583952       -5.88697336632389
h           -5.01090275430305       -3.19664925122434       -6.50501180678393
h           -5.89004006923946       -3.52652151361961       -5.29681530017714
o           -5.26873438408214        2.98651816671983       -8.35097735102101
h           -4.35289242205147        3.16695569347915       -8.08142466462932
h           -5.80601738743477        3.52551687781273       -7.75392555901352
o            7.10873718107230       -1.79308560784256       -3.24620633982669
h            6.62336661810344       -1.57327418823622       -4.04624137030163
h            8.03335384358891       -1.97263708258451       -3.53155004695320
o            5.19146351515115        1.47873084420753       -1.06139734812676
h            6.12907408856262        1.23408578130517       -1.04632585022507
h            5.11493441985114        2.26954214093877       -0.49227660612823
o            1.87189335373108       -3.81130786219808       -4.93602865934952
h            2.27764238528718       -4.04418861039189       -4.07880128618064
h            1.46252086201174       -4.60630564634035       -5.32139396699656
o           -8.22228412176069        0.36996430167595       -1.92918619251572
h           -8.85242284269845        0.26672871675373       -2.66658020730233
h           -7.31700890134926        0.32720289414329       -2.31044215454393
o            0.75515723423871        6.94694657468250        5.09015853055004
h            1.05067999402125        6.48876832919102        5.90312427342538
h            1.56149050662973        7.04229078083681        4.54698418094413
o           -5.95771558496039        4.27888606171759       -5.94384119544785
h           -5.38294017718686        4.96405159264978       -5.58570957467401
h           -5.60478086160467        3.44340750273058       -5.58647290000364
o            2.69921030737537       -4.20623766215780       -2.40664975541811
h            3.30354362710675       -4.95575271771988       -2.25474776261127
h            3.11620353848777       -3.41302184625005       -2.03740201997595
o           -0.45808895159973        0.22202317020159       -5.26561373197167
h           -0.98014930046439       -0.12204357957708       -4.51878799286015
h            0.48972577016465        0.15179606131688       -5.05200395088973
o            6.27416177490186        6.63672372096408        1.08839500702204
h            6.28534212266429        6.13401181050414        0.24926721527365
h            5.40118866279370        7.07606238190351        1.08571512847032
o            4.10909539797025        3.12737914495098        6.43480082519809
h            3.82209679709683        2.59757748680430        7.20709092934751
h            3.44553343483347        2.96224923737102        5.74090232477577
o            3.31033834347634        1.43597597347448        8.35944703153528
h            3.09897215738669        0.55958931468305        7.96288592222663
h            2.47188747106580        1.72598940636761        8.74150188958938
o            6.12216731260342        0.21550640090600        1.14422606844222
h            5.58190681582690        0.77085212818264        1.74762326966048
h            6.95416549081287        0.01071591240560        1.58762254750518
o           -7.76644267435199        2.83142514500862        1.85462094843396
h           -7.97373173252050        2.71992158095363        0.90764321299178
h           -6.94351791040063        3.36384695941206        1.89824954148607
o           -3.81920560696520        1.96558870493842        2.54792652551072
h           -3.37930462247785        2.80448694680795        2.78302528469903
h           -3.77297741765414        1.41989770376590        3.34677089519641
o           -5.57673701150674       -4.64830487744371       -1.86816845617673
h           -4.73499631190113       -5.08142124116091       -1.64262131550225
h           -6.28964828066517       -5.02974931645457       -1.31630433247708
o          -11.84428962732185       -2.63311351080751        0.80654722337086
h          -11.91246285579689       -1.94264640946706        1.51033881917533
h          -12.50389677122497       -2.41506235483761        0.12894979073645
o            6.72354281710953       -3.19367002380051        2.23227008969635
h            6.23017493818250       -3.45816126136192        1.42860446005806
h            7.18872862645086       -2.35260085983251        2.02413733510631
o           -6.89249299463493        2.99825064503091       -3.32098491018878
h           -7.86384587971540        2.93518238508243       -3.33575220771852
h           -6.69439164491411        3.94714718859548       -3.31720027483987
o           -3.94903523672029        5.72906216877460       -4.29324011938584
h           -3.66093869184909        6.62327303081230       -3.99809154966861
h           -3.19455457631858        5.39772382201509       -4.80727503589529
o            2.26597131876984       -3.71192666431856        6.43028825711698
h            1.33501924924106       -3.46753480289221        6.25519155236170
h            2.38292282781954       -4.61879664728142        6.10484047451064
o           -9.50917418286700        1.97374846538154        4.14987863248656
h           -8.88209126014558        2.67390680162286        4.43629974561305
h           -9.47314701530923        1.28837961866777        4.82132823119116
o           -7.46745905509104        0.04109227858751        0.58013821017646
h           -6.71572786063431        0.68250533017902        0.52560672783549
h           -7.87984036573176        0.01363359363525       -0.30362042473125
o            6.21704004350140        5.53667618772350       -1.38973225346476
h            5.60141971281689        6.14380849969566       -1.81012899356146
h            7.11557569353802        5.76273924944987       -1.73611445002855
o           -1.55888981227091       -5.19256605824873        3.08006175674111
h           -1.62089478461818       -6.09503101282067        2.72431202794640
h           -1.34375643153001       -4.61397036192918        2.32484539620757
o          -11.49232392197574        2.22049591328892        0.15878954306792
h          -11.62936133866225        1.48026996966497       -0.46484982847260
h          -10.77555931737514        1.87593778195612        0.73880777465540
o            0.44156182913310       -1.49955154467591       -7.44191705096084
h            0.01291361430213       -1.07077986895610       -6.68094306766163
h           -0.09445255193678       -2.28262626732453       -7.65679918262452
o           -3.54068599520573       -3.71044931265547       -4.19974110666013
h           -4.07714229863469       -3.11047654751908       -3.62676982911880
h           -2.83781000521656       -4.09417377415470       -3.66060568107954
o           -2.12947026013426       -2.92885561546950       -1.84702580533836
h           -2.22122399972117       -2.12472584617438       -2.40182019226603
h           -1.18033198779215       -3.13594454715615       -1.87156239336183
o            3.32874340336881        4.16404054927245       -3.79351576894872
h            2.89870657156641        3.30688381009717       -3.70640443703068
h            3.13716904654252        4.50192683832465       -4.68145499786848
o            2.96168901722314       -2.14854365136456        4.42275682476936
h            2.17724901630145       -2.22564678441103        3.86194783319982
h            2.76032997350487       -2.64241295804489        5.25217210811885
o           -5.53359483100935        4.19129308154421        2.18914518069750
h           -5.23450183225826        3.87252784671845        3.05878537051500
h           -5.76858591360773        5.14511763945100        2.28469213353294
o           -3.07203129988586       -5.47779231078638       -1.30354152486132
h           -2.67747713579144       -4.60603011986579       -1.47031496928851
h           -3.13735295952572       -5.58990884288468       -0.32956951752365
o           -2.77686602587028        4.26284575830585        3.39498613052333
h           -3.15073159148440        5.15409328911843        3.40686838222079
h           -1.89910202900689        4.30792686362322        3.80001950094558
o            1.08965654590481        0.88723610278487        5.90115419020830
h            2.03963347076877        0.73051466032480        5.71690364640268
h            0.66885676034556        0.03390297385441        5.75416853944539
o           -3.59416057124426       -3.64111842978782        3.72420457427901
h           -2.88082312282551       -4.26234634765226        3.49627528332607
h           -4.31028484230434       -3.80453416222631        3.09698352717090
o           -9.47526576301284       -0.14639522331765       -6.35143890323194
h           -8.88862197173983        0.61057775995225       -6.21489965729977
h           -8.89945316073506       -0.77676697493391       -6.83291815206211
o           -6.51827111465376        5.75287499676524       -3.10428904949296
h           -5.65227242319856        5.93708482837452       -3.48864872853316
h           -6.55139420038110        6.17434088516267       -2.24022796755816
o           -6.31527723398703       -4.84219311025554       -4.41698950430476
h           -5.84444414916967       -5.61520723383782       -4.79907312455583
h           -5.98393453742788       -4.75221200350381       -3.49626082042711
o          -10.13052556721950       -1.28739642865902        4.76171627262197
h           -9.38730406447339       -0.90858527260391        5.26420496580269
h           -9.96858282324412       -2.24189171180397        4.71432167091904
o            2.78397202321140        5.20337617364579       -6.31555268186131
h            2.51509982865619        4.32626859782133       -6.65463235700296
h            3.70449011340840        5.32326421312321       -6.56163133143091
o            3.41136594160374        5.19671114616435       -0.71942096835438
h            2.80377204497408        4.44774178865161       -0.86462980188210
h            3.52475709248336        5.64245706240932       -1.57934288437297
o            2.16980559919156       -0.24512197775804       -5.22626116552295
h            2.28034891673603       -0.80989051286064       -5.99326375796270
h            2.78440362047111       -0.57807928046738       -4.55491105500849
o            2.16779050227863        2.62059532786883       -6.78274865761643
h            1.77309269769766        2.02269998023959       -7.45877137079694
h            2.86931593409340        2.10372305952297       -6.33179098725499
o            9.51367348194914       -2.20861076549137       -4.25958107520833
h            9.20204468646150       -2.03484425681332       -5.18603641115477
h           10.23465273615914       -1.58494970665317       -4.10614458044418
o            8.44567559243519       -1.65559930399830       -6.57404787977900
h            8.00583716024178       -0.78530959324123       -6.59836510422296
h            7.74038252126981       -2.31622911260707       -6.68509249797686
o           -4.10144290928017        5.41157189573014        5.93927863707092
h           -4.55102508956920        5.65427752091279        6.74752262758451
h           -3.25586743502993        4.94604670202055        6.21238449713340
o            8.37371546031112       -1.17602795619147        1.84254492055422
h            8.88696257449377       -1.24384519189949        2.67716637952028
h            8.81382778277904       -1.71481668160452        1.16981157666856
o            7.25684142183164        0.52101584046194        4.13380954807725
h            7.56803165906039        0.61885034548479        5.04825427873794
h            6.58795193598941       -0.18874470178881        4.14971920150126
o            4.51751550657832        1.51376900425693        2.76459129960926
h            4.21750574121199        1.06004781045208        3.58492135780135
h            5.13750525035737        2.22230676242066        3.03962206529304
o           -5.58694615685941        0.52138794552724       -7.33680988931227
h           -5.47847969332297        1.36384362806682       -7.82695546843794
h           -4.72351057236659        0.08483709032927       -7.30112741642295
o           -8.41011776513390       -3.59697094938361        1.18978523091519
h           -9.22555357927998       -4.12872752504869        1.29939940484561
h           -8.68657831748454       -2.77081145773210        0.75094448892959
o           -5.00148827147657       -0.67973782403575        1.92085756478870
h           -5.37891374856006       -1.56307023938312        1.92998875714149
h           -5.59176877881201       -0.11097641670383        2.45243842557018
o            0.77173497310089        5.74466222712693       -0.99231531453567
h            0.41304240047894        5.43463834999041       -1.83577406108241
h            0.01939997490026        6.16175643743019       -0.53919790297478
o           -4.74171880127749        1.19748293060113        7.42856726329938
h           -3.93820179002541        1.43953460984426        7.90433315925934
h           -4.41860709455457        0.96535786983704        6.53585892702243
o            8.49495662946309        1.70123445646428        2.20413599080692
h            9.08813398502944        2.37845729943368        2.60914239873163
h            8.14275470293911        1.13583287912057        2.93046562591989
o            1.70892499705090       -0.44349539835373        2.23780529338312
h            1.85207929586938        0.51154326234028        2.08724338775188
h            0.99696333240480       -0.53989987600977        2.90639315115313
o            9.92690802351047       -0.92180497177753       -1.39955239155368
h           10.19800417245898       -0.31320455794190       -0.67077509246722
h           10.38545653746778       -0.59620598238557       -2.21349197043892
o            7.97207065577446        3.15623658907345       -6.54446439852389
h            8.21848365261310        3.44978598363898       -5.64232802792129
h            7.09987614819413        3.55114945573495       -6.69448993250488
o            4.64109417691284       -3.45163083166779       -4.49294704485781
h            4.40473089994184       -2.52657249199218       -4.28480720916812
h            5.10414778315208       -3.79996196825046       -3.70985171821081
o          -11.32461348483573        0.08162902142657       -1.43110577532614
h          -10.61077414406356       -0.41426057526629       -0.96476035669253
h          -11.00314493286076        0.20239518852226       -2.34260820935952
o           -9.57856415212900        3.14832023970827       -3.65553249745039
h          -10.11111541782054        3.57137339925834       -2.96513902070304
h           -9.32035633478456        3.85419795781883       -4.29127235956840
o           -3.68459164505466        6.87274455416687        3.66084907355742
h           -3.85448998139188        6.56784272145462        4.56866028573325
h           -2.76568117690797        7.19206502424144        3.63191137064188
o           -3.18397692190000        5.90094551372769       -1.38714921670435
h           -3.85104449491151        6.62046917887208       -1.37434979709171
h           -3.42562782768018        5.23737968409147       -0.70953519807126
o            4.49511266915684       -4.68204268941358       -7.85208285080693
h            4.20629063495248       -5.30569849255263       -7.16738142423122
h            3.88616478645287       -3.92886393149179       -7.78359444996102
o           -6.15027752899505        6.71159879431759        2.43681094312009
h           -5.38375866501050        7.04517338296948        2.91995707529486
h           -6.90116146263068        6.62545690970947        3.08664582653032
o           -0.25705462235146        8.08788638502991       -2.90379908479392
h            0.08438285957127        7.33596125009090       -3.41708967627253
h            0.53791041519425        8.42898896178318       -2.44929332026177
o            6.43493241918611       -3.48318331684073       -6.46707755550378
h            5.93314298454067       -3.96661993238865       -7.15540701434230
h            5.75327724252778       -3.29315984437054       -5.78446352573421
o           -4.48294783448503       -0.49441068903022       -4.75052275596026
h           -4.81885109432090       -1.27725036780067       -5.21647908163039
h           -5.04482560155579       -0.38123955292977       -3.96001404180146
o           -1.98352484597463        1.55448138347985        7.57084075669938
h           -1.90650222092031        0.71748936213354        7.08214884573927
h           -1.16583125753765        1.60596722840330        8.09848742504624
o           -4.76613919631186       -6.77083965522143       -5.39691152599028
h           -4.32932730703781       -6.20418708329381       -6.05247767266872
h           -4.11461696245785       -6.98222190250990       -4.71395263995317
o           -4.98842723568814       -2.16631145091580       -2.65688488560185
h           -5.39637741484007       -2.93081189098786       -2.22094066794784
h           -4.64697214836769       -1.58423764881925       -1.96303999767484
o           -8.37022591573528        2.73526297343018       -0.78299742515556
h           -9.16472551202390        3.19714639237816       -1.05530720679143
h           -8.35732981443123        1.86295941516028       -1.25019697741043
o           -8.01131702903339       -2.84763749920473       -2.01405382184175
h           -7.74083609942796       -2.22554490082034       -2.70867684099679
h           -8.33612889269870       -3.64468001365720       -2.47392007297671
o            7.81987865699486       -2.06799024573782        6.03778730913174
h            6.90741351065027       -1.97466172059695        6.35704571161172
h            7.88485329646632       -3.00456349954542        5.78388781268785
o            0.63541785424762        3.47459972413665       -4.80878505935521
h           -0.19751729257485        3.78986604158710       -5.18293281474279
h            1.14864397983225        3.08069643478221       -5.54974437621084
o            6.37488329865718        0.85818778197964       -3.72108137036914
h            6.89841709348510        0.66947113108843       -2.90846271656160
h            6.04150548898672        1.76189432363684       -3.57251546485234
o          -10.92467181254086       -2.99984184988373       -2.16731925302225
h          -10.62814842405167       -2.80061276006755       -3.07151613883352
h          -11.85716928892672       -2.77761480780093       -2.11071363287426
o            3.74188596803903        4.40044656243943        2.78974788437551
h            2.95112029730347        4.78470238158933        2.33558551611149
h            4.26311102198108        5.12811612182820        3.14198103159608
o            0.54004594049626        1.23176287972075        8.50974458209067
h            0.77734907107984        1.17672922802644        7.55739440274737
h            0.47336463768244        0.31385543778156        8.79728731751332
o           -1.65064078855846       -0.96811297528125        6.46483044431202
h           -1.09861912127346       -1.49803067511732        5.85686319541729
h           -2.52871204799362       -1.39517077546015        6.43378445459233
o            2.68681858312501       -6.28033508062908        5.38271749580753
h            1.84635892540026       -6.76901688149030        5.38364639402094
h            3.03503120641885       -6.38546817867518        4.48839038968020
o           -0.54731321972211        3.34547196591718       -0.58354060106064
h           -0.81127876363191        3.70591890337581       -1.44470834776407
h           -0.64196560114057        4.06347808160261        0.05761196645512
o            2.69261020188733       -0.93517091103768        7.27490159295610
h            3.35496550633622       -1.63689246513396        7.21313694728638
h            1.88549939746886       -1.31523417297637        7.65346383453419
o           -1.38897675783479       -7.98678518650974       -0.87595681573142
h           -2.24461097515174       -8.12326257254779       -0.41757909235842