      -----------------------------------------------------------      
     |                   =====================                   |     
     |                           x T B                           |     
     |                   =====================                   |     
     |                         S. Grimme                         |     
     |          Mulliken Center for Theoretical Chemistry        |     
     |                    University of Bonn                     |     
      -----------------------------------------------------------      

   * xtb version 6.5.1 (579679a) compiled by 'ehlert@majestix' on 2022-07-11

   xtb is free software: you can redistribute it and/or modify it under
   the terms of the GNU Lesser General Public License as published by
   the Free Software Foundation, either version 3 of the License, or
   (at your option) any later version.
   
   xtb is distributed in the hope that it will be useful,
   but WITHOUT ANY WARRANTY; without even the implied warranty of
   MERCHANTABILITY or FITNESS FOR A PARTICULAR PURPOSE.  See the
   GNU Lesser General Public License for more details.
   
   Cite this work as:
   * C. Bannwarth, E. Caldeweyher, S. Ehlert, A. Hansen, P. Pracht,
     J. Seibert, S. Spicher, S. Grimme, WIREs Comput. Mol. Sci., 2020, 11,
     e01493. DOI: 10.1002/wcms.1493
   
   for GFN2-xTB:
   * C. Bannwarth, S. Ehlert and S. Grimme., J. Chem. Theory Comput., 2019,
     15, 1652-1671. DOI: 10.1021/acs.jctc.8b01176
   for GFN1-xTB:
   * S. Grimme, C. Bannwarth, P. Shushkov, J. Chem. Theory Comput., 2017,
     13, 1989-2009. DOI: 10.1021/acs.jctc.7b00118
   for GFN0-xTB:
   * P. Pracht, E. Caldeweyher, S. Ehlert, S. Grimme, ChemRxiv, 2019, preprint.
     DOI: 10.26434/chemrxiv.8326202.v1
   for GFN-FF:
   * S. Spicher and S. Grimme, Angew. Chem. Int. Ed., 2020, 59, 15665-15673.
     DOI: 10.1002/anie.202004239
   
   for ALPB and GBSA implicit solvation:
   * S. Ehlert, M. Stahn, S. Spicher, S. Grimme, J. Chem. Theory Comput.,
     2021, 17, 4250-4261. DOI: 10.1021/acs.jctc.1c00471
   
   for DFT-D4:
   * E. Caldeweyher, C. Bannwarth and S. Grimme, J. Chem. Phys., 2017,
     147, 034112. DOI: 10.1063/1.4993215
   * E. Caldeweyher, S. Ehlert, A. Hansen, H. Neugebauer, S. Spicher,
     C. Bannwarth and S. Grimme, J. Chem. Phys., 2019, 150, 154122.
     DOI: 10.1063/1.5090222
   * E. Caldeweyher, J.-M. Mewes, S. Ehlert and S. Grimme, Phys. Chem. Chem. Phys.
     2020, 22, 8499-8512. DOI: 10.1039/D0CP00502A
   
   for sTDA-xTB:
   * S. Grimme and C. Bannwarth, J. Chem. Phys., 2016, 145, 054103.
     DOI: 10.1063/1.4959605
   
   in the mass-spec context:
   * V. Asgeirsson, C. Bauer and S. Grimme, Chem. Sci., 2017, 8, 4879.
     DOI: 10.1039/c7sc00601b
   * J. Koopman and S. Grimme, ACS Omega 2019, 4, 12, 15120-15133.
     DOI: 10.1021/acsomega.9b02011
   
   for metadynamics refer to:
   * S. Grimme, J. Chem. Theory Comput., 2019, 155, 2847-2862
     DOI: 10.1021/acs.jctc.9b00143
   
   for SPH calculations refer to:
   * S. Spicher and S. Grimme, J. Chem. Theory Comput., 2021, 17, 1701-1714
     DOI: 10.1021/acs.jctc.0c01306
   
   with help from (in alphabetical order)
   P. Atkinson, C. Bannwarth, F. Bohle, G. Brandenburg, E. Caldeweyher
   M. Checinski, S. Dohm, S. Ehlert, S. Ehrlich, I. Gerasimov, C. Hölzer
   A. Katbashev, J. Koopman, C. Lavigne, S. Lehtola, F. März, M. Müller,
   F. Musil, H. Neugebauer, J. Pisarek, C. Plett, P. Pracht, F. Pultar,
   J. Seibert, P. Shushkov, S. Spicher, M. Stahn, M. Steiner, T. Strunk,
   J. Stückrath, T. Rose, and J. Unsleber
   
 * started run on 2022/11/24 at 12:04:43.998     

           -------------------------------------------------
          |                Calculation Setup                |
           -------------------------------------------------

          program call               : xtb solvent_cluster.coord --gfn2 --input xcontrol --opt 1
          hostname                   : cn0430
          coordinate file            : solvent_cluster.coord
          omp threads                :                     2

   ID    Z sym.   atoms
    1    8 o      1, 4, 7, 10, 13, 16, 19, 22, 25, 28, 31, 34, 37, 40, 43,
                  46, 49, 52, 55, 58, 61, 64, 67, 70, 73, 76, 79, 82, 85, 88,
                  91, 94, 97, 100, 103, 106, 109, 112, 115, 118, 121, 124,
                  127, 130, 133, 136, 139, 142, 145, 148, 151, 154, 157, 160,
                  163, 166, 169, 172, 175, 178, 181, 184, 187, 190, 193, 196,
                  199, 202, 205, 208, 211, 214, 217, 220, 223, 226, 229, 232,
                  235, 238, 241, 244, 247, 250, 253, 256, 259, 262, 265, 268,
                  271, 274, 277, 280, 283, 286, 289, 292, 295, 298, 301, 304,
                  307, 310, 313, 316, 319, 322, 325, 328, 331, 334, 337, 340,
                  343, 346, 349, 352, 355, 358, 361, 364, 367, 370, 373, 376,
                  379, 382, 385, 388, 391, 394, 397, 400, 403, 406, 409, 412,
                  415, 418, 421, 424, 427, 430, 433, 436, 439, 442, 445, 448,
                  451, 454, 457, 460, 463, 466, 469, 472, 475, 478, 481, 484,
                  487, 490, 493, 496, 499, 502, 505, 508, 511, 514, 517, 520,
                  523, 526, 529, 532, 535, 538, 541, 544, 547, 550, 553, 556,
                  559, 562, 565, 568, 571, 574, 577, 580, 583, 586, 589, 592,
                  595, 598, 601, 604, 607, 610, 613, 616, 619, 622, 625, 628,
                  631, 634, 637, 640, 643, 646, 649, 652, 655, 658, 661, 664,
                  667, 670, 673, 676, 679, 682, 685, 688, 691, 694, 697, 700,
                  703, 706, 709, 712, 715, 718, 721, 724, 727, 730, 733, 736,
                  739, 742, 745, 748, 751, 754
    2    1 h      2, 3, 5, 6, 8, 9, 11, 12, 14, 15, 17, 18, 20, 21, 23, 24,
                  26, 27, 29, 30, 32, 33, 35, 36, 38, 39, 41, 42, 44, 45, 47,
                  48, 50, 51, 53, 54, 56, 57, 59, 60, 62, 63, 65, 66, 68, 69,
                  71, 72, 74, 75, 77, 78, 80, 81, 83, 84, 86, 87, 89, 90, 92,
                  93, 95, 96, 98, 99, 101, 102, 104, 105, 107, 108, 110, 111,
                  113, 114, 116, 117, 119, 120, 122, 123, 125, 126, 128, 129,
                  131, 132, 134, 135, 137, 138, 140, 141, 143, 144, 146, 147,
                  149, 150, 152, 153, 155, 156, 158, 159, 161, 162, 164, 165,
                  167, 168, 170, 171, 173, 174, 176, 177, 179, 180, 182, 183,
                  185, 186, 188, 189, 191, 192, 194, 195, 197, 198, 200, 201,
                  203, 204, 206, 207, 209, 210, 212, 213, 215, 216, 218, 219,
                  221, 222, 224, 225, 227, 228, 230, 231, 233, 234, 236, 237,
                  239, 240, 242, 243, 245, 246, 248, 249, 251, 252, 254, 255,
                  257, 258, 260, 261, 263, 264, 266, 267, 269, 270, 272, 273,
                  275, 276, 278, 279, 281, 282, 284, 285, 287, 288, 290, 291,
                  293, 294, 296, 297, 299, 300, 302, 303, 305, 306, 308, 309,
                  311, 312, 314, 315, 317, 318, 320, 321, 323, 324, 326, 327,
                  329, 330, 332, 333, 335, 336, 338, 339, 341, 342, 344, 345,
                  347, 348, 350, 351, 353, 354, 356, 357, 359, 360, 362, 363,
                  365, 366, 368, 369, 371, 372, 374, 375, 377, 378, 380, 381,
                  383, 384, 386, 387, 389, 390, 392, 393, 395, 396, 398, 399,
                  401, 402, 404, 405, 407, 408, 410, 411, 413, 414, 416, 417,
                  419, 420, 422, 423, 425, 426, 428, 429, 431, 432, 434, 435,
                  437, 438, 440, 441, 443, 444, 446, 447, 449, 450, 452, 453,
                  455, 456, 458, 459, 461, 462, 464, 465, 467, 468, 470, 471,
                  473, 474, 476, 477, 479, 480, 482, 483, 485, 486, 488, 489,
                  491, 492, 494, 495, 497, 498, 500, 501, 503, 504, 506, 507,
                  509, 510, 512, 513, 515, 516, 518, 519, 521, 522, 524, 525,
                  527, 528, 530, 531, 533, 534, 536, 537, 539, 540, 542, 543,
                  545, 546, 548, 549, 551, 552, 554, 555, 557, 558, 560, 561,
                  563, 564, 566, 567, 569, 570, 572, 573, 575, 576, 578, 579,
                  581, 582, 584, 585, 587, 588, 590, 591, 593, 594, 596, 597,
                  599, 600, 602, 603, 605, 606, 608, 609, 611, 612, 614, 615,
                  617, 618, 620, 621, 623, 624, 626, 627, 629, 630, 632, 633,
                  635, 636, 638, 639, 641, 642, 644, 645, 647, 648, 650, 651,
                  653, 654, 656, 657, 659, 660, 662, 663, 665, 666, 668, 669,
                  671, 672, 674, 675, 677, 678, 680, 681, 683, 684, 686, 687,
                  689, 690, 692, 693, 695, 696, 698, 699, 701, 702, 704, 705,
                  707, 708, 710, 711, 713, 714, 716, 717, 719, 720, 722, 723,
                  725, 726, 728, 729, 731, 732, 734, 735, 737, 738, 740, 741,
                  743, 744, 746, 747, 749, 750, 752, 753, 755, 756

molecular fragmentation (1/2 indicates fragments):
111222222222222222222222222222222222222222222222222222222222222222222222
222222222222222222222222222222222222222222222222222222222222222222222222
222222222222222222222222222222222222222222222222222222222222222222222222
222222222222222222222222222222222222222222222222222222222222222222222222
222222222222222222222222222222222222222222222222222222222222222222222222
222222222222222222222222222222222222222222222222222222222222222222222222
222222222222222222222222222222222222222222222222222222222222222222222222
222222222222222222222222222222222222222222222222222222222222222222222222
222222222222222222222222222222222222222222222222222222222222222222222222
222222222222222222222222222222222222222222222222222222222222222222222222
222222222222222222222222222222222222
# atoms in fragment 1/2:     3   753
 fragment masses (1/2) :       18.02     4521.84
CMA distance (Bohr)    :  18.053
constraining FC (au)   :  0.0500

           -------------------------------------------------
          |                 G F N 2 - x T B                 |
           -------------------------------------------------

        Reference                      10.1021/acs.jctc.8b01176
      * Hamiltonian:
        H0-scaling (s, p, d)           1.850000    2.230000    2.230000
        zeta-weighting                 0.500000
      * Dispersion:
        s8                             2.700000
        a1                             0.520000
        a2                             5.000000
        s9                             5.000000
      * Repulsion:
        kExp                           1.500000    1.000000
        rExp                           1.000000
      * Coulomb:
        alpha                          2.000000
        third order                    shell-resolved
        anisotropic                    true
        a3                             3.000000
        a5                             4.000000
        cn-shift                       1.200000
        cn-exp                         4.000000
        max-rad                        5.000000


          ...................................................
          :                      SETUP                      :
          :.................................................:
          :  # basis functions                1512          :
          :  # atomic orbitals                1512          :
          :  # shells                         1008          :
          :  # electrons                      2016          :
          :  max. iterations                   250          :
          :  Hamiltonian                  GFN2-xTB          :
          :  restarted?                      false          :
          :  GBSA solvation                  false          :
          :  PC potential                    false          :
          :  electronic temp.          300.0000000     K    :
          :  accuracy                    1.0000000          :
          :  -> integral cutoff          0.2500000E+02      :
          :  -> integral neglect         0.1000000E-07      :
          :  -> SCF convergence          0.1000000E-05 Eh   :
          :  -> wf. convergence          0.1000000E-03 e    :
          :  Broyden damping             0.4000000          :
          ...................................................

 iter      E             dE          RMSdq      gap      omega  full diag
   1  -1290.9663196 -0.129097E+04  0.406E+00    8.44       0.0  T
   2  -1291.0417243 -0.754047E-01  0.241E+00    7.62       1.0  T
   3  -1291.0733885 -0.316642E-01  0.211E-01    6.14       1.0  T
   4  -1291.0786362 -0.524772E-02  0.452E-02    6.58       1.0  T
   5  -1291.0787275 -0.912454E-04  0.306E-02    6.51       1.0  T
   6  -1291.0787657 -0.382530E-04  0.381E-03    6.54       1.0  T
   7  -1291.0787677 -0.193520E-05  0.731E-04    6.54       5.0  T
   8  -1291.0787677 -0.259968E-07  0.385E-04    6.54       9.5  T
   9  -1291.0787677 -0.142925E-07  0.601E-05    6.54      60.5  T

   *** convergence criteria satisfied after 9 iterations ***

         #    Occupation            Energy/Eh            Energy/eV
      -------------------------------------------------------------
         1        2.0000           -0.6907000             -18.7949
       ...           ...                  ...                  ...
      1002        2.0000           -0.3482047              -9.4751
      1003        2.0000           -0.3432903              -9.3414
      1004        2.0000           -0.3430232              -9.3341
      1005        2.0000           -0.3406572              -9.2698
      1006        2.0000           -0.3363687              -9.1531
      1007        2.0000           -0.3270790              -8.9003
      1008        2.0000           -0.3251694              -8.8483 (HOMO)
      1009                         -0.0849228              -2.3109 (LUMO)
      1010                         -0.0718631              -1.9555
      1011                         -0.0638124              -1.7364
      1012                         -0.0583350              -1.5874
      1013                         -0.0521457              -1.4190
       ...                                ...                  ...
      1512                          0.5147108              14.0060
      -------------------------------------------------------------
                  HL-Gap            0.2402466 Eh            6.5374 eV
             Fermi-level           -0.2050461 Eh           -5.5796 eV

 SCC (total)                   0 d,  0 h,  0 min, 21.642 sec
 SCC setup                      ...        0 min,  0.042 sec (  0.194%)
 Dispersion                     ...        0 min,  0.118 sec (  0.544%)
 classical contributions        ...        0 min,  0.023 sec (  0.108%)
 integral evaluation            ...        0 min,  0.632 sec (  2.922%)
 iterations                     ...        0 min,  7.981 sec ( 36.876%)
 molecular gradient             ...        0 min, 12.778 sec ( 59.042%)
 printout                       ...        0 min,  0.068 sec (  0.314%)

         :::::::::::::::::::::::::::::::::::::::::::::::::::::
         ::                     SUMMARY                     ::
         :::::::::::::::::::::::::::::::::::::::::::::::::::::
         :: total energy           -1283.293531120432 Eh    ::
         :: gradient norm              0.103398714776 Eh/a0 ::
         :: HOMO-LUMO gap              6.537443061440 eV    ::
         ::.................................................::
         :: SCC energy             -1291.078767719522 Eh    ::
         :: -> isotropic ES            7.162230146188 Eh    ::
         :: -> anisotropic ES         -1.619778613903 Eh    ::
         :: -> anisotropic XC         -0.127956801502 Eh    ::
         :: -> dispersion             -0.795052730649 Eh    ::
         :: repulsion energy           7.629191836428 Eh    ::
         :: add. restraining           0.000000000000 Eh    ::
         :: total charge              -0.000000000000 e     ::
         :::::::::::::::::::::::::::::::::::::::::::::::::::::

      ----------------------------------------------------------- 
     |                       L-ANC optimizer                     |
      ----------------------------------------------------------- 
          low memory version by Sebastian Ehlert

          ...................................................
          :                      SETUP                      :
          :.................................................:
          :   energy convergence        0.1000000E-05 Eh    :
          :   grad. convergence         0.8000000E-03 Eh/a0 :
          :   optimization log               true           :
          :   writing optlog all                1     steps :
          :   Hessian reset                    20     steps :
          :   maximium step len.        1.0000000     a0    :
          :   LBFGS images                     20           :
          ...................................................
 * calculating model hessian...
Using Lindh-Hessian (1995)
 Shifting diagonal of input Hessian by   1.000004973271572E-002
 Lowest  eigenvalues of input Hessian
    0.010000   -0.000000   -0.000000   -0.000000   -0.000000   -0.000000
   -0.000000   -0.000000   -0.000000   -0.000000   -0.000000   -0.000000
   -0.000000   -0.000000   -0.000000   -0.000000   -0.000000   -0.000000
 Highest eigenvalues
    0.312046    0.326941    1.236376    1.237764    1.434723    1.460978
 

........................................................................
.............................. CYCLE    1 ..............................
........................................................................
   1  -1291.0806824 -0.129108E+04  0.309E-02    6.52       0.0  T
   2  -1291.0807181 -0.357405E-04  0.186E-02    6.51       1.0  T
   3  -1291.0807249 -0.682709E-05  0.337E-03    6.49       1.1  T
   4  -1291.0807259 -0.940879E-06  0.618E-04    6.50       5.9  T
   5  -1291.0807259 -0.172943E-07  0.117E-04    6.50      31.0  T
     SCC iter.                  ...        0 min,  3.889 sec
     gradient                   ...        0 min, 12.572 sec
 * total energy  : -1283.3008088 Eh     change       -0.7277706E-02 Eh
   gradient norm :     0.0200144 Eh/a0  converged?    E=F G=F D=F
   step length   :     0.5457613 a0

........................................................................
.............................. CYCLE    2 ..............................
........................................................................
   1  -1291.0752605 -0.129108E+04  0.356E-02    6.50       0.0  T
   2  -1291.0752804 -0.199125E-04  0.215E-02    6.50       1.0  T
   3  -1291.0752844 -0.403760E-05  0.239E-03    6.51       1.5  T
   4  -1291.0752851 -0.696768E-06  0.535E-04    6.51       6.8  T
   5  -1291.0752851 -0.657815E-08  0.883E-05    6.51      41.2  T
     SCC iter.                  ...        0 min,  3.686 sec
     gradient                   ...        0 min, 12.856 sec
 * total energy  : -1283.3042945 Eh     change       -0.3485690E-02 Eh
   gradient norm :     0.0445639 Eh/a0  converged?    E=F G=F D=F
   step length   :     0.7337518 a0

........................................................................
.............................. CYCLE    3 ..............................
........................................................................
   1  -1291.0814871 -0.129108E+04  0.258E-02    6.48       0.0  T
   2  -1291.0814998 -0.127174E-04  0.154E-02    6.47       1.0  T
   3  -1291.0815031 -0.331574E-05  0.202E-03    6.47       1.8  T
   4  -1291.0815035 -0.425068E-06  0.495E-04    6.47       7.3  T
   5  -1291.0815035 -0.790101E-08  0.750E-05    6.47      48.5  T
     SCC iter.                  ...        0 min,  3.562 sec
     gradient                   ...        0 min, 12.518 sec
 * total energy  : -1283.3063251 Eh     change       -0.2030576E-02 Eh
   gradient norm :     0.0441466 Eh/a0  converged?    E=F G=F D=F
   step length   :     0.6258359 a0

........................................................................
.............................. CYCLE    4 ..............................
........................................................................
   1  -1291.0935597 -0.129109E+04  0.334E-02    6.40       0.0  T
   2  -1291.0935807 -0.209551E-04  0.202E-02    6.39       1.0  T
   3  -1291.0935910 -0.102938E-04  0.277E-03    6.39       1.3  T
   4  -1291.0935915 -0.507014E-06  0.896E-04    6.39       4.1  T
   5  -1291.0935915 -0.305492E-07  0.936E-05    6.39      38.9  T
     SCC iter.                  ...        0 min,  3.237 sec
     gradient                   ...        0 min, 12.552 sec
 * total energy  : -1283.3063195 Eh     change        0.5588518E-05 Eh
   gradient norm :     0.0463286 Eh/a0  converged?    E=F G=F D=F
   step length   :     0.6361162 a0

........................................................................
.............................. CYCLE    5 ..............................
........................................................................
   1  -1291.0882279 -0.129109E+04  0.217E-02    6.40       0.0  T
   2  -1291.0882349 -0.703542E-05  0.132E-02    6.41       1.0  T
   3  -1291.0882389 -0.395734E-05  0.153E-03    6.42       2.4  T
   4  -1291.0882390 -0.109962E-06  0.437E-04    6.41       8.3  T
   5  -1291.0882390 -0.956061E-08  0.698E-05    6.41      52.1  T
     SCC iter.                  ...        0 min,  3.248 sec
     gradient                   ...        0 min, 12.581 sec
 * total energy  : -1283.3085330 Eh     change       -0.2213530E-02 Eh
   gradient norm :     0.0246995 Eh/a0  converged?    E=F G=F D=F
   step length   :     0.2558496 a0

........................................................................
.............................. CYCLE    6 ..............................
........................................................................
   1  -1291.0864334 -0.129109E+04  0.168E-02    6.41       0.0  T
   2  -1291.0864440 -0.105906E-04  0.102E-02    6.42       1.0  T
   3  -1291.0864475 -0.350335E-05  0.185E-03    6.42       2.0  T
   4  -1291.0864478 -0.330901E-06  0.566E-04    6.42       6.4  T
   5  -1291.0864478 -0.110354E-07  0.667E-05    6.42      54.5  T
     SCC iter.                  ...        0 min,  3.155 sec
     gradient                   ...        0 min, 12.677 sec
 * total energy  : -1283.3088075 Eh     change       -0.2744292E-03 Eh
   gradient norm :     0.0269839 Eh/a0  converged?    E=F G=F D=F
   step length   :     0.2252255 a0

........................................................................
.............................. CYCLE    7 ..............................
........................................................................
   1  -1291.0893102 -0.129109E+04  0.872E-03    6.41       0.0  T
   2  -1291.0893117 -0.146635E-05  0.530E-03    6.41       1.0  T
   3  -1291.0893123 -0.614165E-06  0.664E-04    6.41       5.5  T
   4  -1291.0893123 -0.379775E-07  0.215E-04    6.41      16.9  T
     SCC iter.                  ...        0 min,  2.513 sec
     gradient                   ...        0 min, 12.646 sec
 * total energy  : -1283.3095920 Eh     change       -0.7845310E-03 Eh
   gradient norm :     0.0147520 Eh/a0  converged?    E=F G=F D=F
   step length   :     0.1999604 a0

........................................................................
.............................. CYCLE    8 ..............................
........................................................................
   1  -1291.0874543 -0.129109E+04  0.122E-02    6.36       0.0  T
   2  -1291.0874575 -0.318444E-05  0.734E-03    6.35       1.0  T
   3  -1291.0874581 -0.545539E-06  0.957E-04    6.34       3.8  T
   4  -1291.0874582 -0.112083E-06  0.172E-04    6.35      21.1  T
     SCC iter.                  ...        0 min,  2.477 sec
     gradient                   ...        0 min, 12.657 sec
 * total energy  : -1283.3098918 Eh     change       -0.2997936E-03 Eh
   gradient norm :     0.0178308 Eh/a0  converged?    E=F G=F D=F
   step length   :     0.3543498 a0

........................................................................
.............................. CYCLE    9 ..............................
........................................................................
   1  -1291.0924597 -0.129109E+04  0.152E-02    6.33       0.0  T
   2  -1291.0924636 -0.394028E-05  0.910E-03    6.33       1.0  T
   3  -1291.0924646 -0.960950E-06  0.108E-03    6.33       3.4  T
   4  -1291.0924647 -0.129738E-06  0.264E-04    6.33      13.8  T
   5  -1291.0924647 -0.143655E-08  0.351E-05    6.33     103.7  T
     SCC iter.                  ...        0 min,  3.068 sec
     gradient                   ...        0 min, 12.737 sec
 * total energy  : -1283.3100728 Eh     change       -0.1810316E-03 Eh
   gradient norm :     0.0253308 Eh/a0  converged?    E=F G=F D=F
   step length   :     0.3009391 a0

........................................................................
.............................. CYCLE   10 ..............................
........................................................................
   1  -1291.0931328 -0.129109E+04  0.888E-03    6.38       0.0  T
   2  -1291.0931348 -0.200035E-05  0.539E-03    6.38       1.0  T
   3  -1291.0931359 -0.111416E-05  0.856E-04    6.39       4.3  T
   4  -1291.0931360 -0.413568E-07  0.256E-04    6.39      14.2  T
   5  -1291.0931360 -0.342106E-08  0.340E-05    6.39     107.0  T
     SCC iter.                  ...        0 min,  3.077 sec
     gradient                   ...        0 min, 12.758 sec
 * total energy  : -1283.3102128 Eh     change       -0.1399622E-03 Eh
   gradient norm :     0.0138399 Eh/a0  converged?    E=F G=F D=F
   step length   :     0.1573500 a0

........................................................................
.............................. CYCLE   11 ..............................
........................................................................
   1  -1291.0880735 -0.129109E+04  0.775E-03    6.36       0.0  T
   2  -1291.0880760 -0.254882E-05  0.452E-03    6.34       1.0  T
   3  -1291.0880765 -0.463612E-06  0.888E-04    6.33       4.1  T
   4  -1291.0880766 -0.657180E-07  0.197E-04    6.33      18.4  T
     SCC iter.                  ...        0 min,  2.481 sec
     gradient                   ...        0 min, 12.790 sec
 * total energy  : -1283.3103691 Eh     change       -0.1562917E-03 Eh
   gradient norm :     0.0129148 Eh/a0  converged?    E=F G=F D=F
   step length   :     0.0964983 a0

........................................................................
.............................. CYCLE   12 ..............................
........................................................................
   1  -1291.0901617 -0.129109E+04  0.521E-03    6.33       0.0  T
   2  -1291.0901625 -0.792484E-06  0.311E-03    6.33       1.2  T
   3  -1291.0901628 -0.286141E-06  0.527E-04    6.33       6.9  T
   4  -1291.0901628 -0.247826E-07  0.161E-04    6.33      22.6  T
     SCC iter.                  ...        0 min,  2.479 sec
     gradient                   ...        0 min, 12.810 sec
 * total energy  : -1283.3105060 Eh     change       -0.1369669E-03 Eh
   gradient norm :     0.0073160 Eh/a0  converged?    E=F G=F D=F
   step length   :     0.0674227 a0

........................................................................
.............................. CYCLE   13 ..............................
........................................................................
   1  -1291.0907680 -0.129109E+04  0.373E-03    6.33       0.0  T
   2  -1291.0907683 -0.253678E-06  0.230E-03    6.33       1.6  T
   3  -1291.0907684 -0.966440E-07  0.248E-04    6.33      14.7  T
   4  -1291.0907684 -0.667160E-08  0.679E-05    6.33      53.6  T
     SCC iter.                  ...        0 min,  2.440 sec
     gradient                   ...        0 min, 12.811 sec
 * total energy  : -1283.3105880 Eh     change       -0.8196480E-04 Eh
   gradient norm :     0.0054341 Eh/a0  converged?    E=F G=F D=F
   step length   :     0.0826324 a0

........................................................................
.............................. CYCLE   14 ..............................
........................................................................
   1  -1291.0902761 -0.129109E+04  0.856E-03    6.31       0.0  T
   2  -1291.0902773 -0.123251E-05  0.531E-03    6.31       1.0  T
   3  -1291.0902778 -0.509416E-06  0.537E-04    6.30       6.8  T
   4  -1291.0902778 -0.307311E-07  0.163E-04    6.30      22.3  T
     SCC iter.                  ...        0 min,  2.436 sec
     gradient                   ...        0 min, 12.798 sec
 * total energy  : -1283.3107024 Eh     change       -0.1144239E-03 Eh
   gradient norm :     0.0031199 Eh/a0  converged?    E=F G=F D=F
   step length   :     0.1532443 a0

........................................................................
.............................. CYCLE   15 ..............................
........................................................................
   1  -1291.0900556 -0.129109E+04  0.213E-03    6.29       0.0  T
   2  -1291.0900557 -0.112613E-06  0.128E-03    6.29       2.8  T
   3  -1291.0900558 -0.215264E-07  0.181E-04    6.29      20.1  T
   4  -1291.0900558 -0.373643E-08  0.335E-05    6.29     108.5  T
     SCC iter.                  ...        0 min,  2.420 sec
     gradient                   ...        0 min, 12.773 sec
 * total energy  : -1283.3107273 Eh     change       -0.2486695E-04 Eh
   gradient norm :     0.0024962 Eh/a0  converged?    E=F G=F D=F
   step length   :     0.0413036 a0

........................................................................
.............................. CYCLE   16 ..............................
........................................................................
   1  -1291.0899555 -0.129109E+04  0.156E-03    6.28       0.0  T
   2  -1291.0899555 -0.201178E-07  0.941E-04    6.28       3.9  T
   3  -1291.0899555 -0.634600E-08  0.745E-05    6.28      48.8  T
     SCC iter.                  ...        0 min,  1.821 sec
     gradient                   ...        0 min, 12.832 sec
 * total energy  : -1283.3107393 Eh     change       -0.1197944E-04 Eh
   gradient norm :     0.0011361 Eh/a0  converged?    E=F G=F D=F
   step length   :     0.0413062 a0

........................................................................
.............................. CYCLE   17 ..............................
........................................................................
   1  -1291.0901295 -0.129109E+04  0.962E-04    6.28       0.0  T
   2  -1291.0901295 -0.305993E-07  0.572E-04    6.28       6.4  T
   3  -1291.0901295 -0.488080E-08  0.999E-05    6.27      36.4  T
     SCC iter.                  ...        0 min,  1.818 sec
     gradient                   ...        0 min, 12.740 sec
 * total energy  : -1283.3107418 Eh     change       -0.2552407E-05 Eh
   gradient norm :     0.0004409 Eh/a0  converged?    E=F G=T D=F
   step length   :     0.0202949 a0

........................................................................
.............................. CYCLE   18 ..............................
........................................................................
   1  -1291.0901408 -0.129109E+04  0.849E-04    6.27       0.0  T
   2  -1291.0901408 -0.117450E-07  0.518E-04    6.27       7.0  T
   3  -1291.0901408 -0.290129E-08  0.566E-05    6.27      64.3  T
     SCC iter.                  ...        0 min,  1.803 sec
     gradient                   ...        0 min, 12.693 sec
 * total energy  : -1283.3107429 Eh     change       -0.1102098E-05 Eh
   gradient norm :     0.0003798 Eh/a0  converged?    E=F G=T D=F
   step length   :     0.0197361 a0

........................................................................
.............................. CYCLE   19 ..............................
........................................................................
   1  -1291.0902134 -0.129109E+04  0.480E-04    6.27       0.0  T
   2  -1291.0902134 -0.638397E-08  0.284E-04    6.27      12.8  T
   3  -1291.0902134 -0.106411E-08  0.462E-05    6.27      78.7  T
     SCC iter.                  ...        0 min,  1.783 sec
     gradient                   ...        0 min, 12.695 sec
 * total energy  : -1283.3107433 Eh     change       -0.3308385E-06 Eh
   gradient norm :     0.0005532 Eh/a0  converged?    E=T G=T D=F
   step length   :     0.0082104 a0

   *** GEOMETRY OPTIMIZATION CONVERGED AFTER 19 CYCLES ***

------------------------------------------------------------------------
 total energy gain   :        -0.0172121 Eh      -10.8008 kcal/mol
 total RMSD          :         0.0929196 a0        0.0492 Å
 total power (kW/mol):        -2.3784456 (step)   -0.1414 (real)
------------------------------------------------------------------------

 L-ANCopt (total)              0 d,  0 h,  5 min, 19.589 sec
 setup                          ...        0 min,  0.030 sec (  0.009%)
 model hessian                  ...        0 min,  7.750 sec (  2.425%)
 ANC generation                 ...        0 min,  2.556 sec (  0.800%)
 coordinate transformation      ...        0 min,  0.002 sec (  0.000%)
 Rational function              ...        0 min,  0.000 sec (  0.000%)
 singlepoint calculation        ...        5 min,  9.114 sec ( 96.722%)
 optimization log               ...        0 min,  0.131 sec (  0.041%)
 hessian update                 ...        0 min,  0.000 sec (  0.000%)

================
 final structure:
================
$coord
       10.91579153703600      -14.32150687540900       -1.23643468787800      o
       11.32108423309800      -13.86355049156900       -2.95801570857400      h
        9.10461715021500      -13.95155180610000       -1.08852814744900      h
        0.93308937046900        5.21561515171700        9.70534719897100      o
       -0.09460291680000        3.83704631128700        9.09095772993000      h
        1.08690834901000        6.46842221508200        8.38537798374000      h
        0.34303769534600       -0.67772964847400       -6.13331957045900      o
        1.41116869572200       -1.07771076727700       -7.58077919353500      h
        1.05116420176500        0.77192533197700       -5.24636882185800      h
      -10.14243120934600        0.29173425082600        3.38827696413100      o
       -9.46526369443800       -1.43323799741500        3.47613065308200      h
       -9.76454017657500        1.04360105477700        1.72404288064100      h
       -5.60473735398200        5.22384898663300        1.83803282023100      o
       -4.11839952004000        5.90315367822100        0.96851920205300      h
       -6.24251334363800        6.43974170035200        3.04470225723600      h
       -7.06134221659500       -7.95503330906500        0.19824575644100      o
       -6.94627281244100       -6.92482545092700       -1.36135932598500      h
       -7.74918089658700       -6.86622309337300        1.52841389783100      h
       -2.75642207698000       -7.43151154643300       -2.84160915115700      o
       -2.05211056253600       -8.67687853971700       -1.69221238153700      h
       -1.37956443574300       -6.28160799710100       -3.24462916868300      h
        0.05411671771400      -10.21184017147700        0.41164941913800      o
        0.16836738846300       -9.74242079808900        2.19546163642800      h
        1.58569987852500       -9.52176193474400       -0.37838693805600      h
       -3.07920127047800       -6.67616595467500        3.09352753669000      o
       -4.24109985395100       -7.10700184490200        1.73183838285100      h
       -3.15671742035900       -8.16215421728400        4.19156041342400      h
       -0.55950470452900        6.32833945680100       -6.33269594634500      o
        0.94212067861700        5.49574492543400       -7.01615834493700      h
       -0.08098795212800        7.86595616939400       -5.46207497106000      h
       -8.00301292803100       -0.09732848478800       -4.50495096784800      o
       -6.56868444233600        0.64062860108500       -5.35673808243400      h
       -8.65283208050200        1.15746230100700       -3.34350875640400      h
       -4.06725000050100        2.49441510733100       -6.96489556051600      o
       -5.43938045108000        3.68809812538100       -7.31012898041000      h
       -2.73527340762900        3.52212993619600       -6.25710817505700      h
       -7.61175988287900       -5.22252644189600       -3.79881315724000      o
       -6.24614686844300       -4.26967705736300       -4.57834537183200      h
       -8.09162464804300       -6.49249690850300       -5.06570848320300      h
       -9.32987630893300        3.08460944410200       -0.62735181988000      o
      -10.63144078073200        4.37145512602000       -0.74238832655100      h
       -7.84878185033900        3.96376263125900        0.05350463510100      h
       -1.51835632638500        6.37124562249700       -0.88045083210900      o
       -1.89841158367200        7.93768525370900       -1.73282933057300      h
       -0.12287482629200        6.76589778215300        0.27678450185100      h
        2.81114201203600        3.47291073127400       -8.70983695557900      o
        1.52845868452500        2.61318600425100       -9.75086424575400      h
        3.75839034409800        2.17596585386200       -7.82998162147000      h
       -2.11221572238400        0.72366490219200        8.31131166218300      o
       -1.24910638223600       -0.78864766203300        7.68919913093000      h
       -3.43031027656000        0.99221467755400        7.08467961302800      h
       -3.89871058915100       -1.62970282698800       16.87494590262600      o
       -4.39540725068200       -3.33439268308700       16.34531141153000      h
       -5.47331495140200       -0.73838027979500       17.11237595564900      h
       -3.95259090422700      -10.98584989234000        5.43513951336500      o
       -3.61507914909300      -12.38745190108900        4.27834016469300      h
       -5.78204271324900      -10.68479893769400        5.29602924736400      h
       -2.09695965280100        1.71881740647700       13.49635894293700      o
       -2.04444297285200        1.03217103036500       11.79269987395200      h
       -2.73588399773600        0.41773009785000       14.64337283729800      h
       -8.90224157137800       -4.59604415711300        3.46508786148500      o
      -10.56108217065100       -5.19554478418100        4.04467247232100      h
       -7.75496180410300       -4.90951496630800        4.89166364688500      h
        8.77676448096100        1.25712694438200        4.58559632626700      o
        9.81598641294600        2.70375696548300        5.09862056752000      h
        8.24567683955300        0.40245046187400        6.10945845802200      h
        1.48877624956900       -4.73647237959500       -3.70176817915400      o
        2.04699329181300       -6.06553960746500       -4.83910161937000      h
        1.05698208857300       -3.22385371567200       -4.70177357110900      h
       -0.65206883228500       10.79843430838300       -3.63592164636900      o
       -2.13011131657500       11.12386673059200       -4.69294458817100      h
        0.46828772555300       12.22528189741200       -3.96440250626000      h
        2.07222020594800        4.47483945228500       14.55740221546900      o
        1.98199290366300        4.82065634245100       12.74010886314400      h
        0.61396381394000        3.38565349387800       14.78955315294500      h
       -7.66794121973400        1.96335169221000        7.65107866785500      o
       -9.11789409563800        2.68978783461000        8.55755105860000      h
       -8.29242845318000        1.22149907046300        6.09001178244100      h
      -14.14958660903200        0.91501835415200       -1.60997973646900      o
      -13.08982461264500       -0.58212566938300       -1.39071929224600      h
      -13.32775479449000        1.88984961315200       -2.92963890190600      h
        3.72718397234200        2.05723221950200        6.81342906855100      o
        3.21938872505600        1.27927714448700        8.40781044011600      h
        4.25457709256100        0.64158885153200        5.75880758084700      h
       -3.96230151934300       -3.08666945287900       -6.65898093636900      o
       -3.02994559894700       -4.36716746993200       -7.61675476947000      h
       -2.73228524653500       -1.75143994188300       -6.39038982967600      h
        5.01539509690900       -1.56548030824300       -0.96733937924700      o
        6.81911242406800       -1.90998373664100       -0.75173583800600      h
        4.31991938315700       -2.83956168581400       -2.07474016135900      h
       -3.71977282054800       -9.92628295252100       -7.05030907979700      o
       -3.78449989347600      -11.67985895501300       -6.45087326201400      h
       -3.31602927533200       -8.90423546204500       -5.54043158165900      h
      -10.70376744533600       -3.13918145311100       -7.63368929817600      o
       -9.58725658184900       -2.22056509042000       -6.48337817445100      h
      -11.95730198894000       -1.89166228269100       -8.14782895527300      h
        2.55261572766800       -0.90112054134800       10.66532799992200      o
        0.83994713794000       -1.53675984659700       10.96460391552000      h
        3.43936152736400       -2.30688572634400        9.85678899184000      h
        5.13978942632600       -6.87082546990000        3.49494550465000      o
        3.78563030731900       -7.82807104844200        4.30356210223400      h
        6.74719569166700       -7.74782647141700        3.72612258886600      h
       -0.12030455447000       -3.33948861162300        6.19879347328700      o
       -1.30619689723600       -4.33347453101100        5.23839437885100      h
        1.26236761383100       -2.83322525952800        5.08064093116900      h
        6.23793064085900        6.29299288030600        7.81117128124500      o
        5.32753334771000        4.69237348388700        7.60484809362400      h
        6.70596787586800        6.83658562671400        6.10267829120200      h
       -7.90276577058500        8.56219572435900       -2.79530779497200      o
       -9.32773355586000        8.18334742029500       -1.67525254864500      h
       -6.63727485493200        9.39771927860200       -1.74316860460000      h
      -12.12280062469000        7.42523539050000       -0.28049442997600      o
      -13.27573604636800        8.34467850886100       -1.38266546034100      h
      -12.39163309436200        8.13637900766900        1.39808582836700      h
       -1.66895986233400       -7.55684188961600        8.98568942663900      o
       -3.26639048114000       -7.10032609621200        8.17716008639500      h
       -2.12195549105800       -8.73294257750200       10.34133335283500      h
       -8.84834168044200      -10.11331573677200        4.63934693754600      o
       -9.59524387896000      -11.67068024351600        4.00276574828600      h
       -9.60307431558900       -9.76890683794700        6.25620276370200      h
        0.98018269473600       -4.59757787778000        1.21902418236900      o
        1.30938303225700       -4.99343426567500       -0.53686196436300      h
       -0.46632766173700       -5.60265435461100        1.76628916008200      h
       -0.13054011183300        3.60920171966600        4.06752197382800      o
       -1.54541804914300        4.14754267388600        5.09853350935800      h
        1.23433679255200        3.08031765556200        5.20705000589000      h
        0.03157250370100       -2.87969223620800      -14.15317600533300      o
       -0.74520166229400       -2.29780078305000      -15.67806450866800      h
       -0.27125907677900       -1.57781938022100      -12.89334934025700      h
        3.72459475696300       -5.47643736108400        8.75344082302400      o
        2.17058968104600       -5.19803207794700        7.80244835804200      h
        3.24995372495800       -6.34473680501700       10.30270321045200      h
       -8.38446583645700        7.85094671585100        5.46610614825000      o
       -9.87534639243600        6.81273502682300        5.11250348059200      h
       -8.49454975257300        8.15149926586000        7.28039792828600      h
      -12.21280470990000        4.59273650421000        5.04053967511800      o
      -11.32273448617200        3.08557753010800        4.50979880654700      h
      -13.52446357747900        4.86689494480500        3.75892813062300      h
      -13.77332634078000       -5.62921293934700        4.03530287015700      o
      -14.58464100384800       -6.16444512411600        2.45602416834800      h
      -14.23613688615400       -3.83510887108000        4.20518514873400      h
        3.42562114611700      -11.96000465609600       10.47887025341900      o
        3.22634625871900      -10.65229689631800       11.74652606349700      h
        1.71433049976500      -12.45853714008800       10.01549298679200      h
       10.99739285263300      -12.56839163572500        8.60459260532100      o
       10.71711648966200      -13.13376766492200       10.29888580114000      h
        9.80289796995400      -11.18135657983500        8.32763845804700      h
        1.78630576094700        3.10897728258400       -3.12695287964600      o
        0.45274937211000        4.29714173470000       -2.66281558054900      h
        3.34459650136900        4.08839429891600       -3.17778297427200      h
        6.56472312812500       -5.26516141434300       -4.63249599406400      o
        6.70242766006200       -6.43358529710800       -6.05094923806800      h
        8.06480077186200       -5.60503884312800       -3.64261043851400      h
      -15.19530811679200       10.18954498800600       -3.44639482127400      o
      -13.73793130755500       10.91891975838100       -4.32319703836100      h
      -15.81334354503400        8.89064028639500       -4.61032745927100      h
       14.48567574785800        1.75683252866900        3.08058369779500      o
       14.58180556870500        0.99687156568300        1.39908700045000      h
       13.95669971740700        0.43329071510000        4.26868295890100      h
        1.50559092354000        4.53405983318300      -15.99285937097900      o
       -0.10387650085300        3.69133859606900      -16.18387584171700      h
        2.57824438846800        3.35070365929900      -15.08694103030800      h
      -15.94222267563000       -5.80992082161700       -0.47222991063500      o
      -17.02397719716800       -4.35204851149500       -0.21541924817400      h
      -14.35532688744000       -5.12113023261800       -1.10558476605700      h
       -4.00430967498500        5.37291512980000        7.11178057178800      o
       -3.80557417187600        5.75216039895600        8.91852229459000      h
       -5.50308370922800        4.30504895826400        7.03962750988200      h
        4.43732215552900       -8.45024296716800       -1.13587280734600      o
        5.04038464767000       -7.34892399647000       -2.47932296316000      h
        4.80431826265600       -7.62318468408900        0.49701535058400      h
       -7.11855608175600      -15.60521381058600        6.25675582110200      o
       -8.66596932094200      -15.54633028883400        5.29300962044400      h
       -5.77395681552900      -15.74965590169200        5.02609460467000      h
        5.54173954186900       -0.24312719616900       -6.08817367019900      o
        6.30227369596300        0.64027759828500       -4.66130609240500      h
        5.82929194255200       -2.02756143489600       -5.78075444417200      h
        7.95558815395800       -2.56736097031100      -14.40472106473400      o
        8.13881561293800       -2.89536911979200      -12.58841964259800      h
        6.78898095753400       -3.86238645931200      -14.95708583055900      h
       -6.28050458498500       -5.73477275270700        7.61627019876100      o
       -6.43026758084800       -4.20479151976400        8.62275537784800      h
       -7.60494498724300       -6.85876513231100        8.21115703195600      h
       -1.65583479286300      -11.26426111658700      -11.59751308134400      o
       -2.33603375719500      -10.80016458322500       -9.94762927586900      h
       -2.40454182914100      -10.05256648008600      -12.74505670500700      h
        5.20410574596500        2.91794622146100        1.42397235965900      o
        5.08246584821100        1.48275339117900        0.29856499975100      h
        6.47151180154600        2.45492366225300        2.68553519986900      h
       -3.98620083523600      -14.58607437250800       -5.28161307347200      o
       -5.22030315493900      -15.45711018969300       -6.35207785667100      h
       -4.83027573369300      -14.13085820014300       -3.70046432683100      h
        7.21629703041300       -9.15091003929400        8.32990280005600      o
        6.25041406219900       -7.60642222494600        8.02839816265000      h
        5.97962229650600      -10.29338663891200        9.06794782564900      h
       -5.38443606817100       -2.22558914927700      -15.27465043244700      o
       -5.71386327258300       -1.87589525407800      -13.47212996510800      h
       -7.01143232647600       -2.71378534897700      -15.94426834063100      h
       -8.50224361644000       -8.68143510588500       -7.28765132367900      o
       -8.75848208405600       -7.72812630289500       -8.84801978735800      h
       -6.70477670450200       -9.19275053731500       -7.32865893028000      h
       -1.05362595947500        1.22806302409900      -11.00038481434400      o
       -1.78736626570100        1.87547592275600      -12.56827757904800      h
       -2.31964830726100        1.44553516245200       -9.67752242074800      h
      -19.84677244199800        9.67464089367700        4.25207715955100      o
      -18.94630045402900       11.21200646055700        4.57012558702900      h
      -19.35223611933000        9.13609220528500        2.54990692702900      h
        7.22579954626200       -4.28531041564400       13.43712173251700      o
        6.36304659614400       -2.93120856062500       14.32971550383700      h
        9.00121295121400       -4.04612943742100       13.76063545115300      h
       -3.81792335634400        6.17990848265100       12.03945860315300      o
       -3.16522610325300        4.55674680181800       12.65973590758600      h
       -2.49240582427900        7.41315091638700       12.37093881282800      h
        9.78236311477200       -1.85357081349300        0.64327170162200      o
        9.50689346779600       -0.60881310867400        1.97708929442700      h
       11.14285717946400       -1.19245408863600       -0.38944127436600      h
        7.41455329316300        7.85840299902500        3.18941635738500      o
        8.51489516745300        6.56106729605100        2.46032551285400      h
        5.73525790091600        7.72377333920200        2.42186229808900      h
       -9.57191794598300        2.69769868361300      -10.79633639737300      o
       -8.54195861024000        1.22553939392600      -10.33275713926200      h
       -8.46506602267800        3.70670222545100      -11.87095996377500      h
        9.16150302244700      -14.27562774258300        4.05859528808900      o
       10.09342285513200      -15.10560934912400        2.73787777483100      h
       10.18015030634500      -14.20661519072100        5.57952583582300      h
       -8.15931978785300        9.80368544729200      -10.78875965815300      o
       -8.33174207977100       11.42035506590000       -9.99114643361700      h
       -9.83875921520100        9.05968795031000      -10.85814144697000      h
        8.70278110816800        2.29303254886700       -3.12568836026700      o
        9.82512922513000        1.00809664326800       -3.82787183523300      h
        8.65987736056500        3.67544861678300       -4.33963580615700      h
      -14.99636493053400      -10.85230445578900        3.18823015335200      o
      -14.85464804818000      -10.42073171341500        4.95403760244700      h
      -16.62333537423700      -10.17023067128800        2.67826378423700      h
      -18.60701042954900       -1.45490268421600        0.13702491051900      o
      -19.34950001423000       -0.32167445309300        1.36445726844000      h
      -17.07227074005400       -0.63931225351600       -0.45046997956800      h
      -13.36998600790200       -6.43946217851500       -5.05642638631100      o
      -12.11282893297400       -5.39405370839300       -5.94864220828400      h
      -12.53937522504300       -7.34290218668900       -3.69836764017400      h
      -15.18113752469300       13.17139005765300        0.91136887420300      o
      -13.40803723066300       13.50658998177700        0.50772872231900      h
      -15.82987781126500       12.43325106940500       -0.62290378464100      h
      -10.21720704835300       12.92467954046200       -0.16404136904900      o
       -9.30548654868500       13.11497506412100        1.42023628056100      h
       -9.19326463310200       13.66308846850300       -1.47388750057000      h
       -4.51167173906900       10.73981605710000        0.21507975059200      o
       -4.26488273910300       10.44395846696100        2.00727948476100      h
       -4.65731606116300       12.56286421321300       -0.02340393406200      h
        0.19655658030400       16.17314965631700        8.26458853522900      o
        1.75207024920200       15.29829487646500        7.81024310341700      h
        0.66444302066200       17.71362681571000        9.08578404465100      h
        1.41889075997000        9.17800454671800        6.16852566982900      o
        2.32011574930500       10.77188487899100        6.24468021169300      h
       -0.35561492079200        9.56322884660600        5.75825158889100      h
        0.68119815447100        8.76929518381000      -13.31968276055600      o
        0.67051894822500        7.49059410527200      -14.65365256417100      h
        2.29364025581900        8.40212495506700      -12.48945872749700      h
        4.47606546207200        1.02545472532200      -13.35121462985800      o
        5.65638223910100        1.78994375873200      -12.15463383895200      h
        5.53427800676800       -0.11002110370400      -14.33577966521100      h
       10.58392374683700        4.65960950306100        0.85664386825700      o
        9.89890069255800        3.71328144977400       -0.58667076038000      h
       11.71801383755600        3.53671005855400        1.74352723376700      h
       12.24499601381200        7.62679090575400       -9.17582406980200      o
       13.01958096744400        9.09930445915200       -8.39055978955000      h
       11.28897479287000        8.20799376847800      -10.65749360847400      h
       -3.86375479910100       11.82533331591000       -7.43966718694600      o
       -2.37788538400200       12.59512660105600       -8.20341493944800      h
       -4.16894595754200       10.35023329328200       -8.51463371649800      h
      -11.87928198445300       -9.22243759151700       -0.81206739155800      o
      -10.15404877488500       -8.89615986030800       -0.22682205864300      h
      -12.91801978320100       -9.55890213914300        0.65995479265300      h
        1.64089575164300      -14.84854532789300        0.87686014266800      o
        2.35424856124800      -14.91233137947000        2.55938243056800      h
        0.93582993740100      -13.11408407326500        0.71095360787000      h
       19.24586259281100       -4.27759117672600       -2.53491861366100      o
       18.43698924156300       -3.10269539700200       -3.71096362530800      h
       19.39031088486300       -5.87239420170900       -3.44509523557400      h
        1.29183002005800       -9.51145277916900        5.29244670472000      o
        1.99360389541300      -11.15595739280300        5.67669200505700      h
        0.24045038046400       -8.96018308477600        6.70770420671500      h
        6.78676380236000       16.07242728948700       -4.24360509954600      o
        7.73814397731300       14.81250782280400       -5.20302123507700      h
        7.41846356606500       15.94950453747800       -2.54290719200600      h
       -9.79607600674300       -4.87664659607600       12.96790172559600      o
       -8.56629930205200       -3.81085201979400       12.10501458585000      h
      -11.22708896939400       -3.76891174669900       13.23986036115800      h
      -12.82352677569700       -0.11887380837200      -13.47585176411400      o
      -13.91340532319900       -0.75698108701800      -12.17027174467000      h
      -11.65459069783200        1.03153028873500      -12.60853936637400      h
       -7.47695814763500       14.45773470103400       -4.76298355243000      o
       -9.02740821138100       13.76377238167800       -5.42307283404400      h
       -6.13793318934400       13.58720700885700       -5.67475158853200      h
      -11.01873700544100       10.77449747538300       -6.17264154737100      o
       -9.83661454065500       10.00052851137300       -4.96557075147200      h
      -11.52737128840300        9.45077672158500       -7.33095771141000      h
        7.52681849310800       -1.29571832943100        9.00742290683500      o
        7.30815029164300       -2.66773670867900       10.19564067530000      h
        7.97850284175100        0.15791196980000       10.03921488104000      h
       -6.69051641429200       -1.41246352611600      -10.48266907425300      o
       -7.80231964805100       -2.89014056802100      -10.52662229117700      h
       -5.60345538676400       -1.75281777130800       -9.01741464627600      h
        3.14465614074200      -10.24442105297600      -11.17104449594100      o
        4.16614896547100      -11.63176335657400      -11.71848441484400      h
        1.34232930436200      -10.72064068531600      -11.45100452237900      h
        2.04139864211100       -8.92542712417400       -6.41986714395100      o
        2.83891704095500       -9.42693027020900       -8.00077992485900      h
        1.52634198793800      -10.47348172066200       -5.57822452914900      h
       -7.96704913038000       12.82174291692000        4.50099669135400      o
       -6.22562562703500       13.37835162436900        4.36404444306600      h
       -7.90805990472800       10.97665030012800        4.70109745305400      h
      -14.30066920109200        0.32914035799600       -8.31921514087700      o
      -13.29859763153800        1.53171908690900       -7.31612037675200      h
      -15.35688040053000       -0.57800187634700       -7.08603082585200      h
      -18.66918059479700        7.81947131458400       -0.30711167785300      o
      -17.45378065603200        6.52749862078400        0.28564882512100      h
      -17.77858747634000        8.86094211890400       -1.50068603477000      h
        8.53458753726500       13.92525286026100        0.30131014246500      o
       10.19337794881800       13.74407139887300       -0.47466645996800      h
        8.77872375676200       13.46709171422100        2.08052099385400      h
      -12.04944139493100        3.73922426693100       -5.38704241278200      o
      -10.48605852753400        4.41595999287600       -6.07824512527200      h
      -13.39365469653800        4.98050072219700       -5.64074132796300      h
        4.44791552569700        9.87671053608800       10.74940272943700      o
        4.54121496150500       11.40675477608400        9.78221772303700      h
        4.78158992886400        8.48730034223300        9.54622452994300      h
        8.00950596044100        2.00834488938500       -9.84971206944900      o
        8.15868587947300        3.59218569993000       -8.92164643941800      h
        7.34978171605500        0.80880547607100       -8.60297002293700      h
       -3.37601741087700      -10.30692936899800       12.80661678999600      o
       -2.27739239664200      -11.57600293160700       13.47738291343100      h
       -4.77124739279200      -11.22917031090900       11.95286522875200      h
        9.92480344525800        8.82722416530100       -2.60877563427400      o
       10.25026743137100        9.33416095638700       -0.89036229731400      h
        8.44965970004100        7.69358014987300       -2.56548401607400      h
      -11.37851026119300       -3.29723384391100       -1.08711898126500      o
      -10.08023555169400       -3.64828721816200       -2.35959708605000      h
      -10.61181270714500       -3.73176217133700        0.50448770644500      h
       13.99440244276600        2.40990818539700        9.77559907241700      o
       13.42087598189700        1.17818415855600        8.51765327009700      h
       15.54113349995400        1.63012986442400       10.42994592813800      h
      -15.83738570323300        2.11155530965200        7.67838955249100      o
      -17.19161249842800        3.34834454621100        7.81419886580200      h
      -14.36672183249100        3.10062453760800        7.15258897708500      h
       -9.57777996129300        9.16633632820900       10.26432990922600      o
       -9.15097000426700        8.44285657305100       11.87704951021500      h
       -9.08289784939000       10.96326977485800       10.28983349492400      h
      -15.86007745363100        4.26621487155400        1.67169171951900      o
      -15.15495637454300        3.04618775833300        0.46476540583000      h
      -17.28212036794600        3.42531153322800        2.50808627982200      h
       -8.29961923326000        0.59446939991300       15.20538997121700      o
       -7.55942379648000       -0.10891201749700       13.66602904062800      h
      -10.05359242534300        0.11114430559600       15.16535702119900      h
        0.73225682845900       -4.04723430727200       16.19394467555200      o
        2.01329605565400       -2.71330715231400       16.09802410519300      h
       -0.58342043703800       -3.42609736574800       17.28459222473000      h
        3.24022014135700       -7.61027971780200       13.39677073595300      o
        4.87020900576900       -6.79487785510700       13.61945066403600      h
        2.10992092876400       -6.72960756854900       14.53699936652600      h
       -3.19383139139400        7.66806331209300      -10.33288635456500      o
       -2.31829233724100        6.93355854992700       -8.87199007493300      h
       -1.85042746999400        8.13864876015300      -11.52924728757200      h
        5.67260969736300        6.20236493249900       -2.29862635575100      o
        4.85331830226400        7.75475151899000       -1.75009485573900      h
        5.78774880500300        5.07641179422600       -0.82670968023100      h
       13.37083819493700        2.63213234975400       -7.51665818746600      o
       15.18767869976100        2.72649336349000       -7.71740058104500      h
       12.76234614446600        4.32068913788900       -7.80121114860500      h
        1.95928973516400       15.01324521768000       -4.82645668787800      o
        3.76470934692100       15.43769301065600       -4.61441406495800      h
        1.59778559135400       15.13623040340000       -6.60345327896400      h
       10.39838298663900        7.74191319710100       10.22915652403500      o
       10.22696804866500        7.71762464207200       12.03173854144800      h
        8.73458340783600        7.26910656629500        9.54727005162700      h
       11.53628589936000        5.21599163936100        5.80299277769400      o
       13.34841962029900        5.11191266098600        5.63396806412300      h
       11.22450251112500        5.81879128933100        7.49238971474300      h
        9.95225312062700       -7.98547344003400       -1.90294079397900      o
        9.67991264760700       -8.46986414212100       -0.12478205563900      h
       10.46851669665500       -9.48994992944300       -2.77257364857300      h
        9.36755225555200       -9.29172357897600        2.82238738660100      o
       10.88651395186600       -8.53706945608400        3.57534057661500      h
        9.32898216110000      -11.08301305842200        3.20792180979200      h
       21.60780264083900        4.47240733360300        1.75856517719600      o
       21.11090276366000        3.42996437110700        3.19505008473000      h
       22.38292278451300        3.31796225559700        0.56502891129500      h
       -3.41668918086200        9.86168049152400        5.27241107715000      o
       -3.85702899459400        8.13416201841300        5.82286527769500      h
       -3.56960471222800       10.90100054545000        6.77962302915300      h
       15.20634161396100        4.57961831920000      -12.55370550219800      o
       14.31666859664400        5.81462201021300      -11.53558871237200      h
       14.02173847077300        3.19760614562300      -12.79450607854900      h
      -18.60153256623300       -4.49744489568600       -9.12138439490000      o
      -19.82378419794500       -5.18247879774700      -10.26316363764400      h
      -18.72716115503500       -5.49723194549200       -7.56543253918400      h
        6.83342030211200        6.40536590555700       14.04209126125300      o
        6.17854947792000        7.83048584627400       13.09863133272200      h
        5.32964570416300        5.57465269747200       14.66878834532700      h
      -20.23880147703200        0.70271455372100       -8.85781690808100      o
      -19.78034957983600        1.37026909716400       -7.20053735774700      h
      -19.31949158283900       -0.86497982093900       -9.06606635836900      h
       -6.35758569878800       -1.66546765388200       10.90107556794900      o
       -4.57222565478300       -2.07387376471900       11.21121185989700      h
       -6.45460788753500       -0.27195570781000        9.68160782154500      h
      -16.44364762764000        6.16728062048600       -6.05509096347000      o
      -17.51468797374200        5.01151927201100       -5.09782716267900      h
      -16.71755272382600        5.72496813449600       -7.83465573350600      h
       -3.72642570506500       -6.83050829508400      -13.30589715495300      o
       -2.59442441083000       -6.33031285641400      -11.92604279140800      h
       -3.76786622539300       -5.38394280056600      -14.42806916759800      h
        4.31572749932600       -2.05146224783000        4.03422744809600      o
        4.36936769996500       -1.75769498428600        2.22011234175100      h
        4.71254031305100       -3.85388541828100        4.15913356858900      h
      -18.98581664828200        2.34966200437300       -4.02121814833800      o
      -20.42901146583700        1.95145421932900       -2.95327148165800      h
      -17.72093349438300        1.06565917382800       -3.69474971014400      h
       13.47694796541300       -7.33559007807700        4.95056203473300      o
       12.70345745695900       -6.87658703663900        6.56086888522000      h
       14.44694539973200       -8.87075749759200        5.20722190008700      h
        9.44776743845700       -4.34762176987700        5.29749657534400      o
        8.09010539455200       -3.48785035207300        6.15782530810200      h
        9.32790543626200       -3.96621304456700        3.51622470304200      h
       19.29187188844800        1.50740250875500        5.40100580474700      o
       17.70555522567200        1.51596997346400        4.45088442878300      h
       19.99821920333500       -0.16936133858100        5.05294508460200      h
       23.41183252961400       -4.03256115672800        0.03415840544600      o
       21.84120505027000       -4.16271403631400       -0.99812746035200      h
       24.25956434787100       -5.62029735310200       -0.12272031114900      h
        9.28157090707200        8.67649918705900      -13.03687403631100      o
        7.61346241106400        8.17037600538600      -12.41764274810300      h
        9.47626324891600        7.94016843259700      -14.67549513786700      h
        4.56550252934100       10.14772190192000       -6.56835545465400      o
        4.19453565427200       10.42381414235400       -4.78434580314400      h
        6.12184965204300       11.09263604770200       -6.84222239973000      h
        0.00453707515700        9.44634367810900       13.17124477608900      o
        0.48973878393800        8.37704380343200       14.56106854629400      h
        1.53831202799600        9.55954196671300       12.13160558184200      h
       15.44527559309700      -11.98631645604000        6.06548676316900      o
       16.98874455716400      -11.50798593594100        6.89121812698500      h
       14.13450493375300      -12.26049360000800        7.32192265763600      h
       10.90268752327000       -1.39881964088900       -5.86103709860900      o
       11.95305435573700       -0.09434693301100       -6.63671744568200      h
       12.00157713126200       -2.48918501732300       -4.87426336120300      h
        4.23234009639800       -0.44270255093700       15.23954926615700      o
        3.65381857224900       -0.43584978141400       13.44857415925200      h
        4.02753428066800        1.28181543628700       15.77955378959400      h
        4.26708786825000       13.58474654636500        6.46280945519100      o
        6.04802690425500       13.12053150488700        6.31085128412400      h
        3.96903772244500       14.57255161909300        4.91222494103400      h
        0.43210159389700       12.21002812157900        1.37033591881900      o
       -0.48723577653400       11.72131581258800       -0.14474436203100      h
       -0.83835404775300       12.83432619459100        2.54943244594400      h
        2.64278927896500        7.24747463109100        1.81529225386600      o
        2.07352526240500        7.95708994657100        3.44190682967000      h
        2.83494263302200        5.44122512048200        2.09925708069900      h
        4.62581135005700       11.02005018148400       -1.48854000566800      o
        3.28145134826800       11.14491837423200       -0.26120127667600      h
        6.06823423062400       11.99029165009800       -0.88878444757800      h
       13.64004933450800        0.81435647952800       -1.80732707637500      o
       14.69780613191900       -0.15926687042400       -2.94502426294700      h
       13.70746749926500        2.53766799333000       -2.46658661749800      h
        3.64627181485500       15.94486755251000        2.04243941302400      o
        5.23303780740700       15.65263672195600        1.20208409012100      h
        2.47724147235700       14.58895039216200        1.52012924043600      h
      -19.12085602336700        5.96609043536800        7.72860018512500      o
      -17.86185075186300        6.80082162279600        8.75518930102900      h
      -19.53341421908400        7.21499519367100        6.43035474105600      h
       -8.41037766456600        5.59111450726400       14.04339965005300      o
       -8.30026281817200        3.97039349857900       14.91055116351700      h
       -6.71096598803200        5.89964160308000       13.38257452465000      h
      -13.36360456343100        9.83230208871800        4.13434097451600      o
      -14.33443037083600       11.04367111825600        3.10769987092800      h
      -11.89948229710400       10.75554634981900        4.68414324682100      h
       16.73835764446900       -1.07258157351700       -5.45603451516400      o
       17.59754461784700        0.54175730378100       -5.29530349093200      h
       16.33332204505500       -1.31952655977700       -7.23140093850600      h
      -10.39401527325600       -3.83774336901800      -15.73225674323200      o
      -11.64870676075500       -4.78844331897400      -16.61883531786700      h
      -11.30774486360200       -2.41209021642400      -14.92971356875800      h
       -6.43484527415300        5.65101253009200      -13.49929384380600      o
       -7.25007752449500        7.10504990520600      -14.20272040525700      h
       -5.27084862603500        6.34637642195700      -12.20953473000700      h
      -19.27609254940400       -3.90113388054500        5.13028954003000      o
      -19.26146836090400       -5.62362526141100        4.47543507198300      h
      -18.17241703545600       -2.92807671119500        4.04032807192100      h
      -15.16896615965700       -9.94743136468100       -8.14786385775500      o
      -14.94385670106100       -9.10190996567000       -9.75891520773200      h
      -14.38320194163300       -8.75341072970500       -6.95266252238400      h
       -4.69459131255900       15.78630333605000       -0.55602245644500      o
       -3.11512228208700       16.66762185510400       -0.95611266780400      h
       -5.70528218937500       15.82689618389900       -2.07732802577300      h
      -10.22247782567200       -8.58332849922500        9.56564065319100      o
      -10.13399832090300       -7.36963426829800       10.96325087722000      h
      -12.01807868274600       -8.60652938280100        9.09893619106000      h
      -23.21328280206100        1.00270185476200       -1.28701540217400      o
      -23.85755060374300        2.63430453209600       -0.80537729361200      h
      -23.40471070544500       -0.07324589552500        0.21043051075200      h
       14.84739947309900       -7.84931903801000       -6.31743042246400      o
       13.75180087235800       -9.28510529817600       -5.95340490670400      h
       14.45837677964500       -6.54377832826800       -5.04338071140800      h
        4.09309430341000      -13.92604867450300        5.43125086365200      o
        4.13714255503000      -14.07676983644400        7.24166879053000      h
        5.83002970876000      -13.98386308606700        4.84891130620400      h
       -8.40035135164300       -6.10417359468500      -11.58074230646300      o
       -6.70948389448900       -6.57812773700800      -12.18575275910400      h
       -9.35164385559600       -5.62224408641400      -13.07760601561000      h
       13.47359859605500       -4.62203993043800       -2.73907894908400      o
       14.54997243891400       -4.39793356464300       -1.26251210530100      h
       12.11138178726700       -5.75920312694500       -2.19562730643400      h
      -12.32384622366400        6.99101988679600       -9.88961257329900      o
      -11.36564541454400        5.41456159038300       -9.97035796190500      h
      -13.93267958056200        6.60636635803300      -10.64575212226600      h
       13.40925882472700       12.96032043270300       -1.48660991819600      o
       13.41947376536900       11.51508654132300       -0.32696597393500      h
       14.94403964675300       13.84827765520400       -1.11806397217400      h
       20.50928222671500       -3.30430531236400        4.25183706873600      o
       21.77547814375100       -3.43805454357600        2.92341290364600      h
       18.87932739116600       -3.54724628492200        3.40193511263100      h
       13.61410538786200       10.21556917109400        6.95072856645400      o
       12.49191192607200        9.58301374269200        8.26161097663200      h
       15.03059885226400        9.05451043361200        6.99167127155100      h
        7.61732119876100       -9.27920541011200       -7.60760605775100      o
        7.86813963774600       -9.14888916882000       -9.44249265208400      h
        6.58962863785900      -10.80346652991100       -7.31661940424300      h
       -7.48753907074500      -16.29105634206600       -8.47623944195900      o
       -8.96971117409700      -15.24710533744400       -8.12365099154100      h
       -7.01737380325100      -15.96621214071100      -10.19342759985600      h
       13.33444443890100       -1.53739785568300        6.59980251589000      o
       11.86295016021700       -2.60655634333200        6.17202906772700      h
       14.63275825476700       -2.67686879062000        7.22273363692900      h
      -14.02883474433500       -5.91965918131100      -11.27668285727200      o
      -15.49817513738200       -5.12816891791600      -10.51958664474700      h
      -12.57122468187700       -5.31547211061200      -10.36613447845400      h
       11.66017784664400       -6.63584915213500        9.73419571808500      o
       11.44439606739700       -5.00598685741000       10.54305846230100      h
        9.97889863823700       -7.29213153811600        9.41677230933900      h
       14.32870976919900       11.57231757332100       -6.53576081311600      o
       14.04264297657100       12.00261727195200       -4.77186476474800      h
       15.82144974956000       10.48572629311400       -6.55583184696900      h
      -16.78488907913400        4.15831583636100      -10.65684677947000      o
      -18.46567715173600        3.44100566377300      -10.71874974124900      h
      -15.72709105225000        2.72105866945200      -10.15805521915300      h
      -11.13405570469900      -12.95007278336200       -7.25547187288400      o
      -10.10713146838500      -11.39500562722600       -7.23142644357000      h
      -12.81491507250300      -12.35282698277700       -7.71748109905600      h
        9.17459318546700       12.10684027749000       -6.32779658237800      o
       10.79033186970300       12.43636552901000       -7.09759683040800      h
        9.54566885432700       10.99651324416300       -4.87559750016500      h
       11.50061126417300      -11.67310867666500       -5.82155579984700      o
       10.02230361826200      -10.68039339483300       -6.48802688913700      h
       11.85159078094200      -12.90729763916900       -7.09599965746800      h
       23.20542248017200        0.82333929352900       -1.72412984885300      o
       23.93828310876400       -0.78470525982200       -1.26144813743500      h
       22.72495856076700        0.71668368572800       -3.49820151531100      h
       18.52243109312700        0.07011009241000        0.38453698785200      o
       20.26449875869600        0.00257893186900       -0.18045315855000      h
       17.83085345844200       -1.59662528979400        0.14103585932600      h
       -3.02496949623300       14.81326043715500        4.21841104018700      o
       -3.54570527992800       15.94078007981700        2.88214136733700      h
       -2.11488633544100       15.75657149628800        5.48515916557000      h
        3.26256893106100       -2.61999258112500       -9.90471490517200      o
        4.91077592563200       -3.38761730596700       -9.72312724284500      h
        3.41246393240700       -1.39963797631800      -11.28261950390700      h
       -7.61479699146600        6.00831285569600       -7.06649353205400      o
       -7.45308261640000        7.24573645927300       -8.41062491857600      h
       -7.39919216143200        6.89871881947500       -5.46449334784300      h
      -19.61501387758000       -8.50982635742900        2.81576009142900      o
      -20.25515122928800       -7.61436777933400        1.29661432711600      h
      -20.95198419429400       -9.58693896143600        3.38048942560400      h
        8.24351588275000        5.92063494621800       -6.73079657788000      o
        6.91004867234800        7.11241070147300       -6.39040752431400      h
        9.70371951205900        6.82972662090600       -7.40839876037000      h
        9.40130981195200        2.31319380787500       12.04701559322500      o
        8.49507116046500        3.73050072786600       12.79126335965400      h
       10.95570883336900        2.95989697157400       11.31169501992600      h
       -0.19129132627500       17.93842963641300       -1.23071830826600      o
        0.52967937586700       17.03839066365000       -2.66917181040600      h
        1.08645485465500       17.89171176686600        0.06842242276200      h
      -16.34972964144400       -2.76484547030600        9.21847600405200      o
[...]
   385   8 o      386   1 h                                       0.9753364
   385   8 o      387   1 h                                       0.9697213
   388   8 o      389   1 h                                       0.9873403
   388   8 o      390   1 h                                       0.9721977
   391   8 o      392   1 h                                       0.9690324
   391   8 o      393   1 h                                       0.9716172
   394   8 o      395   1 h                                       0.9564548
   394   8 o      396   1 h                                       0.9809558
   397   8 o      398   1 h                                       0.9685446
   397   8 o      399   1 h                                       0.9677105
   400   8 o      401   1 h                                       0.9760965
   400   8 o      402   1 h                                       0.9679987
   403   8 o      404   1 h                                       0.9829730
   403   8 o      405   1 h                                       0.9812480
   406   8 o      407   1 h                                       0.9756493
   406   8 o      408   1 h                                       0.9811231
   409   8 o      410   1 h                                       0.9808526
   409   8 o      411   1 h                                       0.9690649
   412   8 o      413   1 h                                       0.9729079
   412   8 o      414   1 h                                       0.9788766
   415   8 o      416   1 h                                       0.9731526
   415   8 o      417   1 h                                       0.9693011
   418   8 o      419   1 h                                       0.9760501
   418   8 o      420   1 h                                       0.9705042
   421   8 o      422   1 h                                       0.9645870
   421   8 o      423   1 h                                       0.9660593
   424   8 o      425   1 h                                       0.9785065
   424   8 o      426   1 h                                       0.9802800
   427   8 o      428   1 h                                       0.9969655
   427   8 o      429   1 h                                       0.9560648
   430   8 o      431   1 h                                       0.9789342
   430   8 o      432   1 h                                       0.9562113
   433   8 o      434   1 h                                       0.9752571
   433   8 o      435   1 h                                       0.9743305
   436   8 o      437   1 h                                       0.9628166
   436   8 o      438   1 h                                       0.9823516
   439   8 o      440   1 h                                       0.9602678
   439   8 o      441   1 h                                       0.9717176
   442   8 o      443   1 h                                       0.9767012
   442   8 o      444   1 h                                       0.9714659
   445   8 o      446   1 h                                       0.9959681
   445   8 o      447   1 h                                       0.9623918
   448   8 o      449   1 h                                       0.9772359
   448   8 o      450   1 h                                       0.9855925
   451   8 o      452   1 h                                       0.9728070
   451   8 o      453   1 h                                       0.9749040
   454   8 o      455   1 h                                       0.9862437
   454   8 o      456   1 h                                       0.9728944
   457   8 o      458   1 h                                       0.9655500
   457   8 o      459   1 h                                       0.9731193
   460   8 o      461   1 h                                       0.9701635
   460   8 o      462   1 h                                       0.9770411
   463   8 o      464   1 h                                       0.9626696
   463   8 o      465   1 h                                       0.9868767
   466   8 o      467   1 h                                       0.9664921
   466   8 o      468   1 h                                       0.9779632
   469   8 o      470   1 h                                       0.9744356
   469   8 o      471   1 h                                       0.9786030
   472   8 o      473   1 h                                       0.9848826
   472   8 o      474   1 h                                       0.9610530
   475   8 o      476   1 h                                       0.9714586
   475   8 o      477   1 h                                       0.9724432
   478   8 o      479   1 h                                       0.9560554 (min)
   478   8 o      480   1 h                                       0.9916200
   481   8 o      482   1 h                                       0.9574508
   481   8 o      483   1 h                                       0.9902684
   484   8 o      485   1 h                                       0.9751841
   484   8 o      486   1 h                                       0.9689806
   487   8 o      488   1 h                                       0.9701520
   487   8 o      489   1 h                                       0.9859777
   490   8 o      491   1 h                                       0.9802667
   490   8 o      492   1 h                                       0.9667468
   493   8 o      494   1 h                                       0.9806494
   493   8 o      495   1 h                                       0.9818390
   496   8 o      497   1 h                                       0.9626349
   496   8 o      498   1 h                                       0.9809999
   499   8 o      500   1 h                                       0.9749411
   499   8 o      501   1 h                                       0.9870224
   502   8 o      503   1 h                                       0.9616288
   502   8 o      504   1 h                                       0.9699123
   505   8 o      506   1 h                                       0.9828608
   505   8 o      507   1 h                                       0.9725660
   508   8 o      509   1 h                                       0.9741827
   508   8 o      510   1 h                                       0.9820644
   511   8 o      512   1 h                                       0.9771727
   511   8 o      513   1 h                                       0.9624700
   514   8 o      515   1 h                                       0.9805612
   514   8 o      516   1 h                                       0.9583583
   517   8 o      518   1 h                                       0.9737224
   517   8 o      519   1 h                                       0.9812074
   520   8 o      521   1 h                                       0.9725721
   520   8 o      522   1 h                                       0.9694475
   523   8 o      524   1 h                                       0.9824331
   523   8 o      525   1 h                                       0.9849234
   526   8 o      527   1 h                                       0.9773299
   526   8 o      528   1 h                                       0.9576960
   529   8 o      530   1 h                                       0.9887809
   529   8 o      531   1 h                                       0.9717366
   532   8 o      533   1 h                                       0.9697977
   532   8 o      534   1 h                                       0.9640279
   535   8 o      536   1 h                                       0.9696041
   535   8 o      537   1 h                                       0.9697329
   538   8 o      539   1 h                                       0.9726389
   538   8 o      540   1 h                                       0.9770963
   541   8 o      542   1 h                                       0.9676009
   541   8 o      543   1 h                                       0.9805410
   544   8 o      545   1 h                                       0.9862288
   544   8 o      546   1 h                                       0.9751006
   547   8 o      548   1 h                                       0.9630140
   547   8 o      549   1 h                                       0.9870830
   550   8 o      552   1 h                                       0.9570089
   553   8 o      554   1 h                                       0.9666674
   553   8 o      555   1 h                                       0.9742542
   556   8 o      557   1 h                                       0.9697921
   556   8 o      558   1 h                                       0.9635647
   559   8 o      560   1 h                                       0.9653799
   559   8 o      561   1 h                                       0.9646044
   562   8 o      563   1 h                                       0.9669342
   562   8 o      564   1 h                                       0.9772394
   565   8 o      566   1 h                                       0.9705835
   565   8 o      567   1 h                                       0.9765741
   568   8 o      569   1 h                                       0.9927436
   568   8 o      570   1 h                                       0.9564182
   571   8 o      572   1 h                                       0.9633830
   571   8 o      573   1 h                                       0.9783036
   574   8 o      575   1 h                                       0.9734463
   574   8 o      576   1 h                                       0.9721719
   577   8 o      578   1 h                                       0.9756136
   577   8 o      579   1 h                                       0.9645821
   580   8 o      581   1 h                                       0.9727414
   580   8 o      582   1 h                                       0.9751880
   583   8 o      584   1 h                                       0.9680316
   583   8 o      585   1 h                                       0.9764318
   586   8 o      587   1 h                                       0.9746140
   586   8 o      588   1 h                                       0.9697615
   589   8 o      590   1 h                                       0.9835073
   589   8 o      591   1 h                                       0.9748887
   592   8 o      593   1 h                                       0.9615838
   592   8 o      594   1 h                                       0.9735253
   595   8 o      596   1 h                                       0.9658195
   595   8 o      597   1 h                                       0.9713598
   598   8 o      599   1 h                                       0.9933398
   598   8 o      600   1 h                                       0.9586842
   601   8 o      602   1 h                                       0.9728373
   601   8 o      603   1 h                                       0.9777380
   604   8 o      605   1 h                                       0.9632542
   604   8 o      606   1 h                                       0.9772034
   607   8 o      608   1 h                                       0.9724539
   607   8 o      609   1 h                                       0.9720405
   610   8 o      611   1 h                                       0.9820232
   610   8 o      612   1 h                                       0.9561178
   613   8 o      614   1 h                                       0.9715702
   613   8 o      615   1 h                                       0.9733918
   616   8 o      617   1 h                                       0.9850862
   616   8 o      618   1 h                                       0.9771009
   619   8 o      620   1 h                                       0.9714282
   619   8 o      621   1 h                                       0.9871862
   622   8 o      623   1 h                                       0.9786456
   622   8 o      624   1 h                                       0.9823338
   625   8 o      626   1 h                                       0.9661499
   625   8 o      627   1 h                                       0.9649563
   628   8 o      629   1 h                                       0.9773610
   628   8 o      630   1 h                                       0.9810207
   631   8 o      632   1 h                                       0.9744433
   631   8 o      633   1 h                                       0.9711833
   634   8 o      635   1 h                                       0.9626069
   634   8 o      636   1 h                                       0.9729355
   637   8 o      638   1 h                                       0.9764273
   637   8 o      639   1 h                                       0.9840476
   640   8 o      641   1 h                                       0.9615611
   640   8 o      642   1 h                                       0.9794894
   643   8 o      644   1 h                                       0.9590499
   643   8 o      645   1 h                                       0.9772244
   646   8 o      647   1 h                                       0.9641267
   646   8 o      648   1 h                                       0.9676942
   649   8 o      650   1 h                                       0.9749017
   649   8 o      651   1 h                                       0.9675575
   652   8 o      653   1 h                                       0.9642566
   652   8 o      654   1 h                                       0.9801207
   655   8 o      656   1 h                                       0.9838306
   655   8 o      657   1 h                                       0.9671070
   658   8 o      659   1 h                                       0.9642138
   658   8 o      660   1 h                                       0.9729672
   661   8 o      662   1 h                                       0.9766532
   661   8 o      663   1 h                                       0.9751646
   664   8 o      665   1 h                                       0.9672084
   664   8 o      666   1 h                                       0.9820471
   667   8 o      668   1 h                                       0.9690739
   667   8 o      669   1 h                                       0.9682357
   670   8 o      671   1 h                                       0.9575784
   670   8 o      672   1 h                                       0.9684355
   673   8 o      674   1 h                                       0.9726781
   673   8 o      675   1 h                                       0.9613300
   676   8 o      677   1 h                                       0.9787760
   676   8 o      678   1 h                                       0.9565784
   679   8 o      680   1 h                                       0.9736619
   679   8 o      681   1 h                                       0.9584730
   682   8 o      683   1 h                                       0.9713861
   682   8 o      684   1 h                                       0.9710660
   685   8 o      686   1 h                                       0.9629955
   685   8 o      687   1 h                                       0.9876161
   688   8 o      689   1 h                                       0.9640453
   688   8 o      690   1 h                                       0.9870220
   691   8 o      692   1 h                                       0.9685144
   691   8 o      693   1 h                                       0.9816243
   694   8 o      695   1 h                                       0.9790098
   694   8 o      696   1 h                                       0.9611404
   697   8 o      698   1 h                                       0.9646787
   697   8 o      699   1 h                                       0.9732936
   700   8 o      701   1 h                                       0.9731678
   700   8 o      702   1 h                                       0.9867271
   703   8 o      704   1 h                                       0.9795710
   703   8 o      705   1 h                                       0.9737270
   706   8 o      707   1 h                                       0.9748343
   706   8 o      708   1 h                                       0.9756986
   709   8 o      710   1 h                                       0.9696624
   709   8 o      711   1 h                                       0.9661040
   712   8 o      713   1 h                                       0.9692469
   712   8 o      714   1 h                                       0.9671228
   715   8 o      716   1 h                                       0.9719117
   715   8 o      717   1 h                                       0.9733110
   718   8 o      719   1 h                                       0.9655955
   718   8 o      720   1 h                                       0.9893473
   721   8 o      722   1 h                                       0.9589302
   721   8 o      723   1 h                                       0.9898858
   724   8 o      725   1 h                                       0.9608529
   724   8 o      726   1 h                                       0.9702719
   727   8 o      728   1 h                                       0.9568912
   727   8 o      729   1 h                                       0.9814106
   730   8 o      731   1 h                                       0.9721992
   730   8 o      732   1 h                                       0.9690067
   733   8 o      734   1 h                                       0.9811307
   733   8 o      735   1 h                                       0.9643535
   736   8 o      737   1 h                                       0.9608314
   736   8 o      738   1 h                                       0.9783748
   739   8 o      740   1 h                                       0.9690784
   739   8 o      741   1 h                                       0.9728630
   742   8 o      743   1 h                                       0.9743484
   742   8 o      744   1 h                                       0.9629683
   745   8 o      746   1 h                                       0.9691668
   745   8 o      747   1 h                                       0.9763771
   748   8 o      749   1 h                                       0.9754161
   748   8 o      750   1 h                                       0.9725887
   751   8 o      752   1 h                                       0.9662498
   751   8 o      753   1 h                                       0.9658036
   754   8 o      755   1 h                                       0.9821878
   754   8 o      756   1 h                                       0.9587463

 * 1 distinct bonds (by element types)

   Z      Z             #   av. dist./Å        max./Å        min./Å
   1 H    8 O         503     0.9737413     0.9975440     0.9560554


optimized geometry written to: xtbopt.coord


           -------------------------------------------------
          | TOTAL ENERGY            -1283.310743260444 Eh   |
          | GRADIENT NORM               0.002344734683 Eh/α |
          | HOMO-LUMO GAP               6.272650052548 eV   |
           -------------------------------------------------

------------------------------------------------------------------------
 * finished run on 2022/11/24 at 12:10:41.546     
------------------------------------------------------------------------
 total:
 * wall-time:     0 d,  0 h,  5 min, 57.548 sec
 *  cpu-time:     0 d,  0 h,  8 min, 50.480 sec
 * ratio c/w:     1.484 speedup
 SCF:
 * wall-time:     0 d,  0 h,  0 min, 21.651 sec
 *  cpu-time:     0 d,  0 h,  0 min, 34.786 sec
 * ratio c/w:     1.607 speedup
 ANC optimizer:
 * wall-time:     0 d,  0 h,  5 min, 34.835 sec
 *  cpu-time:     0 d,  0 h,  8 min, 13.924 sec
 * ratio c/w:     1.475 speedup

