      -----------------------------------------------------------      
     |                   =====================                   |     
     |                           x T B                           |     
     |                   =====================                   |     
     |                         S. Grimme                         |     
     |          Mulliken Center for Theoretical Chemistry        |     
     |                    University of Bonn                     |     
      -----------------------------------------------------------      

   * xtb version 6.5.1 (579679a) compiled by 'ehlert@majestix' on 2022-07-11

   xtb is free software: you can redistribute it and/or modify it under
   the terms of the GNU Lesser General Public License as published by
   the Free Software Foundation, either version 3 of the License, or
   (at your option) any later version.
   
   xtb is distributed in the hope that it will be useful,
   but WITHOUT ANY WARRANTY; without even the implied warranty of
   MERCHANTABILITY or FITNESS FOR A PARTICULAR PURPOSE.  See the
   GNU Lesser General Public License for more details.
   
   Cite this work as:
   * C. Bannwarth, E. Caldeweyher, S. Ehlert, A. Hansen, P. Pracht,
     J. Seibert, S. Spicher, S. Grimme, WIREs Comput. Mol. Sci., 2020, 11,
     e01493. DOI: 10.1002/wcms.1493
   
   for GFN2-xTB:
   * C. Bannwarth, S. Ehlert and S. Grimme., J. Chem. Theory Comput., 2019,
     15, 1652-1671. DOI: 10.1021/acs.jctc.8b01176
   for GFN1-xTB:
   * S. Grimme, C. Bannwarth, P. Shushkov, J. Chem. Theory Comput., 2017,
     13, 1989-2009. DOI: 10.1021/acs.jctc.7b00118
   for GFN0-xTB:
   * P. Pracht, E. Caldeweyher, S. Ehlert, S. Grimme, ChemRxiv, 2019, preprint.
     DOI: 10.26434/chemrxiv.8326202.v1
   for GFN-FF:
   * S. Spicher and S. Grimme, Angew. Chem. Int. Ed., 2020, 59, 15665-15673.
     DOI: 10.1002/anie.202004239
   
   for ALPB and GBSA implicit solvation:
   * S. Ehlert, M. Stahn, S. Spicher, S. Grimme, J. Chem. Theory Comput.,
     2021, 17, 4250-4261. DOI: 10.1021/acs.jctc.1c00471
   
   for DFT-D4:
   * E. Caldeweyher, C. Bannwarth and S. Grimme, J. Chem. Phys., 2017,
     147, 034112. DOI: 10.1063/1.4993215
   * E. Caldeweyher, S. Ehlert, A. Hansen, H. Neugebauer, S. Spicher,
     C. Bannwarth and S. Grimme, J. Chem. Phys., 2019, 150, 154122.
     DOI: 10.1063/1.5090222
   * E. Caldeweyher, J.-M. Mewes, S. Ehlert and S. Grimme, Phys. Chem. Chem. Phys.
     2020, 22, 8499-8512. DOI: 10.1039/D0CP00502A
   
   for sTDA-xTB:
   * S. Grimme and C. Bannwarth, J. Chem. Phys., 2016, 145, 054103.
     DOI: 10.1063/1.4959605
   
   in the mass-spec context:
   * V. Asgeirsson, C. Bauer and S. Grimme, Chem. Sci., 2017, 8, 4879.
     DOI: 10.1039/c7sc00601b
   * J. Koopman and S. Grimme, ACS Omega 2019, 4, 12, 15120-15133.
     DOI: 10.1021/acsomega.9b02011
   
   for metadynamics refer to:
   * S. Grimme, J. Chem. Theory Comput., 2019, 155, 2847-2862
     DOI: 10.1021/acs.jctc.9b00143
   
   for SPH calculations refer to:
   * S. Spicher and S. Grimme, J. Chem. Theory Comput., 2021, 17, 1701-1714
     DOI: 10.1021/acs.jctc.0c01306
   
   with help from (in alphabetical order)
   P. Atkinson, C. Bannwarth, F. Bohle, G. Brandenburg, E. Caldeweyher
   M. Checinski, S. Dohm, S. Ehlert, S. Ehrlich, I. Gerasimov, C. Hölzer
   A. Katbashev, J. Koopman, C. Lavigne, S. Lehtola, F. März, M. Müller,
   F. Musil, H. Neugebauer, J. Pisarek, C. Plett, P. Pracht, F. Pultar,
   J. Seibert, P. Shushkov, S. Spicher, M. Stahn, M. Steiner, T. Strunk,
   J. Stückrath, T. Rose, and J. Unsleber
   
 * started run on 2022/11/24 at 12:21:40.831     

           -------------------------------------------------
          |                Calculation Setup                |
           -------------------------------------------------

          program call               : xtb solvent_cluster.coord --gfn2 --sp --lmo --chrg 0
          hostname                   : cn0430
          coordinate file            : solvent_cluster.coord
          omp threads                :                     2

   ID    Z sym.   atoms
    1    8 o      1, 4, 7, 10, 13, 16, 19, 22, 25, 28, 31, 34, 37, 40, 43,
                  46, 49, 52, 55, 58, 61, 64, 67, 70, 73, 76, 79, 82, 85, 88,
                  91, 94, 97, 100, 103, 106, 109, 112, 115, 118, 121, 124,
                  127, 130, 133, 136, 139, 142, 145, 148, 151, 154, 157, 160,
                  163, 166, 169, 172, 175, 178, 181, 184, 187, 190, 193, 196,
                  199, 202, 205, 208, 211, 214, 217, 220, 223, 226, 229, 232,
                  235, 238, 241, 244, 247, 250, 253, 256, 259, 262, 265, 268,
                  271, 274, 277, 280, 283, 286, 289, 292, 295, 298, 301, 304,
                  307, 310, 313, 316, 319, 322, 325, 328, 331, 334, 337, 340,
                  343, 346, 349, 352, 355, 358, 361, 364, 367, 370, 373, 376,
                  379, 382, 385, 388, 391, 394, 397, 400, 403, 406, 409, 412,
                  415, 418, 421, 424, 427, 430, 433, 436, 439, 442, 445, 448,
                  451, 454, 457, 460, 463, 466, 469, 472, 475, 478, 481, 484,
                  487, 490, 493, 496, 499, 502, 505, 508, 511, 514, 517, 520,
                  523, 526, 529, 532, 535, 538, 541, 544, 547, 550, 553, 556,
                  559, 562, 565, 568, 571, 574, 577, 580, 583, 586, 589, 592,
                  595, 598, 601, 604, 607, 610, 613, 616, 619, 622, 625, 628,
                  631, 634, 637, 640, 643, 646, 649, 652, 655, 658, 661, 664,
                  667, 670, 673, 676, 679, 682, 685, 688, 691, 694, 697, 700,
                  703, 706, 709, 712, 715, 718, 721, 724, 727, 730, 733, 736,
                  739, 742, 745, 748, 751, 754
    2    1 h      2, 3, 5, 6, 8, 9, 11, 12, 14, 15, 17, 18, 20, 21, 23, 24,
                  26, 27, 29, 30, 32, 33, 35, 36, 38, 39, 41, 42, 44, 45, 47,
                  48, 50, 51, 53, 54, 56, 57, 59, 60, 62, 63, 65, 66, 68, 69,
                  71, 72, 74, 75, 77, 78, 80, 81, 83, 84, 86, 87, 89, 90, 92,
                  93, 95, 96, 98, 99, 101, 102, 104, 105, 107, 108, 110, 111,
                  113, 114, 116, 117, 119, 120, 122, 123, 125, 126, 128, 129,
                  131, 132, 134, 135, 137, 138, 140, 141, 143, 144, 146, 147,
                  149, 150, 152, 153, 155, 156, 158, 159, 161, 162, 164, 165,
                  167, 168, 170, 171, 173, 174, 176, 177, 179, 180, 182, 183,
                  185, 186, 188, 189, 191, 192, 194, 195, 197, 198, 200, 201,
                  203, 204, 206, 207, 209, 210, 212, 213, 215, 216, 218, 219,
                  221, 222, 224, 225, 227, 228, 230, 231, 233, 234, 236, 237,
                  239, 240, 242, 243, 245, 246, 248, 249, 251, 252, 254, 255,
                  257, 258, 260, 261, 263, 264, 266, 267, 269, 270, 272, 273,
                  275, 276, 278, 279, 281, 282, 284, 285, 287, 288, 290, 291,
                  293, 294, 296, 297, 299, 300, 302, 303, 305, 306, 308, 309,
                  311, 312, 314, 315, 317, 318, 320, 321, 323, 324, 326, 327,
                  329, 330, 332, 333, 335, 336, 338, 339, 341, 342, 344, 345,
                  347, 348, 350, 351, 353, 354, 356, 357, 359, 360, 362, 363,
                  365, 366, 368, 369, 371, 372, 374, 375, 377, 378, 380, 381,
                  383, 384, 386, 387, 389, 390, 392, 393, 395, 396, 398, 399,
                  401, 402, 404, 405, 407, 408, 410, 411, 413, 414, 416, 417,
                  419, 420, 422, 423, 425, 426, 428, 429, 431, 432, 434, 435,
                  437, 438, 440, 441, 443, 444, 446, 447, 449, 450, 452, 453,
                  455, 456, 458, 459, 461, 462, 464, 465, 467, 468, 470, 471,
                  473, 474, 476, 477, 479, 480, 482, 483, 485, 486, 488, 489,
                  491, 492, 494, 495, 497, 498, 500, 501, 503, 504, 506, 507,
                  509, 510, 512, 513, 515, 516, 518, 519, 521, 522, 524, 525,
                  527, 528, 530, 531, 533, 534, 536, 537, 539, 540, 542, 543,
                  545, 546, 548, 549, 551, 552, 554, 555, 557, 558, 560, 561,
                  563, 564, 566, 567, 569, 570, 572, 573, 575, 576, 578, 579,
                  581, 582, 584, 585, 587, 588, 590, 591, 593, 594, 596, 597,
                  599, 600, 602, 603, 605, 606, 608, 609, 611, 612, 614, 615,
                  617, 618, 620, 621, 623, 624, 626, 627, 629, 630, 632, 633,
                  635, 636, 638, 639, 641, 642, 644, 645, 647, 648, 650, 651,
                  653, 654, 656, 657, 659, 660, 662, 663, 665, 666, 668, 669,
                  671, 672, 674, 675, 677, 678, 680, 681, 683, 684, 686, 687,
                  689, 690, 692, 693, 695, 696, 698, 699, 701, 702, 704, 705,
                  707, 708, 710, 711, 713, 714, 716, 717, 719, 720, 722, 723,
                  725, 726, 728, 729, 731, 732, 734, 735, 737, 738, 740, 741,
                  743, 744, 746, 747, 749, 750, 752, 753, 755, 756

molecular fragmentation (1/2 indicates fragments):
111222222222222222222222222222222222222222222222222222222222222222222222
222222222222222222222222222222222222222222222222222222222222222222222222
222222222222222222222222222222222222222222222222222222222222222222222222
222222222222222222222222222222222222222222222222222222222222222222222222
222222222222222222222222222222222222222222222222222222222222222222222222
222222222222222222222222222222222222222222222222222222222222222222222222
222222222222222222222222222222222222222222222222222222222222222222222222
222222222222222222222222222222222222222222222222222222222222222222222222
222222222222222222222222222222222222222222222222222222222222222222222222
222222222222222222222222222222222222222222222222222222222222222222222222
222222222222222222222222222222222222
# atoms in fragment 1/2:     3   753
 fragment masses (1/2) :       18.02     4521.84
CMA distance (Bohr)    :  18.052
constraining FC (au)   :  0.0500

           -------------------------------------------------
          |                 G F N 2 - x T B                 |
           -------------------------------------------------

        Reference                      10.1021/acs.jctc.8b01176
      * Hamiltonian:
        H0-scaling (s, p, d)           1.850000    2.230000    2.230000
        zeta-weighting                 0.500000
      * Dispersion:
        s8                             2.700000
        a1                             0.520000
        a2                             5.000000
        s9                             5.000000
      * Repulsion:
        kExp                           1.500000    1.000000
        rExp                           1.000000
      * Coulomb:
        alpha                          2.000000
        third order                    shell-resolved
        anisotropic                    true
        a3                             3.000000
        a5                             4.000000
        cn-shift                       1.200000
        cn-exp                         4.000000
        max-rad                        5.000000


          ...................................................
          :                      SETUP                      :
          :.................................................:
          :  # basis functions                1512          :
          :  # atomic orbitals                1512          :
          :  # shells                         1008          :
          :  # electrons                      2016          :
          :  max. iterations                   250          :
          :  Hamiltonian                  GFN2-xTB          :
          :  restarted?                      false          :
          :  GBSA solvation                  false          :
          :  PC potential                    false          :
          :  electronic temp.          300.0000000     K    :
          :  accuracy                    1.0000000          :
          :  -> integral cutoff          0.2500000E+02      :
          :  -> integral neglect         0.1000000E-07      :
          :  -> SCF convergence          0.1000000E-05 Eh   :
          :  -> wf. convergence          0.1000000E-03 e    :
          :  Broyden damping             0.4000000          :
          ...................................................

 iter      E             dE          RMSdq      gap      omega  full diag
   1  -1290.9796333 -0.129098E+04  0.406E+00    8.44       0.0  T
   2  -1291.0535014 -0.738681E-01  0.241E+00    7.48       1.0  T
   3  -1291.0849363 -0.314349E-01  0.209E-01    5.91       1.0  T
   4  -1291.0900873 -0.515099E-02  0.450E-02    6.30       1.0  T
   5  -1291.0901738 -0.864421E-04  0.305E-02    6.24       1.0  T
   6  -1291.0902115 -0.377191E-04  0.374E-03    6.28       1.0  T
   7  -1291.0902133 -0.184910E-05  0.738E-04    6.27       4.9  T
   8  -1291.0902134 -0.275040E-07  0.386E-04    6.27       9.4  T
   9  -1291.0902134 -0.143841E-07  0.577E-05    6.27      63.0  T

   *** convergence criteria satisfied after 9 iterations ***

         #    Occupation            Energy/Eh            Energy/eV
      -------------------------------------------------------------
         1        2.0000           -0.6917461             -18.8234
       ...           ...                  ...                  ...
      1002        2.0000           -0.3485147              -9.4836
      1003        2.0000           -0.3424003              -9.3172
      1004        2.0000           -0.3378617              -9.1937
      1005        2.0000           -0.3357787              -9.1370
      1006        2.0000           -0.3351148              -9.1189
      1007        2.0000           -0.3319759              -9.0335
      1008        2.0000           -0.3160826              -8.6010 (HOMO)
      1009                         -0.0855697              -2.3285 (LUMO)
      1010                         -0.0705056              -1.9186
      1011                         -0.0645407              -1.7562
      1012                         -0.0592375              -1.6119
      1013                         -0.0520613              -1.4167
       ...                                ...                  ...
      1512                          0.4979366              13.5495
      -------------------------------------------------------------
                  HL-Gap            0.2305129 Eh            6.2726 eV
             Fermi-level           -0.2008262 Eh           -5.4648 eV
 
 localization/xTB-IFF output generation
 averaging CT terms over            1  occ. levels
 averaging CT terms over            1  virt. levels
 dipole moment from electron density (au)
     X       Y       Z   
   5.6609  -1.1219   2.9791  total (Debye):   16.508
cpu  time for init local    0.75 s
wall time for init local    0.38 s
 doing rotations ...
 initialization of trafo matrix to unity

 converged in     17 iterations, threshold :   0.99995375D-06
 doing transformations ...
 lmo centers(Z=2) and atoms on file <lmocent.coord>
 LMO Fii/eV  ncent    charge center   contributions...
    1 LP   *******   0.00 -17.60344  46.43142 -11.67043  118O : 38.81  112O : 35.35   31O : 30.75  301O : 28.80  661O : 26.55  526O : 26.25  175O : 24.79  100O : 23.40   43O : 20.34  298O : 19.20  520O : 19.09  124O : 17.95
  358O : 16.53   85O : 15.69  328O : 15.69   16O : 15.53  481O : 15.03  121O : 15.02  562O : 14.48   64O : 14.47  313O : 14.28  637O : 14.08  280O : 13.99  151O : 13.76
  571O : 13.58  274O : 13.50  103O : 13.27  502O : 13.08  583O : 13.02  256O : 12.52  412O : 12.38  397O : 11.98  532O : 11.32  691O : 11.11  241O : 10.90  433O : 10.86
  631O : 10.72  226O : 10.58  574O : 10.53  376O : 10.51  148O : 10.49  361O : 10.39   88O : 10.05  268O :  9.75  493O :  9.69  232O :  9.53  109O :  9.40  166O :  9.28
  715O :  9.24  697O :  9.23   19O :  9.14  337O :  8.96  484O :  8.94  289O :  8.91   76O :  8.88   61O :  8.83  511O :  8.56   34O :  8.56  601O :  8.29  523O :  8.29
  160O :  8.10   94O :  8.10   70O :  7.97  388O :  7.95   49O :  7.75  178O :  7.69  253O :  7.62  742O :  7.58  688O :  7.46  667O :  7.45    4O :  7.43  703O :  7.21
  679O :  7.12  550O :  7.10  685O :  6.95  217O :  6.94  439O :  6.91  460O :  6.89  154O :  6.87  307O :  6.84   82O :  6.76  316O :  6.74  505O :  6.71  541O :  6.69
  415O :  6.64  202O :  6.62  487O :  6.60  193O :  6.58   40O :  6.54  331O :  6.44   28O :  6.39  271O :  6.34   67O :  6.33   13O :  6.32  211O :  6.27  364O :  6.25
  451O :  6.23  619O :  6.00   91O :  5.99  625O :  5.96   22O :  5.96   97O :  5.83   33H :  5.82  673O :  5.78  634O :  5.76  565O :  5.65  646O :  5.58  628O :  5.56
  748O :  5.55  391O :  5.47  190O :  5.46  214O :  5.43  106O :  5.39   46O :  5.39  304O :  5.39  409O :  5.38   25O :  5.27  604O :  5.25  736O :  5.19  529O :  5.14
  235O :  5.11  187O :  5.10  403O :  5.05  706O :  5.05  577O :  5.03  472O :  5.02  589O :  5.01  406O :  4.99  694O :  4.94  559O :  4.87  127O :  4.74  676O :  4.74
  169O :  4.72  247O :  4.72  658O :  4.70  457O :  4.68  670O :  4.61  310O :  4.58   55O :  4.55  370O :  4.47  718O :  4.46  490O :  4.36    7O :  4.36  607O :  4.34
  586O :  4.28   10O :  4.26  181O :  4.24  751O :  4.21  724O :  4.21  142O :  4.20  319O :  4.10  754O :  4.08  385O :  4.07  115O :  4.02  340O :  3.98  445O :  3.96
  292O :  3.94  136O :  3.87  286O :  3.86  184O :  3.82  382O :  3.79  259O :  3.75  133O :  3.69  102H :  3.61  277O :  3.59  205O :  3.53  436O :  3.53  177H :  3.51
   58O :  3.49  616O :  3.47  283O :  3.45  478O :  3.45  649O :  3.40  379O :  3.35  466O :  3.24  682O :  3.15  745O :  3.12  349O :  3.10  120H :  3.09  223O :  3.08
  610O :  3.06  622O :  3.02  367O :  3.00  400O :  2.99  139O :  2.99  244O :  2.98  220O :  2.95  442O :  2.93  585H :  2.93  130O :  2.91  250O :  2.85  145O :  2.83
  325O :  2.82  299H :  2.76   84H :  2.71  700O :  2.65  411H :  2.65  517O :  2.61  709O :  2.59  508O :  2.59   17H :  2.55  199O :  2.46  346O :  2.45  454O :  2.44
  427O :  2.44  595O :  2.33  733O :  2.33  424O :  2.30   87H :  2.13  163O :  2.12  592O :  2.10  229O :  2.08   52O :  2.07  172O :  2.07   90H :  2.06  496O :  2.04
  655O :  2.03  322O :  1.99  176H :  1.94  603H :  1.92  430O :  1.91   37O :  1.91  262O :  1.85  343O :  1.84  334O :  1.79   42H :  1.76  373O :  1.75  705H :  1.74
  128H :  1.72  167H :  1.72  553O :  1.71  535O :  1.68  352O :  1.68  499O :  1.67  730O :  1.67  203H :  1.66  228H :  1.64  721O :  1.63  580O :  1.61  157O :  1.61
  547O :  1.53   27H :  1.50  362H :  1.50    5H :  1.48  238O :  1.47  330H :  1.46  290H :  1.44    1O :  1.44  664O :  1.41   60H :  1.41  119H :  1.40  265O :  1.39
  189H :  1.38  156H :  1.37  366H :  1.35  563H :  1.35  513H :  1.34  568O :  1.32  643O :  1.31  749H :  1.29  293H :  1.28  712O :  1.27   30H :  1.26  418O :  1.24
  463O :  1.22  126H :  1.22  635H :  1.17  506H :  1.15  543H :  1.15  192H :  1.15   32H :  1.15  596H :  1.14   44H :  1.12  575H :  1.12  544O :  1.11  567H :  1.10
   89H :  1.09  122H :  1.08  640O :  1.07   92H :  1.04  534H :  1.03  727O :  1.03  398H :  1.02  475O :  1.00  341H :  1.00  153H :  1.00  598O :  0.99  233H :  0.97
  295O :  0.96  390H :  0.94  453H :  0.92  462H :  0.89   79O :  0.88  518H :  0.88   63H :  0.86  632H :  0.83  492H :  0.82   54H :  0.81  105H :  0.81  675H :  0.81
  135H :  0.81  216H :  0.80  494H :  0.79  246H :  0.77  458H :  0.77  613O :  0.77  684H :  0.76  606H :  0.76  483H :  0.75  609H :  0.74   72H :  0.74  438H :  0.72
  317H :  0.70  114H :  0.70  723H :  0.69  665H :  0.69  680H :  0.68  196O :  0.68  123H :  0.68  623H :  0.67  542H :  0.67  437H :  0.67  497H :  0.67  204H :  0.65
  104H :  0.62  739O :  0.62  257H :  0.62  556O :  0.60  413H :  0.58  371H :  0.58  213H :  0.58  704H :  0.58  194H :  0.58  327H :  0.58  384H :  0.57  309H :  0.57
  514O :  0.56    8H :  0.55  707H :  0.55  756H :  0.53  692H :  0.53   86H :  0.51  261H :  0.51  738H :  0.50  578H :  0.50  302H :  0.50  161H :  0.50  432H :  0.49
  678H :  0.49  447H :  0.49  368H :  0.49  405H :  0.49  101H :  0.44  243H :  0.44   98H :  0.43  149H :  0.43  669H :  0.43  303H :  0.42   95H :  0.42  168H :  0.42
  143H :  0.41  612H :  0.40  258H :  0.40  538O :  0.37  581H :  0.37  248H :  0.36   69H :  0.36  383H :  0.35   29H :  0.35  572H :  0.34  237H :  0.34  728H :  0.34
  174H :  0.34   65H :  0.34  355O :  0.34  552H :  0.34  668H :  0.33  171H :  0.33  469O :  0.33  185H :  0.32  306H :  0.32   73O :  0.32   93H :  0.31  651H :  0.31
  141H :  0.31   96H :  0.30  117H :  0.30  164H :  0.30  698H :  0.30  173H :  0.30  672H :  0.29  381H :  0.29  486H :  0.29  242H :  0.29  234H :  0.29  515H :  0.29
  647H :  0.29  273H :  0.28  465H :  0.28   99H :  0.28  188H :  0.28  116H :  0.28  336H :  0.28  503H :  0.28  690H :  0.27  716H :  0.27  573H :  0.27  278H :  0.27
  720H :  0.27  208O :  0.27  695H :  0.27  479H :  0.27  448O :  0.27  144H :  0.27   74H :  0.26  312H :  0.26  467H :  0.26  735H :  0.26  495H :  0.26  470H :  0.25
  251H :  0.25   48H :  0.25  468H :  0.25   39H :  0.25  276H :  0.24  587H :  0.24  350H :  0.24  269H :  0.24  378H :  0.23   51H :  0.23  557H :  0.23  652O :  0.23
  444H :  0.22  281H :  0.22  351H :  0.22  266H :  0.22  110H :  0.22  521H :  0.21  726H :  0.21  627H :  0.21  180H :  0.21  387H :  0.21  600H :  0.20  545H :  0.20
  570H :  0.20  407H :  0.20  113H :  0.20  530H :  0.20   66H :  0.19  210H :  0.19  315H :  0.19   50H :  0.19  426H :  0.19  111H :  0.18  380H :  0.18  356H :  0.18
  394O :  0.17   18H :  0.17  489H :  0.17  107H :  0.17  288H :  0.17  719H :  0.17  491H :  0.17  296H :  0.17  147H :  0.17  446H :  0.17  260H :  0.17  108H :  0.16
   24H :  0.16  710H :  0.16  533H :  0.16  752H :  0.16  714H :  0.15  267H :  0.15  711H :  0.15  314H :  0.15  329H :  0.15  206H :  0.15  347H :  0.15  255H :  0.15
  389H :  0.14  324H :  0.14   45H :  0.14  753H :  0.14  240H :  0.14  633H :  0.14  134H :  0.14  159H :  0.13  369H :  0.13  659H :  0.13  428H :  0.13  236H :  0.13
  746H :  0.13    2H :  0.12  747H :  0.12  713H :  0.12  170H :  0.12  500H :  0.12  132H :  0.12  642H :  0.12  212H :  0.12  421O :  0.12  396H :  0.12   21H :  0.12
  582H :  0.12  285H :  0.12   81H :  0.12  197H :  0.11   36H :  0.11  549H :  0.11  300H :  0.11  744H :  0.11  404H :  0.11  399H :  0.11  363H :  0.11  621H :  0.11
  345H :  0.11  558H :  0.10  626H :  0.10  419H :  0.10  374H :  0.10   20H :  0.10   38H :  0.10  663H :  0.10  239H :  0.09  750H :  0.09  464H :  0.09  218H :  0.09
  531H :  0.09  249H :  0.09   26H :  0.09  473H :  0.09  165H :  0.09  311H :  0.08  588H :  0.08  645H :  0.08  146H :  0.08  488H :  0.08  254H :  0.08  617H :  0.08
  222H :  0.08  450H :  0.08  471H :  0.08  639H :  0.08  593H :  0.08  323H :  0.08  638H :  0.08  644H :  0.08   62H :  0.07  321H :  0.07  681H :  0.07  560H :  0.07
  527H :  0.07  200H :  0.07  231H :  0.07  615H :  0.07  630H :  0.07  227H :  0.07
    2 LP   *******   0.00  -7.28445  24.04009 -22.72377  118O : 28.52   31O : 24.64  112O : 23.27  301O : 21.21  661O : 19.51  526O : 19.29  175O : 18.22  100O : 17.19   43O : 14.93  298O : 14.11  520O : 14.03  124O : 13.19
  358O : 12.14   85O : 11.55  328O : 11.53   16O : 11.40  481O : 11.05  121O : 11.03  562O : 10.64   64O : 10.63  313O : 10.48  637O : 10.35  280O : 10.28  151O : 10.11
  571O :  9.98  274O :  9.92  103O :  9.75  502O :  9.61  583O :  9.57  256O :  9.20  412O :  9.10  397O :  8.80  532O :  8.33  691O :  8.16  241O :  8.00  433O :  7.98
  631O :  7.88  226O :  7.78  574O :  7.74  376O :  7.73  148O :  7.71  361O :  7.63   88O :  7.38  109O :  7.37  268O :  7.17  493O :  7.12  232O :  7.01  166O :  6.82
  715O :  6.79  697O :  6.78   19O :  6.72  337O :  6.65  484O :  6.57  289O :  6.55   76O :  6.53   61O :  6.50  511O :  6.29   34O :  6.24  601O :  6.09  523O :  6.09
  160O :  5.95   33H :  5.87   70O :  5.85  388O :  5.84   94O :  5.74   49O :  5.69  178O :  5.65  253O :  5.60  742O :  5.57  688O :  5.48  667O :  5.47    4O :  5.46
  703O :  5.30  679O :  5.23  550O :  5.22  685O :  5.11  217O :  5.10  154O :  5.08  439O :  5.08  460O :  5.06  307O :  5.02  316O :  4.97   82O :  4.96  505O :  4.93
  541O :  4.92  415O :  4.88  202O :  4.87  487O :  4.85  193O :  4.83  331O :  4.73   28O :  4.70  271O :  4.66   13O :  4.65   67O :  4.65  211O :  4.61  364O :  4.59
  451O :  4.58  619O :  4.41   91O :  4.40   22O :  4.38  625O :  4.38   40O :  4.38   97O :  4.29  673O :  4.25  634O :  4.23  565O :  4.11  646O :  4.10  748O :  4.09
  628O :  4.08  391O :  4.02  190O :  4.01  214O :  3.99  106O :  3.96   46O :  3.96  304O :  3.96  409O :  3.95   25O :  3.88  604O :  3.86  736O :  3.81  529O :  3.78
  235O :  3.75  187O :  3.75  403O :  3.71  706O :  3.71  577O :  3.70  406O :  3.68  589O :  3.68  694O :  3.63  472O :  3.60  559O :  3.58  676O :  3.48  127O :  3.48
  169O :  3.47  658O :  3.45  247O :  3.45  457O :  3.44  670O :  3.39  310O :  3.37   55O :  3.34  370O :  3.28  718O :  3.28    7O :  3.20  490O :  3.20  607O :  3.19
  586O :  3.15   10O :  3.13  181O :  3.11  751O :  3.10  724O :  3.09  142O :  3.09  319O :  3.01  754O :  3.00  385O :  2.99  115O :  2.96  340O :  2.92  445O :  2.91
  292O :  2.90  136O :  2.87  286O :  2.83  184O :  2.81  382O :  2.78  259O :  2.76  133O :  2.71  102H :  2.65  277O :  2.64  205O :  2.60  436O :  2.59  177H :  2.58
   58O :  2.56  616O :  2.55  283O :  2.53  478O :  2.53  649O :  2.50  379O :  2.46  466O :  2.38  682O :  2.31  745O :  2.29  120H :  2.27  223O :  2.26  610O :  2.25
  622O :  2.22  349O :  2.22  367O :  2.20  400O :  2.20  139O :  2.20  244O :  2.17  220O :  2.16  442O :  2.16  585H :  2.15  130O :  2.14  250O :  2.09  145O :  2.08
  325O :  2.07  299H :  2.03   84H :  1.99  700O :  1.95  411H :  1.95  517O :  1.91  709O :  1.90  508O :  1.90   17H :  1.88  199O :  1.81  346O :  1.80  427O :  1.79
  454O :  1.79  595O :  1.72  733O :  1.71  424O :  1.69   87H :  1.57  163O :  1.55  592O :  1.54  229O :  1.53   52O :  1.52  172O :  1.52   90H :  1.51  496O :  1.50
  655O :  1.49  322O :  1.46  176H :  1.43  603H :  1.41  430O :  1.41   37O :  1.39  262O :  1.36  343O :  1.35  334O :  1.32  373O :  1.28   42H :  1.28  705H :  1.28
  128H :  1.27  167H :  1.27  553O :  1.26  535O :  1.24  352O :  1.23  499O :  1.23  730O :  1.22  203H :  1.22  228H :  1.20  721O :  1.20  580O :  1.18  157O :  1.18
  547O :  1.13   27H :  1.10  362H :  1.10    5H :  1.09  238O :  1.08  330H :  1.07  290H :  1.06    1O :  1.06  664O :  1.04   60H :  1.04  119H :  1.03  265O :  1.02
  189H :  1.01  156H :  1.01  366H :  1.00  563H :  0.99  513H :  0.98  568O :  0.97  643O :  0.96  749H :  0.95  293H :  0.94  712O :  0.93   30H :  0.92  418O :  0.91
  463O :  0.90  126H :  0.90  635H :  0.86  506H :  0.85  543H :  0.84  192H :  0.84  596H :  0.84   44H :  0.83  575H :  0.82  544O :  0.82  567H :  0.81   89H :  0.80
  122H :  0.80  640O :  0.78   92H :  0.76  534H :  0.76   32H :  0.76  727O :  0.75  398H :  0.75  475O :  0.74  341H :  0.74  153H :  0.73  598O :  0.72  233H :  0.71
  295O :  0.70  390H :  0.69  453H :  0.68  462H :  0.65   79O :  0.65  518H :  0.64   63H :  0.63  632H :  0.61  492H :  0.60   54H :  0.60  105H :  0.59  675H :  0.59
  135H :  0.59  114H :  0.59  216H :  0.59  494H :  0.58  246H :  0.57  458H :  0.56  613O :  0.56  684H :  0.56  606H :  0.56  483H :  0.55  609H :  0.54   72H :  0.54
  317H :  0.53  438H :  0.53  723H :  0.51  665H :  0.51  196O :  0.50  680H :  0.50  123H :  0.50  623H :  0.49  542H :  0.49  437H :  0.49  497H :  0.49  204H :  0.48
  104H :  0.46  739O :  0.46  257H :  0.46  556O :  0.44  413H :  0.43  371H :  0.43  213H :  0.43  704H :  0.43  194H :  0.43  327H :  0.42  384H :  0.42  309H :  0.42
  514O :  0.41    8H :  0.40  707H :  0.40  756H :  0.39  692H :  0.39   86H :  0.38  261H :  0.37  738H :  0.37  578H :  0.37  161H :  0.36  302H :  0.36  432H :  0.36
  678H :  0.36  447H :  0.36  368H :  0.36  405H :  0.36  243H :  0.33  101H :  0.32   98H :  0.32  149H :  0.32  669H :  0.32  168H :  0.30  303H :  0.30  143H :  0.30
  612H :  0.30  258H :  0.29  110H :  0.27   95H :  0.27  538O :  0.27  581H :  0.27  248H :  0.27   69H :  0.26   29H :  0.25  383H :  0.25  572H :  0.25  237H :  0.25
  728H :  0.25  174H :  0.25   65H :  0.25  355O :  0.25  552H :  0.25  668H :  0.24  171H :  0.24  469O :  0.24  185H :  0.24  306H :  0.24   73O :  0.24   93H :  0.23
  651H :  0.23  141H :  0.23  117H :  0.22  164H :  0.22  698H :  0.22   96H :  0.22  173H :  0.22  672H :  0.22  381H :  0.22  486H :  0.22  242H :  0.21  234H :  0.21
  515H :  0.21  647H :  0.21  273H :  0.21  465H :  0.21   99H :  0.21  188H :  0.21  116H :  0.21  336H :  0.20  503H :  0.20  690H :  0.20  573H :  0.20  716H :  0.20
  278H :  0.20  720H :  0.20  208O :  0.20  695H :  0.20  479H :  0.20  448O :  0.20  144H :  0.20  113H :  0.19   74H :  0.19  312H :  0.19  467H :  0.19  735H :  0.19
  495H :  0.19  470H :  0.19  251H :  0.19   48H :  0.19   39H :  0.18  468H :  0.18  276H :  0.18  350H :  0.18  587H :  0.18  269H :  0.17  378H :  0.17   51H :  0.17
  557H :  0.17  652O :  0.17  444H :  0.17  281H :  0.16  266H :  0.16  521H :  0.16  726H :  0.16  627H :  0.16  351H :  0.15  180H :  0.15  387H :  0.15  600H :  0.15
  545H :  0.15  570H :  0.15  407H :  0.14  530H :  0.14   66H :  0.14  210H :  0.14  111H :  0.14  315H :  0.14   50H :  0.14  426H :  0.14  380H :  0.13  356H :  0.13
  394O :  0.13   18H :  0.13  489H :  0.13  107H :  0.13  288H :  0.12  719H :  0.12  491H :  0.12  147H :  0.12  446H :  0.12  260H :  0.12  296H :  0.12  108H :  0.12
   24H :  0.12  710H :  0.12  533H :  0.12  752H :  0.11  714H :  0.11  267H :  0.11  711H :  0.11  329H :  0.11  314H :  0.11  206H :  0.11  347H :  0.11  255H :  0.11
  389H :  0.10   45H :  0.10  753H :  0.10  240H :  0.10  633H :  0.10  134H :  0.10  324H :  0.10  159H :  0.10  369H :  0.09  659H :  0.09  428H :  0.09  236H :  0.09
  746H :  0.09    2H :  0.09  747H :  0.09  713H :  0.09  170H :  0.09  500H :  0.09  132H :  0.09  642H :  0.09  212H :  0.09  421O :  0.09  396H :  0.09   21H :  0.09
  582H :  0.09  285H :  0.09  197H :  0.08   36H :  0.08  549H :  0.08  300H :  0.08  744H :  0.08  404H :  0.08  399H :  0.08  363H :  0.08  621H :  0.08   38H :  0.08
   81H :  0.08  345H :  0.08  558H :  0.07  626H :  0.07  419H :  0.07  374H :  0.07   20H :  0.07  663H :  0.07
    3 LP   *******   0.00  13.12540  42.12864 -12.03130  118O : 25.51  112O : 20.81   31O : 20.20  301O : 18.93  661O : 17.46  526O : 17.25  175O : 16.29   43O : 15.49  100O : 15.38  298O : 12.62  520O : 12.55  124O : 11.78
  358O : 10.86  328O : 10.31   85O : 10.31   16O : 10.21  481O :  9.88  121O :  9.87  562O :  9.52   64O :  9.51  313O :  9.39  637O :  9.26  280O :  9.20  151O :  9.04
  571O :  8.92  274O :  8.87  103O :  8.72  502O :  8.60  583O :  8.56  256O :  8.23  412O :  8.13  397O :  7.87  532O :  7.44  691O :  7.30  241O :  7.16  433O :  7.14
  631O :  7.05  226O :  6.96  148O :  6.95  574O :  6.92  376O :  6.91  361O :  6.81   88O :  6.60  109O :  6.59  268O :  6.43  493O :  6.37  232O :  6.27  166O :  6.11
  715O :  6.08  697O :  6.07   19O :  6.01  337O :  5.89  484O :  5.88  289O :  5.86   76O :  5.84   61O :  5.81  511O :  5.63   34O :  5.62  601O :  5.45  523O :  5.45
   94O :  5.32  160O :  5.32  388O :  5.23   70O :  5.22   49O :  5.09  178O :  5.06  253O :  5.01  742O :  4.98  688O :  4.90  667O :  4.89    4O :  4.88  703O :  4.74
  679O :  4.68  550O :  4.67  685O :  4.57  217O :  4.56  154O :  4.56  439O :  4.54  460O :  4.53  307O :  4.50  316O :  4.45   82O :  4.44  505O :  4.41  541O :  4.40
  415O :  4.36  202O :  4.35  487O :  4.34  193O :  4.32   40O :  4.32  331O :  4.23   28O :  4.21  271O :  4.16   67O :  4.16  211O :  4.13  364O :  4.10  451O :  4.07
  619O :  3.95   91O :  3.94   22O :  3.92  625O :  3.92   13O :  3.87   97O :  3.83   33H :  3.82  673O :  3.80  634O :  3.78  565O :  3.68  646O :  3.67  628O :  3.65
  748O :  3.64  391O :  3.59  190O :  3.59  214O :  3.57  106O :  3.55   46O :  3.54  304O :  3.54  409O :  3.53   25O :  3.47  604O :  3.45  736O :  3.41  529O :  3.38
  187O :  3.36  235O :  3.35  706O :  3.32  403O :  3.32  577O :  3.31  589O :  3.29  406O :  3.28  694O :  3.24  472O :  3.21  559O :  3.20  127O :  3.11  676O :  3.11
  169O :  3.10  658O :  3.09  457O :  3.08  247O :  3.05  670O :  3.03  310O :  3.01   55O :  2.99  370O :  2.94  718O :  2.93    7O :  2.87  490O :  2.87  607O :  2.85
  586O :  2.81   10O :  2.80  181O :  2.78  751O :  2.77  724O :  2.76  142O :  2.76  319O :  2.70  754O :  2.68  385O :  2.68  115O :  2.64  340O :  2.62  445O :  2.60
  292O :  2.59  136O :  2.56  286O :  2.53  184O :  2.51  382O :  2.49  259O :  2.47  133O :  2.42  102H :  2.37  277O :  2.36  205O :  2.32  436O :  2.32  177H :  2.31
   58O :  2.29  616O :  2.28  283O :  2.28  478O :  2.27  649O :  2.24  379O :  2.20  466O :  2.13  682O :  2.07  745O :  2.05  120H :  2.03  223O :  2.02  610O :  2.01
  622O :  1.99  349O :  1.98  367O :  1.97  400O :  1.97  139O :  1.96  244O :  1.94  220O :  1.94  442O :  1.93  585H :  1.92  130O :  1.91  250O :  1.87  145O :  1.86
  325O :  1.85  299H :  1.81   84H :  1.78  700O :  1.74  411H :  1.74  517O :  1.71  709O :  1.70  508O :  1.70   17H :  1.68  199O :  1.62  346O :  1.62  427O :  1.60
  595O :  1.53  733O :  1.53  424O :  1.51  454O :  1.49   87H :  1.40  163O :  1.39  592O :  1.38  229O :  1.37   52O :  1.36  172O :  1.36   90H :  1.35  496O :  1.34
  655O :  1.34  322O :  1.30  176H :  1.28  603H :  1.26  430O :  1.26   37O :  1.25  262O :  1.22  343O :  1.21  334O :  1.18   42H :  1.16  373O :  1.15  705H :  1.14
  128H :  1.13  167H :  1.13  553O :  1.12  535O :  1.10  352O :  1.10  499O :  1.10  730O :  1.09  203H :  1.09  228H :  1.08  721O :  1.07  580O :  1.06  157O :  1.06
  547O :  1.01   27H :  0.99  362H :  0.99    5H :  0.97  238O :  0.97  330H :  0.96  290H :  0.95    1O :  0.95  664O :  0.93   60H :  0.93  119H :  0.92  265O :  0.91
  189H :  0.91  156H :  0.90  366H :  0.89  563H :  0.89  513H :  0.88  568O :  0.87  643O :  0.86  749H :  0.85  293H :  0.84  712O :  0.83  418O :  0.82   30H :  0.81
  463O :  0.80  126H :  0.80  635H :  0.77  506H :  0.76  543H :  0.75  192H :  0.75   32H :  0.75  596H :  0.75  575H :  0.73  544O :  0.73  567H :  0.73   89H :  0.72
  122H :  0.71  640O :  0.69   92H :  0.68  534H :  0.68  727O :  0.67  398H :  0.67  475O :  0.66  341H :  0.66  153H :  0.66  598O :  0.65  233H :  0.64  295O :  0.63
  390H :  0.62  453H :  0.60   44H :  0.58  462H :  0.58  518H :  0.58   79O :  0.57   63H :  0.56  632H :  0.54  492H :  0.54   54H :  0.54  135H :  0.53  675H :  0.53
  105H :  0.53  114H :  0.53  216H :  0.52  494H :  0.52  458H :  0.51  246H :  0.51  613O :  0.50  684H :  0.50  606H :  0.50  483H :  0.50  609H :  0.49  317H :  0.47
  438H :  0.47   72H :  0.47  723H :  0.46  665H :  0.45  196O :  0.45  680H :  0.45  123H :  0.44  623H :  0.44  542H :  0.44  437H :  0.44  497H :  0.44  204H :  0.42
  104H :  0.41  739O :  0.41  257H :  0.41  556O :  0.39  371H :  0.38  413H :  0.38  213H :  0.38  704H :  0.38  194H :  0.38  327H :  0.38  384H :  0.38  309H :  0.37
  514O :  0.37    8H :  0.36  707H :  0.36  756H :  0.35  692H :  0.35   86H :  0.34  261H :  0.33  738H :  0.33  578H :  0.33  302H :  0.33  161H :  0.33  432H :  0.32
  678H :  0.32  447H :  0.32  368H :  0.32  405H :  0.32  149H :  0.30  243H :  0.29  101H :  0.29   98H :  0.28  669H :  0.28  303H :  0.28   95H :  0.27  168H :  0.27
  143H :  0.27  612H :  0.27  258H :  0.26  110H :  0.25  538O :  0.24  581H :  0.24   69H :  0.24  248H :  0.23  383H :  0.23  572H :  0.23  237H :  0.23  728H :  0.23
  174H :  0.22   29H :  0.22   65H :  0.22  355O :  0.22  552H :  0.22  668H :  0.22  171H :  0.22  469O :  0.22  185H :  0.21  306H :  0.21   73O :  0.21   93H :  0.21
  651H :  0.21  141H :  0.20   96H :  0.20  117H :  0.20  164H :  0.20  698H :  0.20  173H :  0.19  672H :  0.19  381H :  0.19  486H :  0.19  242H :  0.19  234H :  0.19
  515H :  0.19  647H :  0.19  273H :  0.19  188H :  0.19  465H :  0.19   99H :  0.19  116H :  0.18  336H :  0.18  503H :  0.18  690H :  0.18  573H :  0.18  716H :  0.18
  278H :  0.18  720H :  0.18  208O :  0.18  695H :  0.18  479H :  0.18  448O :  0.18  144H :  0.18  113H :  0.18   74H :  0.17  312H :  0.17  467H :  0.17  735H :  0.17
  495H :  0.17  251H :  0.17  470H :  0.17   48H :  0.17  468H :  0.17   39H :  0.16  276H :  0.16  350H :  0.16  587H :  0.16  269H :  0.16  378H :  0.15   51H :  0.15
  557H :  0.15  652O :  0.15  444H :  0.15  281H :  0.15  266H :  0.15  521H :  0.14  726H :  0.14  627H :  0.14  351H :  0.14  180H :  0.14  387H :  0.14  600H :  0.13
  545H :  0.13  570H :  0.13  407H :  0.13  530H :  0.13  210H :  0.12   66H :  0.12  315H :  0.12   50H :  0.12  426H :  0.12  111H :  0.12  380H :  0.12  356H :  0.12
  394O :  0.11   18H :  0.11  489H :  0.11  107H :  0.11  288H :  0.11  719H :  0.11  491H :  0.11  147H :  0.11  446H :  0.11  260H :  0.11  296H :  0.11  108H :  0.11
   24H :  0.11  710H :  0.11  533H :  0.10  752H :  0.10  714H :  0.10  267H :  0.10  711H :  0.10  314H :  0.10  329H :  0.10  347H :  0.10  206H :  0.10  255H :  0.10
  389H :  0.09  324H :  0.09  240H :  0.09  633H :  0.09  134H :  0.09  753H :  0.08  159H :  0.08  369H :  0.08  659H :  0.08  428H :  0.08  236H :  0.08  746H :  0.08
    2H :  0.08  747H :  0.08  170H :  0.08  713H :  0.08  500H :  0.08  132H :  0.08  642H :  0.08  212H :  0.08  421O :  0.08  396H :  0.08   21H :  0.08  582H :  0.08
  285H :  0.08   81H :  0.08  197H :  0.08  549H :  0.07   36H :  0.07  300H :  0.07  744H :  0.07  404H :  0.07  399H :  0.07  363H :  0.07  621H :  0.07
    4 LP   *******   0.00  -2.96694  19.28886 -43.50168  118O : 25.45  112O : 20.77  301O : 20.45   31O : 20.20  661O : 17.42  526O : 17.21  175O : 16.26  100O : 15.34   43O : 13.34  298O : 12.59  520O : 12.52  124O : 11.77
  358O : 10.84   85O : 10.54  328O : 10.29   16O : 10.19  481O :  9.85  121O :  9.85  562O :  9.49   64O :  9.49  313O :  9.37  637O :  9.23  280O :  9.18  151O :  9.02
  571O :  8.90  274O :  8.85  103O :  8.70  502O :  8.58  583O :  8.54  256O :  8.21  412O :  8.11  397O :  7.86  532O :  7.42  691O :  7.28  241O :  7.14  433O :  7.12
  631O :  7.03  226O :  6.94  574O :  6.90  376O :  6.89  148O :  6.88  361O :  6.81   88O :  6.59  109O :  6.56  268O :  6.39  493O :  6.35  232O :  6.25  166O :  6.09
  715O :  6.06  697O :  6.05   19O :  5.99  337O :  5.87  484O :  5.86  289O :  5.84   76O :  5.83   61O :  5.79   34O :  5.62  511O :  5.60  523O :  5.43  601O :  5.42
  160O :  5.31   94O :  5.30   70O :  5.23  388O :  5.21   49O :  5.08  178O :  5.04  253O :  5.00  742O :  4.97  688O :  4.89  667O :  4.88    4O :  4.87  703O :  4.72
  679O :  4.67  550O :  4.65  685O :  4.56  217O :  4.55  154O :  4.55  439O :  4.53  460O :  4.52  307O :  4.49  316O :  4.44   82O :  4.43  541O :  4.39  415O :  4.35
  202O :  4.34  505O :  4.33  487O :  4.33  193O :  4.31   40O :  4.31  331O :  4.22   28O :  4.19  271O :  4.16   67O :  4.15   13O :  4.13  211O :  4.11  364O :  4.10
  451O :  4.09  619O :  3.94   91O :  3.93  625O :  3.91   22O :  3.91   97O :  3.82   33H :  3.82  673O :  3.79  634O :  3.78  565O :  3.68  646O :  3.66  628O :  3.64
  748O :  3.63  391O :  3.58  190O :  3.58  214O :  3.56  106O :  3.54   46O :  3.54  409O :  3.53  304O :  3.53   25O :  3.46  604O :  3.44  736O :  3.40  529O :  3.37
  235O :  3.35  187O :  3.34  403O :  3.31  706O :  3.31  577O :  3.30  589O :  3.28  406O :  3.27  694O :  3.24  472O :  3.20  559O :  3.20  127O :  3.11  676O :  3.11
  169O :  3.09  658O :  3.08  247O :  3.08  457O :  3.07  670O :  3.02  310O :  3.00   55O :  2.98  370O :  2.93  718O :  2.92  490O :  2.86    7O :  2.85  607O :  2.85
  586O :  2.81   10O :  2.79  181O :  2.78  751O :  2.76  724O :  2.76  142O :  2.75  319O :  2.69  754O :  2.67  385O :  2.67  115O :  2.64  340O :  2.61  445O :  2.59
  292O :  2.59  136O :  2.56  286O :  2.53  184O :  2.50  382O :  2.48  259O :  2.46  133O :  2.42  102H :  2.37  277O :  2.35  205O :  2.32  436O :  2.31  177H :  2.30
   58O :  2.29  616O :  2.28  478O :  2.27  283O :  2.26  649O :  2.23  379O :  2.20  466O :  2.12  682O :  2.06  745O :  2.05  120H :  2.03  223O :  2.02  610O :  2.01
  622O :  1.98  349O :  1.98  367O :  1.97  400O :  1.96  139O :  1.96  244O :  1.94  442O :  1.92  585H :  1.92  130O :  1.91  250O :  1.87  145O :  1.85  325O :  1.85
  299H :  1.81   84H :  1.77  411H :  1.74  700O :  1.74  517O :  1.71  220O :  1.71  709O :  1.70  508O :  1.70   17H :  1.67  199O :  1.61  346O :  1.61  454O :  1.60
  427O :  1.60  595O :  1.53  733O :  1.53  424O :  1.51   87H :  1.40  163O :  1.39  592O :  1.38  229O :  1.37   52O :  1.36  172O :  1.35   90H :  1.35  496O :  1.34
  655O :  1.33  322O :  1.30  176H :  1.27  603H :  1.26  430O :  1.25   37O :  1.25  262O :  1.21  343O :  1.21  334O :  1.17   42H :  1.17  373O :  1.14  705H :  1.14
  128H :  1.13  167H :  1.13  553O :  1.12  535O :  1.10  352O :  1.10  499O :  1.09  730O :  1.09  203H :  1.09  228H :  1.07  721O :  1.07  580O :  1.05  157O :  1.05
  547O :  1.00   27H :  0.99  362H :  0.98    5H :  0.97  238O :  0.96  330H :  0.96  290H :  0.95    1O :  0.94  664O :  0.93   60H :  0.92  119H :  0.92  265O :  0.91
  189H :  0.90  156H :  0.90  366H :  0.89  563H :  0.89  513H :  0.88  568O :  0.87  643O :  0.86  749H :  0.85  293H :  0.84  712O :  0.83   30H :  0.83  418O :  0.81
  463O :  0.80  126H :  0.80  635H :  0.77  506H :  0.77   32H :  0.76  543H :  0.75  192H :  0.75  596H :  0.75   44H :  0.74  575H :  0.73  544O :  0.73  567H :  0.72
   89H :  0.72  122H :  0.71  640O :  0.69   92H :  0.68  534H :  0.68  727O :  0.67  398H :  0.67  475O :  0.66  341H :  0.66  153H :  0.65  598O :  0.65  233H :  0.64
  295O :  0.63  390H :  0.62  453H :  0.60  462H :  0.58   79O :  0.57  518H :  0.57   63H :  0.56  632H :  0.54  492H :  0.54   54H :  0.53  105H :  0.53  675H :  0.53
  135H :  0.53  114H :  0.53  216H :  0.52  494H :  0.52  246H :  0.50  458H :  0.50  613O :  0.50  684H :  0.50  606H :  0.50  483H :  0.49  609H :  0.49   72H :  0.48
  317H :  0.47  438H :  0.47  723H :  0.46  665H :  0.45  680H :  0.44  123H :  0.44  542H :  0.44  623H :  0.44  437H :  0.44  497H :  0.44  204H :  0.43  104H :  0.41
  739O :  0.41  257H :  0.41  556O :  0.39  413H :  0.38  371H :  0.38  213H :  0.38  704H :  0.38  194H :  0.38  327H :  0.38  384H :  0.38  309H :  0.37  514O :  0.36
  196O :  0.36  707H :  0.36    8H :  0.36  756H :  0.35  692H :  0.34   86H :  0.34  261H :  0.33  738H :  0.33  578H :  0.33  161H :  0.33  432H :  0.32  678H :  0.32
  447H :  0.32  368H :  0.32  405H :  0.32  243H :  0.29  101H :  0.29   98H :  0.28  149H :  0.28  669H :  0.28  168H :  0.27  143H :  0.27  302H :  0.27  612H :  0.27
   95H :  0.27  258H :  0.26  110H :  0.24  538O :  0.24  581H :  0.24  248H :  0.24   69H :  0.23  383H :  0.23   29H :  0.23  303H :  0.23  572H :  0.23  237H :  0.22
  728H :  0.22  174H :  0.22   65H :  0.22  355O :  0.22  552H :  0.22  668H :  0.22  171H :  0.22  469O :  0.22  185H :  0.21  306H :  0.21   73O :  0.21   93H :  0.21
  651H :  0.21   96H :  0.20  141H :  0.20  117H :  0.20  164H :  0.20  698H :  0.20  173H :  0.19  672H :  0.19  381H :  0.19  486H :  0.19  242H :  0.19  234H :  0.19
  515H :  0.19  647H :  0.19  273H :  0.19  465H :  0.19   99H :  0.19  188H :  0.18  116H :  0.18  336H :  0.18  503H :  0.18  690H :  0.18  573H :  0.18  716H :  0.18
  278H :  0.18  720H :  0.18  208O :  0.18  479H :  0.18  695H :  0.18  448O :  0.18  113H :  0.18  144H :  0.18   74H :  0.17  312H :  0.17  467H :  0.17  735H :  0.17
  495H :  0.17  470H :  0.17  251H :  0.17   48H :  0.17  468H :  0.16   39H :  0.16  276H :  0.16  350H :  0.16  587H :  0.16  269H :  0.16  378H :  0.15   51H :  0.15
  557H :  0.15  652O :  0.15  444H :  0.15  281H :  0.15  266H :  0.14  521H :  0.14  726H :  0.14  627H :  0.14  351H :  0.14  180H :  0.14  387H :  0.14  600H :  0.13
  545H :  0.13  570H :  0.13  407H :  0.13  530H :  0.13   66H :  0.12  210H :  0.12  315H :  0.12  111H :  0.12   50H :  0.12  426H :  0.12  380H :  0.12  356H :  0.12
  394O :  0.11   18H :  0.11  489H :  0.11  107H :  0.11  288H :  0.11  719H :  0.11  491H :  0.11  147H :  0.11  446H :  0.11  260H :  0.11  296H :  0.11  108H :  0.11
   24H :  0.11  710H :  0.10  533H :  0.10  752H :  0.10  714H :  0.10  267H :  0.10  314H :  0.10  711H :  0.10  329H :  0.10  206H :  0.10  347H :  0.10  255H :  0.10
  389H :  0.09  324H :  0.09   45H :  0.09  753H :  0.09  240H :  0.09  633H :  0.09  134H :  0.09  159H :  0.08  369H :  0.08  659H :  0.08  428H :  0.08  197H :  0.08
  236H :  0.08  746H :  0.08    2H :  0.08  747H :  0.08  713H :  0.08  170H :  0.08  500H :  0.08  132H :  0.08  642H :  0.08  212H :  0.08  421O :  0.08   21H :  0.08
  396H :  0.08  582H :  0.08  285H :  0.08   81H :  0.08   36H :  0.08  549H :  0.07  300H :  0.07  744H :  0.07  404H :  0.07  399H :  0.07  363H :  0.07  621H :  0.07
    5 LP   *******   0.00  18.54256  32.40121   1.81745  118O : 23.39  112O : 19.09   31O : 18.54  301O : 17.36  661O : 16.01  526O : 15.82  175O : 14.94  100O : 14.10   43O : 12.24  124O : 12.21  298O : 11.59  520O : 11.51
  358O :  9.96   85O :  9.46  328O :  9.46   16O :  9.36  481O :  9.06  121O :  9.03  562O :  8.73   64O :  8.72  313O :  8.61  637O :  8.49  280O :  8.44  151O :  8.29
  571O :  8.18  274O :  8.14  103O :  8.01  502O :  7.89  583O :  7.85  256O :  7.55  412O :  7.45  397O :  7.22  532O :  6.82  691O :  6.70  241O :  6.57  433O :  6.54
  631O :  6.46  226O :  6.38  574O :  6.34  376O :  6.34  148O :  6.33  361O :  6.26   88O :  6.05  109O :  6.03  268O :  5.88  493O :  5.84  232O :  5.75  166O :  5.64
  715O :  5.57  697O :  5.56   19O :  5.51  337O :  5.40  484O :  5.39  289O :  5.37   76O :  5.36   61O :  5.33  511O :  5.16   34O :  5.16  601O :  5.00  523O :  4.99
   94O :  4.89  160O :  4.88   70O :  4.80  388O :  4.78   49O :  4.68  178O :  4.64  253O :  4.60  742O :  4.57    4O :  4.54  688O :  4.50  667O :  4.49  703O :  4.34
  679O :  4.29  550O :  4.28  685O :  4.19  217O :  4.19  154O :  4.18  439O :  4.16  460O :  4.15  307O :  4.12   82O :  4.12  316O :  4.08  505O :  4.04  541O :  4.04
  415O :  4.00  202O :  3.99  487O :  3.98  193O :  3.96   40O :  3.95  331O :  3.88   28O :  3.85  271O :  3.82   67O :  3.81   13O :  3.80  211O :  3.79  364O :  3.77
  451O :  3.76  619O :  3.62   91O :  3.61  625O :  3.60   22O :  3.60   97O :  3.51   33H :  3.51  673O :  3.49  634O :  3.47  565O :  3.38  646O :  3.37  628O :  3.35
  748O :  3.34  391O :  3.29  190O :  3.29  214O :  3.27   46O :  3.25  106O :  3.25  304O :  3.25  409O :  3.24   25O :  3.18  604O :  3.17  736O :  3.13  529O :  3.10
  235O :  3.08  187O :  3.06  403O :  3.04  706O :  3.04  577O :  3.03  589O :  3.02  406O :  3.01  694O :  2.97  472O :  2.94  559O :  2.94  127O :  2.85  676O :  2.85
  169O :  2.84  658O :  2.83  247O :  2.83  457O :  2.82  670O :  2.78  310O :  2.76   55O :  2.74  370O :  2.69  718O :  2.69    7O :  2.63  490O :  2.63  607O :  2.62
  586O :  2.58   10O :  2.57  181O :  2.55  724O :  2.54  142O :  2.53  751O :  2.52  319O :  2.47  385O :  2.45  754O :  2.45  115O :  2.42  340O :  2.40  445O :  2.38
  292O :  2.38  136O :  2.35  286O :  2.32  184O :  2.30  382O :  2.28  259O :  2.26  133O :  2.22  102H :  2.17  277O :  2.16  205O :  2.13  436O :  2.13  177H :  2.12
   58O :  2.10  616O :  2.09  283O :  2.08  478O :  2.08  649O :  2.05  379O :  2.02  466O :  1.95  682O :  1.90  745O :  1.88  120H :  1.86  223O :  1.86  610O :  1.85
  622O :  1.82  349O :  1.82  367O :  1.81  400O :  1.80  139O :  1.80  244O :  1.78  220O :  1.78  442O :  1.77  585H :  1.76  130O :  1.76  250O :  1.72  145O :  1.70
  325O :  1.70  299H :  1.66   84H :  1.65  700O :  1.60  411H :  1.60  517O :  1.57  709O :  1.56  508O :  1.56   17H :  1.54  199O :  1.48  346O :  1.48  427O :  1.47
  454O :  1.46  595O :  1.41  733O :  1.40  424O :  1.39   87H :  1.28  163O :  1.27  592O :  1.27  229O :  1.26   52O :  1.25  172O :  1.25   90H :  1.24  496O :  1.23
  655O :  1.23  322O :  1.20  176H :  1.17  603H :  1.16  430O :  1.15   37O :  1.15  262O :  1.12  343O :  1.11  334O :  1.08   42H :  1.07  373O :  1.05  167H :  1.05
  705H :  1.05  128H :  1.04  553O :  1.03  535O :  1.01  352O :  1.01  499O :  1.01  730O :  1.00  203H :  1.00  228H :  0.99  721O :  0.99  580O :  0.97  157O :  0.97
  547O :  0.92    5H :  0.92   27H :  0.91  362H :  0.90  238O :  0.89  330H :  0.88  290H :  0.87    1O :  0.87  664O :  0.85   60H :  0.85  119H :  0.84  265O :  0.84
  189H :  0.83  156H :  0.83  366H :  0.82  563H :  0.81  513H :  0.81  568O :  0.80  643O :  0.79  749H :  0.78  293H :  0.77  712O :  0.76   30H :  0.76  418O :  0.75
  463O :  0.74  635H :  0.71  506H :  0.70  543H :  0.69  192H :  0.69   32H :  0.69  596H :  0.69   44H :  0.68  575H :  0.67  544O :  0.67  567H :  0.67   89H :  0.66
  122H :  0.65  640O :  0.64   92H :  0.62  534H :  0.62  727O :  0.62  398H :  0.62  475O :  0.61  341H :  0.60  153H :  0.60  598O :  0.59  233H :  0.58  295O :  0.58
  390H :  0.56  126H :  0.56  453H :  0.55  462H :  0.53   79O :  0.53  518H :  0.53   63H :  0.52  632H :  0.50  492H :  0.49   54H :  0.49  105H :  0.49  675H :  0.49
  135H :  0.49  114H :  0.48  216H :  0.48  494H :  0.48  458H :  0.46  246H :  0.46  613O :  0.46  684H :  0.46  606H :  0.46  483H :  0.45  609H :  0.45   72H :  0.44
  317H :  0.43  438H :  0.43  723H :  0.42  665H :  0.42  680H :  0.41  196O :  0.41  123H :  0.41  623H :  0.41  542H :  0.41  437H :  0.40  497H :  0.40  204H :  0.39
  104H :  0.38  739O :  0.38  257H :  0.37  556O :  0.36  213H :  0.35  371H :  0.35  413H :  0.35  704H :  0.35  194H :  0.35  327H :  0.35  384H :  0.35  309H :  0.34
  514O :  0.34    8H :  0.33  707H :  0.33  756H :  0.32  692H :  0.32   86H :  0.31  261H :  0.31  738H :  0.30  578H :  0.30  302H :  0.30  161H :  0.30  432H :  0.30
  678H :  0.30  447H :  0.30  368H :  0.30  405H :  0.29  243H :  0.27  101H :  0.27  149H :  0.26   98H :  0.26  669H :  0.26  303H :  0.26   95H :  0.25  143H :  0.25
  612H :  0.24  168H :  0.24  258H :  0.24  110H :  0.22  538O :  0.22  581H :  0.22  248H :  0.22   69H :  0.22   29H :  0.21  383H :  0.21  572H :  0.21  237H :  0.21
  728H :  0.21  174H :  0.21   65H :  0.20  355O :  0.20  552H :  0.20  668H :  0.20  171H :  0.20  469O :  0.20  185H :  0.20  306H :  0.20   93H :  0.19  651H :  0.19
   73O :  0.19  141H :  0.19   96H :  0.18  117H :  0.18  164H :  0.18  698H :  0.18  173H :  0.18  672H :  0.18  381H :  0.18  486H :  0.18  242H :  0.17  234H :  0.17
  515H :  0.17  647H :  0.17  273H :  0.17  465H :  0.17   99H :  0.17  116H :  0.17  188H :  0.17  336H :  0.17  503H :  0.17  690H :  0.17  573H :  0.16  716H :  0.16
  278H :  0.16  720H :  0.16  208O :  0.16  448O :  0.16  695H :  0.16  479H :  0.16  144H :  0.16  113H :  0.16   74H :  0.16  312H :  0.16  467H :  0.16  735H :  0.16
  495H :  0.15  251H :  0.15  470H :  0.15   48H :  0.15  468H :  0.15   39H :  0.15  276H :  0.15  350H :  0.15  587H :  0.15  269H :  0.14   51H :  0.14  378H :  0.14
  557H :  0.14  652O :  0.14  444H :  0.14  281H :  0.13  266H :  0.13  521H :  0.13  726H :  0.13  627H :  0.13  351H :  0.13  180H :  0.13  387H :  0.13  600H :  0.12
  545H :  0.12  753H :  0.12  570H :  0.12  407H :  0.12  530H :  0.12   66H :  0.11  210H :  0.11  315H :  0.11  111H :  0.11   50H :  0.11  426H :  0.11  380H :  0.11
  356H :  0.11  394O :  0.10   18H :  0.10  489H :  0.10  107H :  0.10  288H :  0.10  719H :  0.10  491H :  0.10  147H :  0.10  446H :  0.10  260H :  0.10  296H :  0.10
  108H :  0.10   24H :  0.10  710H :  0.10  533H :  0.10  714H :  0.09  267H :  0.09  711H :  0.09  329H :  0.09  314H :  0.09  206H :  0.09  347H :  0.09  255H :  0.09
  752H :  0.09   45H :  0.09  389H :  0.09  324H :  0.09  240H :  0.08  633H :  0.08  134H :  0.08  159H :  0.08  369H :  0.08  659H :  0.08  428H :  0.08  236H :  0.08
  746H :  0.08    2H :  0.08  747H :  0.07  713H :  0.07  170H :  0.07  500H :  0.07  132H :  0.07  642H :  0.07  212H :  0.07  421O :  0.07   21H :  0.07  396H :  0.07
  582H :  0.07  285H :  0.07
    6 LP   *******   0.00 -28.65797  17.64563   2.17051  118O : 22.39  112O : 18.26   31O : 17.75  661O : 17.11  301O : 16.61  526O : 15.15  175O : 14.30  100O : 13.50   43O : 11.73  298O : 11.08  520O : 11.02  124O : 10.36
  358O :  9.53   85O :  9.05  328O :  9.05   16O :  8.96  481O :  8.67  121O :  8.66  562O :  8.35   64O :  8.35  313O :  8.24  637O :  8.13  280O :  8.07  151O :  7.94
  571O :  7.83  274O :  7.79  103O :  7.66  502O :  7.55  583O :  7.51  256O :  7.22  412O :  7.14  397O :  6.91  532O :  6.53  691O :  6.41  241O :  6.28  433O :  6.26
  631O :  6.19  226O :  6.11  574O :  6.07  376O :  6.07  148O :  6.05  361O :  5.99   88O :  5.80  109O :  5.77  268O :  5.63  493O :  5.59  232O :  5.50  166O :  5.35
  715O :  5.33  697O :  5.32   19O :  5.27  337O :  5.16  484O :  5.14  289O :  5.14   76O :  5.13   61O :  5.10  511O :  4.94   34O :  4.94  601O :  4.78  523O :  4.78
   94O :  4.68  160O :  4.67   70O :  4.60  388O :  4.59   49O :  4.47  178O :  4.44  253O :  4.40  742O :  4.37  688O :  4.30  667O :  4.29    4O :  4.29  703O :  4.16
  679O :  4.11  550O :  4.10  685O :  4.01  217O :  4.01  154O :  4.00  439O :  3.99  460O :  3.97  307O :  3.95  316O :  3.92   82O :  3.90  505O :  3.87  541O :  3.86
  415O :  3.83  202O :  3.82  487O :  3.81  193O :  3.79   40O :  3.78  331O :  3.71   28O :  3.69  271O :  3.66   67O :  3.65   13O :  3.64  211O :  3.62  364O :  3.61
  451O :  3.60  619O :  3.46   91O :  3.46  625O :  3.44   22O :  3.44   97O :  3.36   33H :  3.36  673O :  3.34  634O :  3.32  565O :  3.23  646O :  3.22  628O :  3.21
  748O :  3.20  391O :  3.15  190O :  3.15  214O :  3.13  106O :  3.11   46O :  3.11  304O :  3.11  409O :  3.10   25O :  3.04  604O :  3.03  736O :  2.99  529O :  2.97
  187O :  2.94  235O :  2.92  403O :  2.91  706O :  2.91  577O :  2.90  589O :  2.89  406O :  2.88  694O :  2.85  472O :  2.81  559O :  2.81  127O :  2.73  676O :  2.73
  169O :  2.72  658O :  2.71  247O :  2.71  457O :  2.70  670O :  2.65  310O :  2.64   55O :  2.62  370O :  2.58  718O :  2.57    7O :  2.52  490O :  2.51  607O :  2.50
  586O :  2.47  181O :  2.44  751O :  2.43  724O :  2.43  142O :  2.42  319O :  2.37   10O :  2.36  754O :  2.35  385O :  2.35  115O :  2.32  340O :  2.30  445O :  2.28
  292O :  2.28  136O :  2.24  286O :  2.22  184O :  2.20  382O :  2.19  259O :  2.17  133O :  2.12  102H :  2.08  277O :  2.07  205O :  2.04  436O :  2.03  177H :  2.02
   58O :  2.01  616O :  2.00  283O :  1.99  478O :  1.99  649O :  1.96  379O :  1.93  466O :  1.86  349O :  1.82  682O :  1.82  745O :  1.80  120H :  1.78  223O :  1.78
  610O :  1.77  622O :  1.74  367O :  1.73  400O :  1.73  244O :  1.71  220O :  1.70  442O :  1.69  585H :  1.69  139O :  1.68  130O :  1.68  250O :  1.64  145O :  1.63
  325O :  1.63  299H :  1.59   84H :  1.56  700O :  1.53  411H :  1.53  517O :  1.50  709O :  1.49  508O :  1.49   17H :  1.47  199O :  1.42  346O :  1.41  454O :  1.41
  427O :  1.41  595O :  1.35  733O :  1.34  424O :  1.33   87H :  1.23  163O :  1.22  592O :  1.21  229O :  1.20   52O :  1.20  172O :  1.19   90H :  1.19  496O :  1.18
  655O :  1.17  322O :  1.15  176H :  1.12  603H :  1.11  430O :  1.10   37O :  1.10  262O :  1.07  343O :  1.06  334O :  1.03   42H :  1.03  373O :  1.01  705H :  1.00
  128H :  1.00  167H :  0.99  553O :  0.99  535O :  0.97  352O :  0.97  499O :  0.96  730O :  0.96  203H :  0.96  228H :  0.94  721O :  0.94  580O :  0.94  157O :  0.93
  547O :  0.88   27H :  0.87  362H :  0.87    5H :  0.85  238O :  0.85  330H :  0.84  290H :  0.83    1O :  0.83  664O :  0.82   60H :  0.81  119H :  0.81  265O :  0.80
  189H :  0.79  156H :  0.79  366H :  0.78  563H :  0.78  513H :  0.77  568O :  0.76  643O :  0.76  749H :  0.75  293H :  0.74  712O :  0.73   30H :  0.73  418O :  0.72
  463O :  0.70  126H :  0.70  635H :  0.68  506H :  0.67  543H :  0.66  192H :  0.66   32H :  0.66  596H :  0.66   44H :  0.65  575H :  0.64  544O :  0.64  567H :  0.64
   89H :  0.63  122H :  0.62  640O :  0.60   92H :  0.60  534H :  0.60  727O :  0.59  398H :  0.59  475O :  0.58  341H :  0.58  153H :  0.58  598O :  0.56  233H :  0.56
  295O :  0.55  390H :  0.54  453H :  0.53  462H :  0.51  518H :  0.50   63H :  0.49   79O :  0.49  632H :  0.48  492H :  0.47   54H :  0.47  675H :  0.47  105H :  0.47
  135H :  0.47  114H :  0.46  216H :  0.46  494H :  0.46  246H :  0.44  458H :  0.44  613O :  0.44  684H :  0.44  606H :  0.44  483H :  0.44  609H :  0.43   72H :  0.42
  438H :  0.41  317H :  0.41  723H :  0.40  665H :  0.40  680H :  0.39  196O :  0.39  123H :  0.39  623H :  0.39  542H :  0.39  437H :  0.39  497H :  0.39  204H :  0.37
  104H :  0.36  739O :  0.36  257H :  0.36  556O :  0.34  413H :  0.34  371H :  0.34  213H :  0.34  704H :  0.34  194H :  0.33  327H :  0.33  384H :  0.33  141H :  0.33
  309H :  0.33  514O :  0.32    8H :  0.32  707H :  0.32  756H :  0.31  692H :  0.30   86H :  0.30  261H :  0.29  738H :  0.29  578H :  0.29  302H :  0.29  161H :  0.29
  432H :  0.28  678H :  0.28  447H :  0.28  368H :  0.28  405H :  0.28  243H :  0.26  101H :  0.25   98H :  0.25  149H :  0.25  669H :  0.25  303H :  0.24   95H :  0.24
  168H :  0.24  143H :  0.23  612H :  0.23  258H :  0.23  581H :  0.22  110H :  0.22  538O :  0.21  248H :  0.21   69H :  0.21   29H :  0.20  383H :  0.20  572H :  0.20
  728H :  0.20  237H :  0.20  174H :  0.20   65H :  0.20  355O :  0.19  552H :  0.19  668H :  0.19  171H :  0.19  469O :  0.19  185H :  0.19  306H :  0.19   73O :  0.19
   93H :  0.18  651H :  0.18  164H :  0.18   96H :  0.17  117H :  0.17  698H :  0.17  173H :  0.17  381H :  0.17  242H :  0.17  234H :  0.17  515H :  0.17  647H :  0.17
  273H :  0.16  465H :  0.16   99H :  0.16  188H :  0.16  672H :  0.16  116H :  0.16  336H :  0.16  503H :  0.16  690H :  0.16  573H :  0.16  716H :  0.16  278H :  0.16
  720H :  0.16  208O :  0.16  695H :  0.16  479H :  0.16  448O :  0.16  144H :  0.15  113H :  0.15   74H :  0.15  312H :  0.15  467H :  0.15  350H :  0.15  735H :  0.15
  495H :  0.15  470H :  0.15  251H :  0.15   48H :  0.15  468H :  0.14   39H :  0.14  276H :  0.14  587H :  0.14  269H :  0.14  378H :  0.13  351H :  0.13   51H :  0.13
  557H :  0.13  652O :  0.13  444H :  0.13  281H :  0.13  266H :  0.13  521H :  0.12  726H :  0.12  627H :  0.12  486H :  0.12  180H :  0.12  387H :  0.12  600H :  0.12
  545H :  0.12  570H :  0.12  407H :  0.11  530H :  0.11   66H :  0.11  210H :  0.11  315H :  0.11  111H :  0.11   50H :  0.11  426H :  0.11  380H :  0.10  356H :  0.10
  394O :  0.10   18H :  0.10  489H :  0.10  107H :  0.10  288H :  0.10  719H :  0.10  491H :  0.10  147H :  0.10  446H :  0.10  260H :  0.10  296H :  0.10  108H :  0.09
   24H :  0.09  710H :  0.09  533H :  0.09  752H :  0.09  714H :  0.09  267H :  0.09  711H :  0.09  314H :  0.09  329H :  0.09  347H :  0.09  206H :  0.09  255H :  0.08
  389H :  0.08  324H :  0.08   45H :  0.08  753H :  0.08  240H :  0.08  134H :  0.08  633H :  0.08  663H :  0.08  159H :  0.07  369H :  0.07  659H :  0.07  428H :  0.07
  236H :  0.07  746H :  0.07    2H :  0.07  582H :  0.07  747H :  0.07  170H :  0.07  713H :  0.07  500H :  0.07  132H :  0.07
    7 LP   *******   0.00  35.95038   2.01409   1.58622  118O : 20.25  112O : 16.52   31O : 16.05  301O : 15.02  100O : 14.54  661O : 13.86  526O : 13.69  175O : 12.93   43O : 10.61  298O : 10.03  520O :  9.96  124O :  9.36
  358O :  8.61   85O :  8.19  328O :  8.18   16O :  8.10  481O :  7.84  121O :  7.79  562O :  7.55   64O :  7.54  313O :  7.45  637O :  7.35  151O :  7.20  280O :  7.19
  571O :  7.08  274O :  7.04  103O :  6.93  502O :  6.83  583O :  6.79  256O :  6.53  397O :  6.25  412O :  6.22  532O :  5.90  691O :  5.79  241O :  5.68  433O :  5.66
  631O :  5.59  226O :  5.52  574O :  5.49  376O :  5.48  148O :  5.47  361O :  5.42  109O :  5.22   88O :  5.21  268O :  5.09  493O :  5.05  232O :  4.97  166O :  4.84
  715O :  4.82  697O :  4.81   19O :  4.77  337O :  4.67  484O :  4.66  289O :  4.65   76O :  4.63   61O :  4.61  511O :  4.47   34O :  4.46  601O :  4.32  523O :  4.32
   94O :  4.23  160O :  4.23   70O :  4.16  388O :  4.15   49O :  4.04  178O :  4.01  253O :  3.97  742O :  3.95  688O :  3.89  667O :  3.88    4O :  3.88  703O :  3.76
  679O :  3.72  550O :  3.70  685O :  3.63  154O :  3.62  217O :  3.62   82O :  3.60  439O :  3.60  460O :  3.59  307O :  3.57  316O :  3.53  505O :  3.50  541O :  3.49
  415O :  3.46  202O :  3.45  487O :  3.44   40O :  3.42  193O :  3.41  331O :  3.36   28O :  3.33  271O :  3.31   67O :  3.30   13O :  3.29  211O :  3.27  364O :  3.26
  451O :  3.25   91O :  3.13  619O :  3.12  625O :  3.11   22O :  3.10   97O :  3.05   33H :  3.04  673O :  3.02  634O :  3.00  565O :  2.92  646O :  2.91  628O :  2.90
  748O :  2.89  391O :  2.85  190O :  2.85  214O :  2.83  106O :  2.81   46O :  2.81  304O :  2.81  409O :  2.80  604O :  2.74   25O :  2.74  736O :  2.71  529O :  2.69
  235O :  2.66  187O :  2.65  403O :  2.63  706O :  2.63  577O :  2.63  589O :  2.61  406O :  2.60  694O :  2.57  472O :  2.55  559O :  2.54  127O :  2.47  676O :  2.47
  658O :  2.45  247O :  2.45  457O :  2.44  670O :  2.40  310O :  2.39   55O :  2.37  370O :  2.33  718O :  2.33    7O :  2.27  490O :  2.27  169O :  2.27  607O :  2.26
  586O :  2.23   10O :  2.22  181O :  2.21  751O :  2.20  724O :  2.19  142O :  2.19  319O :  2.14  754O :  2.13  385O :  2.12  115O :  2.10  340O :  2.08  445O :  2.07
  292O :  2.06  136O :  2.04  286O :  2.01  184O :  1.99  259O :  1.96  133O :  1.92  382O :  1.91  277O :  1.87  205O :  1.84  436O :  1.84  177H :  1.83   58O :  1.82
  616O :  1.81  283O :  1.80  478O :  1.80  649O :  1.77  379O :  1.75  102H :  1.74  466O :  1.69  682O :  1.64  745O :  1.63  120H :  1.61  223O :  1.61  610O :  1.60
  622O :  1.58  349O :  1.57  367O :  1.56  400O :  1.56  139O :  1.56  244O :  1.54  220O :  1.54  442O :  1.53  585H :  1.53  130O :  1.51  250O :  1.49  145O :  1.48
  325O :  1.47  299H :  1.44   84H :  1.41  700O :  1.38  411H :  1.38  517O :  1.36  709O :  1.35  508O :  1.35   17H :  1.33  199O :  1.28  346O :  1.28  454O :  1.27
  427O :  1.27  595O :  1.22  733O :  1.21  424O :  1.20   87H :  1.11  163O :  1.10  592O :  1.10  229O :  1.09   52O :  1.08  172O :  1.08   90H :  1.07  496O :  1.07
  655O :  1.06  322O :  1.04  176H :  1.01  603H :  1.00  430O :  1.00   37O :  1.00  262O :  0.97  343O :  0.96  334O :  0.93   42H :  0.93  373O :  0.91  705H :  0.91
  128H :  0.90  167H :  0.90  553O :  0.89  535O :  0.88  352O :  0.88  499O :  0.87  730O :  0.87  203H :  0.86  228H :  0.85  721O :  0.85  157O :  0.84  580O :  0.84
  547O :  0.80   27H :  0.78  362H :  0.78    5H :  0.77  238O :  0.77  330H :  0.76  290H :  0.75    1O :  0.75  664O :  0.74   60H :  0.74  119H :  0.73  265O :  0.72
  189H :  0.72  156H :  0.72  366H :  0.71  563H :  0.71  513H :  0.70  568O :  0.69  643O :  0.68  749H :  0.67  293H :  0.67  712O :  0.66   30H :  0.66  418O :  0.64
  463O :  0.64  126H :  0.63  635H :  0.61  506H :  0.60  543H :  0.60  192H :  0.60   32H :  0.60  596H :  0.59   44H :  0.59  575H :  0.58  544O :  0.58  567H :  0.58
   89H :  0.57  122H :  0.57  640O :  0.55   92H :  0.54  534H :  0.54  727O :  0.53  398H :  0.53  475O :  0.52  341H :  0.52  153H :  0.52  598O :  0.51  233H :  0.51
  295O :  0.50  390H :  0.49  453H :  0.48  462H :  0.46   79O :  0.46  518H :  0.46   63H :  0.45  632H :  0.43  492H :  0.43  105H :  0.43   54H :  0.42  675H :  0.42
  135H :  0.42  114H :  0.42  216H :  0.42  494H :  0.41  246H :  0.40  458H :  0.40  613O :  0.40  684H :  0.40  606H :  0.40  483H :  0.39  609H :  0.39   72H :  0.38
  317H :  0.38  438H :  0.37  723H :  0.36  665H :  0.36  680H :  0.35  196O :  0.35  623H :  0.35  542H :  0.35  123H :  0.35  437H :  0.35  497H :  0.35  204H :  0.34
  104H :  0.33  739O :  0.32  257H :  0.32  556O :  0.31  371H :  0.30  213H :  0.30  704H :  0.30  327H :  0.30  194H :  0.30  413H :  0.30  309H :  0.30  384H :  0.30
  514O :  0.29  707H :  0.29    8H :  0.29  756H :  0.28  692H :  0.27   86H :  0.27  261H :  0.27  738H :  0.26  578H :  0.26  302H :  0.26  161H :  0.26  432H :  0.26
  678H :  0.26  447H :  0.26  368H :  0.26  405H :  0.25  243H :  0.23   98H :  0.23  149H :  0.23  669H :  0.22  303H :  0.22   95H :  0.22  168H :  0.22  143H :  0.21
  612H :  0.21  258H :  0.21  110H :  0.19  538O :  0.19  581H :  0.19  248H :  0.19   69H :  0.19   29H :  0.18  572H :  0.18  237H :  0.18  728H :  0.18  174H :  0.18
  101H :  0.18   65H :  0.18  552H :  0.18  355O :  0.18  668H :  0.17  383H :  0.17  469O :  0.17  185H :  0.17  306H :  0.17   73O :  0.17   93H :  0.16  651H :  0.16
  141H :  0.16  117H :  0.16   96H :  0.16  164H :  0.16  698H :  0.16  173H :  0.15  672H :  0.15  381H :  0.15  486H :  0.15  242H :  0.15  234H :  0.15  171H :  0.15
  515H :  0.15  647H :  0.15  273H :  0.15  465H :  0.15   99H :  0.15  188H :  0.15  116H :  0.15  336H :  0.14  503H :  0.14  690H :  0.14  573H :  0.14  716H :  0.14
  278H :  0.14  720H :  0.14  208O :  0.14  695H :  0.14  479H :  0.14  448O :  0.14  144H :  0.14  113H :  0.14   74H :  0.14  312H :  0.14  467H :  0.14  735H :  0.13
  495H :  0.13  470H :  0.13  251H :  0.13   48H :  0.13  468H :  0.13   39H :  0.13  350H :  0.13  276H :  0.13  587H :  0.13  269H :  0.12  378H :  0.12   51H :  0.12
  557H :  0.12  652O :  0.12  444H :  0.12  414H :  0.12  281H :  0.12  266H :  0.12  521H :  0.11  726H :  0.11  627H :  0.11  351H :  0.11  180H :  0.11  387H :  0.11
  600H :  0.11  545H :  0.11  570H :  0.10  407H :  0.10  530H :  0.10   66H :  0.10  210H :  0.10  315H :  0.10  111H :  0.10   50H :  0.10  426H :  0.10  380H :  0.09
  356H :  0.09  394O :  0.09   18H :  0.09  489H :  0.09  107H :  0.09  288H :  0.09  719H :  0.09  491H :  0.09  147H :  0.09  446H :  0.09  260H :  0.09  296H :  0.09
  108H :  0.08   24H :  0.08  710H :  0.08  533H :  0.08  752H :  0.08  714H :  0.08  267H :  0.08  711H :  0.08  329H :  0.08  314H :  0.08  206H :  0.08  347H :  0.08
  255H :  0.08  389H :  0.07  324H :  0.07   45H :  0.07  240H :  0.07  753H :  0.07  134H :  0.07  633H :  0.07
    8 LP   *******   0.00  46.05582  26.94454   3.61488  118O : 19.49  112O : 15.91   31O : 15.45  301O : 14.46  661O : 13.34  526O : 13.18  175O : 12.45  100O : 11.74   43O : 10.22  520O :  9.60   64O :  9.55  298O :  9.51
  124O :  9.02  358O :  8.30   85O :  7.88  328O :  7.88   16O :  7.80  481O :  7.55  121O :  7.54  562O :  7.27  313O :  7.17  637O :  7.07  280O :  7.03  151O :  6.91
  571O :  6.83  274O :  6.78  103O :  6.66  502O :  6.57  583O :  6.54  256O :  6.29  412O :  6.17  397O :  6.02  532O :  5.68  691O :  5.58  241O :  5.47  433O :  5.45
  376O :  5.43  631O :  5.39  226O :  5.32  574O :  5.29  148O :  5.26  361O :  5.22   88O :  5.04  109O :  5.03  268O :  4.90  493O :  4.87  232O :  4.79  166O :  4.66
  715O :  4.64  697O :  4.63   19O :  4.59  337O :  4.50  484O :  4.49  289O :  4.48   76O :  4.46   61O :  4.44  511O :  4.30   34O :  4.30  601O :  4.16  523O :  4.16
   94O :  4.07  160O :  4.07   70O :  4.00  388O :  3.99   49O :  3.89  178O :  3.86  253O :  3.83  742O :  3.81  688O :  3.75  667O :  3.74    4O :  3.74  703O :  3.62
  679O :  3.58  550O :  3.57  685O :  3.49  217O :  3.49  154O :  3.48  439O :  3.47  460O :  3.46  307O :  3.44  316O :  3.40  505O :  3.37  541O :  3.36   82O :  3.36
  415O :  3.34  202O :  3.32  487O :  3.32  193O :  3.30   40O :  3.30  331O :  3.23   28O :  3.21  364O :  3.19   67O :  3.18  271O :  3.18   13O :  3.17  211O :  3.15
  451O :  3.13  619O :  3.01   91O :  3.01   22O :  3.00  625O :  3.00   33H :  2.93   97O :  2.92  673O :  2.90  634O :  2.89  565O :  2.81  646O :  2.80  187O :  2.80
  628O :  2.79  748O :  2.79  391O :  2.75  190O :  2.74   46O :  2.71  304O :  2.71  106O :  2.70  409O :  2.70  214O :  2.69   25O :  2.65  604O :  2.64  736O :  2.61
  529O :  2.57  235O :  2.56  403O :  2.54  706O :  2.53  577O :  2.53  589O :  2.52  406O :  2.51  694O :  2.48  472O :  2.45  559O :  2.45  127O :  2.38  676O :  2.38
  169O :  2.37  247O :  2.36  658O :  2.36  457O :  2.35  670O :  2.32  310O :  2.30   55O :  2.28  370O :  2.24  718O :  2.24  490O :  2.19    7O :  2.19  607O :  2.18
  586O :  2.15   10O :  2.14  181O :  2.13  751O :  2.12  724O :  2.11  142O :  2.11  319O :  2.06  754O :  2.05  385O :  2.05  115O :  2.02  340O :  1.99  445O :  1.99
  292O :  1.98  136O :  1.96  286O :  1.94  184O :  1.92  382O :  1.90  259O :  1.89  133O :  1.85  102H :  1.81  277O :  1.80  205O :  1.78  436O :  1.77  177H :  1.76
   58O :  1.75  616O :  1.74  283O :  1.73  478O :  1.73  649O :  1.71  379O :  1.68  466O :  1.63  682O :  1.58  745O :  1.57  120H :  1.55  223O :  1.55  610O :  1.54
  622O :  1.52  349O :  1.51  367O :  1.51  400O :  1.50  139O :  1.50  244O :  1.48  220O :  1.48  442O :  1.47  585H :  1.47  130O :  1.46  250O :  1.43  145O :  1.42
  325O :  1.41  299H :  1.37  700O :  1.33  411H :  1.33  517O :  1.31   84H :  1.31  709O :  1.30  508O :  1.30   17H :  1.28  199O :  1.23  346O :  1.23  454O :  1.22
  427O :  1.22  595O :  1.17  733O :  1.17  424O :  1.16   87H :  1.07  163O :  1.06  592O :  1.06  229O :  1.05   52O :  1.04  172O :  1.04   90H :  1.03  496O :  1.03
  655O :  1.02  322O :  1.00  176H :  0.98  603H :  0.97  430O :  0.96   37O :  0.96  189H :  0.95  343O :  0.92  262O :  0.91  334O :  0.90   42H :  0.89  373O :  0.88
  705H :  0.87  128H :  0.87  167H :  0.87  553O :  0.86  535O :  0.85  352O :  0.84  499O :  0.84  730O :  0.84  157O :  0.83  203H :  0.83  228H :  0.82  721O :  0.82
  580O :  0.81  547O :  0.77   27H :  0.76  362H :  0.75    5H :  0.74  238O :  0.74  330H :  0.73  290H :  0.73    1O :  0.72  664O :  0.71   60H :  0.71  119H :  0.70
  265O :  0.70  156H :  0.69  366H :  0.68  563H :  0.68  513H :  0.67  568O :  0.66  643O :  0.66  749H :  0.65  293H :  0.65  712O :  0.64   30H :  0.63  418O :  0.62
  463O :  0.61  126H :  0.61  635H :  0.59  506H :  0.58  543H :  0.58  192H :  0.58   32H :  0.57  596H :  0.57   44H :  0.56  575H :  0.56  544O :  0.56  567H :  0.55
   89H :  0.55  122H :  0.54  640O :  0.53   92H :  0.52  534H :  0.52  727O :  0.52  398H :  0.51  475O :  0.50  153H :  0.50  341H :  0.50  598O :  0.50  233H :  0.49
  295O :  0.48  390H :  0.47  453H :  0.46  462H :  0.45   79O :  0.44  518H :  0.44   63H :  0.43  632H :  0.42  492H :  0.41   54H :  0.41  105H :  0.41  675H :  0.41
  135H :  0.41  114H :  0.40  216H :  0.40  494H :  0.40  246H :  0.39  458H :  0.39  613O :  0.38  684H :  0.38  606H :  0.38  483H :  0.38  609H :  0.37   72H :  0.37
  317H :  0.36  438H :  0.36  723H :  0.35  665H :  0.35  680H :  0.34  196O :  0.34  123H :  0.34  623H :  0.34  542H :  0.34  437H :  0.34  497H :  0.34  204H :  0.32
  104H :  0.31  739O :  0.31  257H :  0.31  413H :  0.30  556O :  0.30  371H :  0.29  213H :  0.29  704H :  0.29  194H :  0.29  327H :  0.29  384H :  0.29  309H :  0.29
  514O :  0.28  707H :  0.28    8H :  0.28  756H :  0.27  692H :  0.26   86H :  0.26  261H :  0.26  738H :  0.25  578H :  0.25  302H :  0.25  161H :  0.25  432H :  0.25
  678H :  0.25  447H :  0.25  368H :  0.25  405H :  0.24  243H :  0.22  101H :  0.22   98H :  0.22  149H :  0.22  669H :  0.22  303H :  0.21   95H :  0.21  168H :  0.21
  143H :  0.20  612H :  0.20  258H :  0.20  110H :  0.19  538O :  0.19  581H :  0.19  248H :  0.18   69H :  0.18   29H :  0.17  383H :  0.17  572H :  0.17  237H :  0.17
  728H :  0.17  174H :  0.17  355O :  0.17  552H :  0.17  668H :  0.17  171H :  0.17  469O :  0.16  185H :  0.16  306H :  0.16   73O :  0.16   93H :  0.16  651H :  0.16
  141H :  0.15   96H :  0.15  117H :  0.15  164H :  0.15  698H :  0.15  173H :  0.15  672H :  0.15  381H :  0.15  486H :  0.15  242H :  0.15  234H :  0.14  515H :  0.14
  647H :  0.14  273H :  0.14  188H :  0.14  465H :  0.14   99H :  0.14  116H :  0.14  336H :  0.14  503H :  0.14  690H :  0.14  573H :  0.14  716H :  0.14  278H :  0.14
  208O :  0.14  720H :  0.14  695H :  0.14  479H :  0.14  448O :  0.14  144H :  0.13  113H :  0.13   74H :  0.13  312H :  0.13  467H :  0.13  735H :  0.13  495H :  0.13
  470H :  0.13  251H :  0.13   48H :  0.13  468H :  0.13   39H :  0.12  276H :  0.12  350H :  0.12  587H :  0.12  269H :  0.12  378H :  0.12   51H :  0.12  557H :  0.11
  652O :  0.11   65H :  0.11  444H :  0.11  281H :  0.11  266H :  0.11  521H :  0.11  530H :  0.11  726H :  0.11  627H :  0.11  351H :  0.11  180H :  0.11  387H :  0.10
  600H :  0.10  545H :  0.10  570H :  0.10  407H :  0.10  210H :  0.09  315H :  0.09  111H :  0.09   50H :  0.09  426H :  0.09  380H :  0.09  356H :  0.09  107H :  0.09
  394O :  0.09   18H :  0.09  489H :  0.09  288H :  0.09  719H :  0.09  491H :  0.09  147H :  0.08  446H :  0.08  260H :  0.08  296H :  0.08   24H :  0.08  710H :  0.08
  108H :  0.08  533H :  0.08  752H :  0.08  714H :  0.08  267H :  0.08  711H :  0.08  329H :  0.08  314H :  0.08  206H :  0.08  347H :  0.08  255H :  0.07  389H :  0.07
  324H :  0.07  159H :  0.07
    9 LP   *******   0.00  -4.91958 -31.55239 -37.16106  118O : 18.85  112O : 15.38   31O : 14.94  526O : 14.54  301O : 13.99  661O : 12.90  175O : 12.04  100O : 11.37   43O :  9.88  298O :  9.33  520O :  9.27  124O :  8.72
  358O :  8.03   85O :  7.62  328O :  7.62   16O :  7.55  481O :  7.30  121O :  7.29  562O :  7.03   64O :  7.03  313O :  6.94  637O :  6.84  280O :  6.80  151O :  6.68
  571O :  6.60  274O :  6.56  103O :  6.45  502O :  6.36  583O :  6.32  256O :  6.08  412O :  6.01  397O :  5.82  532O :  5.50  691O :  5.40  241O :  5.29  433O :  5.27
  631O :  5.21  226O :  5.14  574O :  5.11  376O :  5.11  148O :  5.10  361O :  5.04   88O :  4.88  109O :  4.86  268O :  4.74  493O :  4.71  232O :  4.63  166O :  4.51
  715O :  4.49  697O :  4.48   19O :  4.44  337O :  4.35  484O :  4.34  289O :  4.33   76O :  4.32   61O :  4.29  511O :  4.16   34O :  4.16  523O :  4.03  601O :  4.03
   94O :  3.94  160O :  3.94   70O :  3.87  388O :  3.86   49O :  3.76  178O :  3.74  253O :  3.70  742O :  3.68  688O :  3.62  667O :  3.62    4O :  3.61  703O :  3.50
  679O :  3.46  550O :  3.45  685O :  3.38  217O :  3.37  154O :  3.37  439O :  3.36  460O :  3.35  307O :  3.33  316O :  3.29   82O :  3.28  505O :  3.26  541O :  3.25
  415O :  3.23  202O :  3.21  193O :  3.19   40O :  3.19  487O :  3.19  331O :  3.13   28O :  3.11  271O :  3.08   67O :  3.07   13O :  3.06  211O :  3.05  364O :  3.04
  451O :  3.03  619O :  2.91   91O :  2.91   22O :  2.90  625O :  2.90   97O :  2.83   33H :  2.83  673O :  2.81  634O :  2.80  565O :  2.72  646O :  2.71  628O :  2.70
  748O :  2.69  391O :  2.65  214O :  2.64  106O :  2.62   46O :  2.62  304O :  2.62  409O :  2.61  190O :  2.60   25O :  2.56  604O :  2.55  736O :  2.52  529O :  2.50
  235O :  2.48  187O :  2.48  403O :  2.45  706O :  2.45  577O :  2.44  589O :  2.43  406O :  2.42  694O :  2.40  472O :  2.37  559O :  2.37  127O :  2.30  676O :  2.30
  169O :  2.29  658O :  2.28  247O :  2.28  457O :  2.27  670O :  2.24  310O :  2.22   55O :  2.21  370O :  2.17  718O :  2.17    7O :  2.12  490O :  2.12  607O :  2.11
  586O :  2.08   10O :  2.07  181O :  2.06  751O :  2.05  724O :  2.04  142O :  2.04  319O :  1.99  754O :  1.98  385O :  1.98  115O :  1.95  340O :  1.93  445O :  1.92
  292O :  1.92  136O :  1.90  286O :  1.87  184O :  1.85  382O :  1.84  259O :  1.82  133O :  1.79  102H :  1.75  277O :  1.74  205O :  1.72  436O :  1.71  177H :  1.70
   58O :  1.69  616O :  1.68  283O :  1.68  478O :  1.68  649O :  1.65  379O :  1.63  466O :  1.57  682O :  1.53  745O :  1.52  120H :  1.50  223O :  1.50  610O :  1.49
  622O :  1.47  349O :  1.46  367O :  1.46  400O :  1.45  139O :  1.45  244O :  1.44  220O :  1.43  442O :  1.43  585H :  1.42  130O :  1.41  250O :  1.38  145O :  1.37
  325O :  1.37  299H :  1.34   84H :  1.31  700O :  1.29  411H :  1.29  517O :  1.27  709O :  1.26  508O :  1.26   17H :  1.24  199O :  1.19  346O :  1.19  454O :  1.18
  427O :  1.18  595O :  1.13  733O :  1.13  424O :  1.12   87H :  1.03  163O :  1.03  592O :  1.03  229O :  1.01   52O :  1.01  172O :  1.00   90H :  1.00  496O :  0.99
  655O :  0.99  322O :  0.97  176H :  0.94  603H :  0.93  430O :  0.93   37O :  0.93  262O :  0.90  343O :  0.89  334O :  0.87   42H :  0.86  373O :  0.85  705H :  0.85
  128H :  0.84  167H :  0.84  553O :  0.83  535O :  0.82  352O :  0.82  499O :  0.81  730O :  0.81  203H :  0.80  228H :  0.80  721O :  0.79  580O :  0.78  157O :  0.78
  547O :  0.74   27H :  0.73  362H :  0.73    5H :  0.72  238O :  0.71  330H :  0.71  290H :  0.70    1O :  0.70  664O :  0.69   60H :  0.68  119H :  0.68  265O :  0.67
  189H :  0.67  156H :  0.67  366H :  0.66  563H :  0.66  513H :  0.65  568O :  0.64  643O :  0.64  749H :  0.63  293H :  0.62  712O :  0.61   30H :  0.61  418O :  0.60
  463O :  0.59  126H :  0.59  635H :  0.57  506H :  0.56  543H :  0.56   32H :  0.55  596H :  0.55  192H :  0.55  544O :  0.55   44H :  0.55  575H :  0.54  567H :  0.54
   89H :  0.53  122H :  0.53  640O :  0.51  534H :  0.50   92H :  0.50  727O :  0.50  398H :  0.50  475O :  0.49  341H :  0.49  153H :  0.48  598O :  0.48  233H :  0.47
  295O :  0.46  390H :  0.46  453H :  0.45  462H :  0.43   79O :  0.43  518H :  0.43   63H :  0.42  632H :  0.40  492H :  0.40   54H :  0.40  105H :  0.39  675H :  0.39
  135H :  0.39  114H :  0.39  216H :  0.39  494H :  0.38  246H :  0.37  458H :  0.37  613O :  0.37  684H :  0.37  606H :  0.37  483H :  0.37  609H :  0.36   72H :  0.36
  317H :  0.35  438H :  0.35  723H :  0.34  665H :  0.34  680H :  0.33  196O :  0.33  123H :  0.33  623H :  0.33  542H :  0.33  437H :  0.33  497H :  0.32  204H :  0.31
  104H :  0.30  739O :  0.30  257H :  0.30  556O :  0.29  413H :  0.28  371H :  0.28  213H :  0.28  704H :  0.28  194H :  0.28  327H :  0.28  384H :  0.28  309H :  0.28
  514O :  0.27  707H :  0.27    8H :  0.27  756H :  0.26  692H :  0.26   86H :  0.25  261H :  0.25  738H :  0.24  578H :  0.24  302H :  0.24  161H :  0.24  432H :  0.24
  678H :  0.24  447H :  0.24  368H :  0.24  405H :  0.24  243H :  0.22  101H :  0.21   98H :  0.21  149H :  0.21  669H :  0.21  303H :  0.21   95H :  0.20  168H :  0.20
  143H :  0.20  612H :  0.20  258H :  0.19  110H :  0.18  538O :  0.18  581H :  0.18  248H :  0.18   69H :  0.17   29H :  0.17  383H :  0.17  572H :  0.17  237H :  0.17
  728H :  0.17  174H :  0.17   65H :  0.16  355O :  0.16  552H :  0.16  668H :  0.16  171H :  0.16  469O :  0.16  306H :  0.16  185H :  0.16   73O :  0.16   93H :  0.15
  651H :  0.15  141H :  0.15   96H :  0.15  117H :  0.15  164H :  0.15  698H :  0.15  173H :  0.14  672H :  0.14  381H :  0.14  486H :  0.14  242H :  0.14  234H :  0.14
  515H :  0.14  647H :  0.14  273H :  0.14  465H :  0.14   99H :  0.14  188H :  0.14  116H :  0.14  336H :  0.13  503H :  0.13  690H :  0.13  573H :  0.13  716H :  0.13
  278H :  0.13  720H :  0.13  208O :  0.13  695H :  0.13  479H :  0.13  448O :  0.13  144H :  0.13  113H :  0.13   74H :  0.13  312H :  0.13  467H :  0.13  735H :  0.13
  495H :  0.12  470H :  0.12  251H :  0.12   48H :  0.12  468H :  0.12   39H :  0.12  276H :  0.12  350H :  0.12  587H :  0.12  269H :  0.12  378H :  0.11   51H :  0.11
  557H :  0.11  652O :  0.11  444H :  0.11  281H :  0.11  266H :  0.11  521H :  0.10  726H :  0.10  627H :  0.10  351H :  0.10  180H :  0.10  387H :  0.10  600H :  0.10
  570H :  0.10  545H :  0.10  407H :  0.10  530H :  0.09   66H :  0.09  210H :  0.09  315H :  0.09  111H :  0.09   50H :  0.09  426H :  0.09  380H :  0.09  356H :  0.09
  394O :  0.08   18H :  0.08  489H :  0.08  107H :  0.08  288H :  0.08  719H :  0.08  491H :  0.08  147H :  0.08  446H :  0.08  260H :  0.08  296H :  0.08  108H :  0.08
   24H :  0.08  710H :  0.08  533H :  0.08  752H :  0.08  714H :  0.08  267H :  0.07  711H :  0.07  329H :  0.07  314H :  0.07  206H :  0.07  347H :  0.07  255H :  0.07
[...]
   370   8 o    1.874 --   372 h    0.881   371 h    0.796
   371   1 h    0.881 --   370 o    0.796
   372   1 h    0.900 --   370 o    0.881
   373   8 o    1.824 --   374 h    0.887   375 h    0.794
   374   1 h    0.907 --   373 o    0.887
   375   1 h    0.871 --   373 o    0.794
   376   8 o    1.854 --   377 h    0.847   378 h    0.844
   377   1 h    0.889 --   376 o    0.847
   378   1 h    0.888 --   376 o    0.844
   379   8 o    1.863 --   381 h    0.876   380 h    0.783
   380   1 h    0.871 --   379 o    0.783
   381   1 h    0.896 --   379 o    0.876
   382   8 o    1.894 --   384 h    0.832   383 h    0.799
   383   1 h    0.876 --   382 o    0.799
   384   1 h    0.892 --   382 o    0.832
   385   8 o    1.837 --   387 h    0.855   386 h    0.839
   386   1 h    0.893 --   385 o    0.839
   387   1 h    0.893 --   385 o    0.855
   388   8 o    1.866 --   390 h    0.841   389 h    0.772
   389   1 h    0.867 --   388 o    0.772
   390   1 h    0.893 --   388 o    0.841
   391   8 o    1.849 --   392 h    0.860   393 h    0.850
   392   1 h    0.894 --   391 o    0.860
   393   1 h    0.893 --   391 o    0.850
   394   8 o    1.861 --   395 h    0.917   396 h    0.818
   395   1 h    0.920 --   394 o    0.917
   396   1 h    0.877 --   394 o    0.818
   397   8 o    1.826 --   399 h    0.856   398 h    0.856
   398   1 h    0.892 --   397 o    0.856
   399   1 h    0.894 --   397 o    0.856
   400   8 o    1.820 --   402 h    0.867   401 h    0.838
   401   1 h    0.891 --   400 o    0.838
   402   1 h    0.898 --   400 o    0.867
   403   8 o    1.865 --   404 h    0.798   405 h    0.792
   404   1 h    0.874 --   403 o    0.798
   405   1 h    0.870 --   403 o    0.792
   406   8 o    1.866 --   407 h    0.826   408 h    0.810
   407   1 h    0.883 --   406 o    0.826
   408   1 h    0.889 --   406 o    0.810
   409   8 o    1.855 --   411 h    0.853   410 h    0.808
   410   1 h    0.876 --   409 o    0.808
   411   1 h    0.896 --   409 o    0.853
   412   8 o    1.834 --   413 h    0.807   414 h    0.798
   413   1 h    0.875 --   412 o    0.807
   414   1 h    0.879 --   412 o    0.798
   415   8 o    1.856 --   417 h    0.834   416 h    0.831
   416   1 h    0.888 --   415 o    0.831
   417   1 h    0.875 --   415 o    0.834
   418   8 o    1.886 --   420 h    0.837   419 h    0.811
   419   1 h    0.876 --   418 o    0.811
   420   1 h    0.892 --   418 o    0.837
   421   8 o    1.876 --   423 h    0.845   422 h    0.842
   422   1 h    0.878 --   421 o    0.842
   423   1 h    0.879 --   421 o    0.845
   424   8 o    1.845 --   425 h    0.825   426 h    0.824
   425   1 h    0.879 --   424 o    0.825
   426   1 h    0.890 --   424 o    0.824
   427   8 o    1.844 --   429 h    0.913   428 h    0.774
   428   1 h    0.871 --   427 o    0.774
   429   1 h    0.920 --   427 o    0.913
   430   8 o    1.855 --   432 h    0.911   431 h    0.817
   431   1 h    0.880 --   430 o    0.817
   432   1 h    0.916 --   430 o    0.911
   433   8 o    1.844 --   435 h    0.837   434 h    0.810
   434   1 h    0.870 --   433 o    0.810
   435   1 h    0.888 --   433 o    0.837
   436   8 o    1.842 --   437 h    0.883   438 h    0.811
   437   1 h    0.905 --   436 o    0.883
   438   1 h    0.880 --   436 o    0.811
   439   8 o    1.866 --   440 h    0.891   441 h    0.845
   440   1 h    0.903 --   439 o    0.891
   441   1 h    0.890 --   439 o    0.845
   442   8 o    1.867 --   444 h    0.830   443 h    0.816
   443   1 h    0.877 --   442 o    0.816
   444   1 h    0.883 --   442 o    0.830
   445   8 o    1.835 --   447 h    0.875   446 h    0.768
   446   1 h    0.871 --   445 o    0.768
   447   1 h    0.905 --   445 o    0.875
   448   8 o    1.825 --   449 h    0.823   450 h    0.808
   449   1 h    0.888 --   448 o    0.823
   450   1 h    0.887 --   448 o    0.808
   451   8 o    1.850 --   452 h    0.825   453 h    0.822
   452   1 h    0.877 --   451 o    0.825
   453   1 h    0.883 --   451 o    0.822
   454   8 o    1.886 --   456 h    0.815   455 h    0.789
   455   1 h    0.880 --   454 o    0.789
   456   1 h    0.864 --   454 o    0.815
   457   8 o    1.849 --   458 h    0.835   459 h    0.831
   458   1 h    0.877 --   457 o    0.835
   459   1 h    0.889 --   457 o    0.831
   460   8 o    1.838 --   461 h    0.827   462 h    0.817
   461   1 h    0.884 --   460 o    0.827
   462   1 h    0.876 --   460 o    0.817
   463   8 o    1.857 --   464 h    0.879   465 h    0.790
   464   1 h    0.899 --   463 o    0.879
   465   1 h    0.874 --   463 o    0.790
   466   8 o    1.833 --   467 h    0.874   468 h    0.831
   467   1 h    0.899 --   466 o    0.874
   468   1 h    0.890 --   466 o    0.831
   469   8 o    1.844 --   470 h    0.840   471 h    0.820
   470   1 h    0.895 --   469 o    0.840
   471   1 h    0.886 --   469 o    0.820
   472   8 o    1.858 --   474 h    0.883   473 h    0.809
   473   1 h    0.889 --   472 o    0.809
   474   1 h    0.897 --   472 o    0.883
   475   8 o    1.868 --   476 h    0.829   477 h    0.821
   476   1 h    0.876 --   475 o    0.829
   477   1 h    0.886 --   475 o    0.821
   478   8 o    1.851 --   479 h    0.915   480 h    0.794
   479   1 h    0.922 --   478 o    0.915
   480   1 h    0.879 --   478 o    0.794
   481   8 o    1.879 --   482 h    0.900   483 h    0.782
   482   1 h    0.911 --   481 o    0.900
   483   1 h    0.868 --   481 o    0.782
   484   8 o    1.856 --   486 h    0.843   485 h    0.837
   485   1 h    0.891 --   484 o    0.837
   486   1 h    0.878 --   484 o    0.843
   487   8 o    1.834 --   488 h    0.866   489 h    0.801
   488   1 h    0.902 --   487 o    0.866
   489   1 h    0.882 --   487 o    0.801
   490   8 o    1.839 --   492 h    0.857   491 h    0.824
   491   1 h    0.891 --   490 o    0.824
   492   1 h    0.896 --   490 o    0.857
   493   8 o    1.839 --   494 h    0.813   495 h    0.813
   494   1 h    0.886 --   493 o    0.813
   495   1 h    0.891 --   493 o    0.813
   496   8 o    1.840 --   497 h    0.876   498 h    0.819
   497   1 h    0.903 --   496 o    0.876
   498   1 h    0.885 --   496 o    0.819
   499   8 o    1.880 --   500 h    0.834   501 h    0.796
   500   1 h    0.893 --   499 o    0.834
   501   1 h    0.876 --   499 o    0.796
   502   8 o    1.846 --   503 h    0.879   504 h    0.850
   503   1 h    0.900 --   502 o    0.879
   504   1 h    0.888 --   502 o    0.850
   505   8 o    1.853 --   507 h    0.836   506 h    0.813
   506   1 h    0.887 --   505 o    0.813
   507   1 h    0.895 --   505 o    0.836
   508   8 o    1.862 --   509 h    0.821   510 h    0.801
   509   1 h    0.884 --   508 o    0.821
   510   1 h    0.881 --   508 o    0.801
   511   8 o    1.837 --   513 h    0.875   512 h    0.820
   512   1 h    0.873 --   511 o    0.820
   513   1 h    0.901 --   511 o    0.875
   514   8 o    1.858 --   516 h    0.904   515 h    0.808
   515   1 h    0.871 --   514 o    0.808
   516   1 h    0.913 --   514 o    0.904
   517   8 o    1.865 --   518 h    0.847   519 h    0.817
   518   1 h    0.897 --   517 o    0.847
   519   1 h    0.879 --   517 o    0.817
   520   8 o    1.831 --   522 h    0.857   521 h    0.845
   521   1 h    0.889 --   520 o    0.845
   522   1 h    0.893 --   520 o    0.857
   523   8 o    1.905 --   524 h    0.811   525 h    0.801   551 h    0.111
   524   1 h    0.886 --   523 o    0.811
   525   1 h    0.882 --   523 o    0.801
   526   8 o    1.864 --   528 h    0.914   527 h    0.832
   527   1 h    0.886 --   526 o    0.832
   528   1 h    0.916 --   526 o    0.914
   529   8 o    1.854 --   531 h    0.838   530 h    0.773
   530   1 h    0.872 --   529 o    0.773
   531   1 h    0.892 --   529 o    0.838
   532   8 o    1.817 --   534 h    0.867   533 h    0.860
   533   1 h    0.901 --   532 o    0.860
   534   1 h    0.888 --   532 o    0.867
   535   8 o    1.829 --   536 h    0.848   537 h    0.839
   536   1 h    0.889 --   535 o    0.848
   537   1 h    0.885 --   535 o    0.839
   538   8 o    1.825 --   539 h    0.848   540 h    0.831
   539   1 h    0.894 --   538 o    0.848
   540   1 h    0.894 --   538 o    0.831
   541   8 o    1.857 --   542 h    0.871   543 h    0.821
   542   1 h    0.903 --   541 o    0.871
   543   1 h    0.881 --   541 o    0.821
   544   8 o    1.854 --   546 h    0.838   545 h    0.803
   545   1 h    0.882 --   544 o    0.803
   546   1 h    0.896 --   544 o    0.838
   547   8 o    1.859 --   548 h    0.865   549 h    0.793
   548   1 h    0.897 --   547 o    0.865
   549   1 h    0.871 --   547 o    0.793
   550   8 o    1.850 --   552 h    0.911   551 h    0.750
   551   1 h    0.868 --   550 o    0.750   523 o    0.111
   552   1 h    0.918 --   550 o    0.911
   553   8 o    1.854 --   554 h    0.865   555 h    0.841
   554   1 h    0.900 --   553 o    0.865
   555   1 h    0.888 --   553 o    0.841
   556   8 o    1.839 --   558 h    0.849   557 h    0.839
   557   1 h    0.894 --   556 o    0.839
   558   1 h    0.886 --   556 o    0.849
   559   8 o    1.876 --   561 h    0.867   560 h    0.864
   560   1 h    0.891 --   559 o    0.864
   561   1 h    0.898 --   559 o    0.867
   562   8 o    1.854 --   563 h    0.849   564 h    0.819
   563   1 h    0.886 --   562 o    0.849
   564   1 h    0.882 --   562 o    0.819
   565   8 o    1.865 --   566 h    0.844   567 h    0.813
   566   1 h    0.890 --   565 o    0.844
   567   1 h    0.877 --   565 o    0.813
   568   8 o    1.870 --   570 h    0.917   569 h    0.786
   569   1 h    0.876 --   568 o    0.786
   570   1 h    0.921 --   568 o    0.917
   571   8 o    1.867 --   572 h    0.842   573 h    0.812
   572   1 h    0.882 --   571 o    0.842
   573   1 h    0.886 --   571 o    0.812
   574   8 o    1.843 --   576 h    0.846   575 h    0.829
   575   1 h    0.887 --   574 o    0.829
   576   1 h    0.892 --   574 o    0.846
   577   8 o    1.843 --   579 h    0.875   578 h    0.835
   578   1 h    0.891 --   577 o    0.835
   579   1 h    0.902 --   577 o    0.875
   580   8 o    1.810 --   581 h    0.841   582 h    0.838
   581   1 h    0.890 --   580 o    0.841
   582   1 h    0.896 --   580 o    0.838
   583   8 o    1.848 --   584 h    0.857   585 h    0.837
   584   1 h    0.896 --   583 o    0.857
   585   1 h    0.891 --   583 o    0.837
   586   8 o    1.848 --   588 h    0.851   587 h    0.833
   587   1 h    0.888 --   586 o    0.833
   588   1 h    0.896 --   586 o    0.851
   589   8 o    1.882 --   591 h    0.830   590 h    0.794
   590   1 h    0.876 --   589 o    0.794
   591   1 h    0.889 --   589 o    0.830
   592   8 o    1.846 --   593 h    0.873   594 h    0.827
   593   1 h    0.896 --   592 o    0.873
   594   1 h    0.886 --   592 o    0.827
   595   8 o    1.876 --   596 h    0.863   597 h    0.836
   596   1 h    0.891 --   595 o    0.863
   597   1 h    0.876 --   595 o    0.836
   598   8 o    1.845 --   600 h    0.897   599 h    0.773
   599   1 h    0.871 --   598 o    0.773
   600   1 h    0.909 --   598 o    0.897
   601   8 o    1.854 --   602 h    0.839   603 h    0.823
   602   1 h    0.893 --   601 o    0.839
   603   1 h    0.891 --   601 o    0.823
   604   8 o    1.834 --   605 h    0.874   606 h    0.813
   605   1 h    0.903 --   604 o    0.874
   606   1 h    0.890 --   604 o    0.813
   607   8 o    1.794 --   609 h    0.844   608 h    0.841
   608   1 h    0.894 --   607 o    0.841
   609   1 h    0.889 --   607 o    0.844
   610   8 o    1.814 --   612 h    0.910   611 h    0.799
   611   1 h    0.872 --   610 o    0.799
   612   1 h    0.918 --   610 o    0.910
   613   8 o    1.866 --   614 h    0.852   615 h    0.849
   614   1 h    0.895 --   613 o    0.852
   615   1 h    0.895 --   613 o    0.849
   616   8 o    1.852 --   618 h    0.828   617 h    0.806
   617   1 h    0.885 --   616 o    0.806
   618   1 h    0.893 --   616 o    0.828
   619   8 o    1.854 --   620 h    0.841   621 h    0.784
   620   1 h    0.896 --   619 o    0.841
   621   1 h    0.872 --   619 o    0.784
   622   8 o    1.839 --   623 h    0.829   624 h    0.815
   623   1 h    0.888 --   622 o    0.829
   624   1 h    0.891 --   622 o    0.815
   625   8 o    1.869 --   626 h    0.870   627 h    0.868
   626   1 h    0.896 --   625 o    0.870
   627   1 h    0.890 --   625 o    0.868
   628   8 o    1.869 --   630 h    0.819   629 h    0.817
   629   1 h    0.878 --   628 o    0.817
   630   1 h    0.884 --   628 o    0.819
   631   8 o    1.852 --   632 h    0.829   633 h    0.826
   632   1 h    0.887 --   631 o    0.829
   633   1 h    0.880 --   631 o    0.826
   634   8 o    1.853 --   635 h    0.890   636 h    0.844
   635   1 h    0.905 --   634 o    0.890
   636   1 h    0.890 --   634 o    0.844
   637   8 o    1.874 --   638 h    0.824   639 h    0.810
   638   1 h    0.885 --   637 o    0.824
   639   1 h    0.886 --   637 o    0.810
   640   8 o    1.873 --   641 h    0.877   642 h    0.824
   641   1 h    0.898 --   640 o    0.877
   642   1 h    0.888 --   640 o    0.824
   643   8 o    1.867 --   644 h    0.902   645 h    0.827
   644   1 h    0.910 --   643 o    0.902
   645   1 h    0.879 --   643 o    0.827
   646   8 o    1.845 --   647 h    0.877   648 h    0.858
   647   1 h    0.905 --   646 o    0.877
   648   1 h    0.892 --   646 o    0.858
   649   8 o    1.842 --   651 h    0.865   650 h    0.837
   650   1 h    0.882 --   649 o    0.837
   651   1 h    0.898 --   649 o    0.865
   652   8 o    1.841 --   653 h    0.871   654 h    0.821
   653   1 h    0.900 --   652 o    0.871
   654   1 h    0.888 --   652 o    0.821
   655   8 o    1.873 --   657 h    0.841   656 h    0.786
   656   1 h    0.870 --   655 o    0.786
   657   1 h    0.888 --   655 o    0.841
   658   8 o    1.852 --   659 h    0.865   660 h    0.836
   659   1 h    0.894 --   658 o    0.865
   660   1 h    0.887 --   658 o    0.836
   661   8 o    1.836 --   663 h    0.819   662 h    0.798
   662   1 h    0.877 --   661 o    0.798
   663   1 h    0.889 --   661 o    0.819
   664   8 o    1.848 --   665 h    0.855   666 h    0.814
   665   1 h    0.899 --   664 o    0.855
   666   1 h    0.883 --   664 o    0.814
   667   8 o    1.855 --   669 h    0.857   668 h    0.856
   668   1 h    0.893 --   667 o    0.856
   669   1 h    0.890 --   667 o    0.857
   670   8 o    1.801 --   671 h    0.887   672 h    0.856
   671   1 h    0.904 --   670 o    0.887
   672   1 h    0.900 --   670 o    0.856
   673   8 o    1.809 --   675 h    0.864   674 h    0.823
   674   1 h    0.883 --   673 o    0.823
   675   1 h    0.902 --   673 o    0.864
   676   8 o    1.841 --   678 h    0.917   677 h    0.820
   677   1 h    0.875 --   676 o    0.820
   678   1 h    0.920 --   676 o    0.917
   679   8 o    1.833 --   681 h    0.898   680 h    0.833
   680   1 h    0.879 --   679 o    0.833
   681   1 h    0.909 --   679 o    0.898
   682   8 o    1.821 --   684 h    0.831   683 h    0.816
   683   1 h    0.873 --   682 o    0.816
   684   1 h    0.891 --   682 o    0.831
   685   8 o    1.865 --   686 h    0.867   687 h    0.786
   686   1 h    0.896 --   685 o    0.867
   687   1 h    0.866 --   685 o    0.786
   688   8 o    1.867 --   689 h    0.870   690 h    0.788
   689   1 h    0.896 --   688 o    0.870
   690   1 h    0.870 --   688 o    0.788
   691   8 o    1.858 --   692 h    0.869   693 h    0.822
   692   1 h    0.899 --   691 o    0.869
   693   1 h    0.888 --   691 o    0.822
   694   8 o    1.819 --   696 h    0.884   695 h    0.824
   695   1 h    0.884 --   694 o    0.824
   696   1 h    0.905 --   694 o    0.884
   697   8 o    1.829 --   698 h    0.873   699 h    0.841
   698   1 h    0.897 --   697 o    0.873
   699   1 h    0.888 --   697 o    0.841
   700   8 o    1.871 --   701 h    0.821   702 h    0.802
   701   1 h    0.873 --   700 o    0.821
   702   1 h    0.888 --   700 o    0.802
   703   8 o    1.829 --   705 h    0.833   704 h    0.802
   704   1 h    0.877 --   703 o    0.802
   705   1 h    0.894 --   703 o    0.833
   706   8 o    1.870 --   708 h    0.827   707 h    0.818
   707   1 h    0.883 --   706 o    0.818
   708   1 h    0.886 --   706 o    0.827
   709   8 o    1.826 --   711 h    0.864   710 h    0.843
   710   1 h    0.893 --   709 o    0.843
   711   1 h    0.898 --   709 o    0.864
   712   8 o    1.866 --   713 h    0.854   714 h    0.853
   713   1 h    0.895 --   712 o    0.854
   714   1 h    0.887 --   712 o    0.853
   715   8 o    1.832 --   716 h    0.848   717 h    0.840
   716   1 h    0.887 --   715 o    0.848
   717   1 h    0.896 --   715 o    0.840
   718   8 o    1.877 --   719 h    0.868   720 h    0.793
   719   1 h    0.899 --   718 o    0.868
   720   1 h    0.871 --   718 o    0.793
   721   8 o    1.846 --   722 h    0.902   723 h    0.790
   722   1 h    0.911 --   721 o    0.902
   723   1 h    0.874 --   721 o    0.790
   724   8 o    1.818 --   725 h    0.893   726 h    0.858
   725   1 h    0.904 --   724 o    0.893
   726   1 h    0.897 --   724 o    0.858
   727   8 o    1.868 --   728 h    0.917   729 h    0.815
   728   1 h    0.920 --   727 o    0.917
   729   1 h    0.874 --   727 o    0.815
   730   8 o    1.847 --   732 h    0.859   731 h    0.856
   731   1 h    0.895 --   730 o    0.856
   732   1 h    0.895 --   730 o    0.859
   733   8 o    1.847 --   735 h    0.870   734 h    0.816
   734   1 h    0.883 --   733 o    0.816
   735   1 h    0.899 --   733 o    0.870
   736   8 o    1.823 --   737 h    0.879   738 h    0.826
   737   1 h    0.902 --   736 o    0.879
   738   1 h    0.887 --   736 o    0.826
   739   8 o    1.821 --   740 h    0.860   741 h    0.852
   740   1 h    0.892 --   739 o    0.860
   741   1 h    0.897 --   739 o    0.852
   742   8 o    1.827 --   744 h    0.879   743 h    0.845
   743   1 h    0.892 --   742 o    0.845
   744   1 h    0.902 --   742 o    0.879
   745   8 o    1.848 --   747 h    0.825   746 h    0.823
   746   1 h    0.879 --   745 o    0.823
   747   1 h    0.888 --   745 o    0.825
   748   8 o    1.872 --   750 h    0.821   749 h    0.819
   749   1 h    0.877 --   748 o    0.819
   750   1 h    0.882 --   748 o    0.821
   751   8 o    1.844 --   752 h    0.863   753 h    0.860
   752   1 h    0.893 --   751 o    0.863
   753   1 h    0.887 --   751 o    0.860
   754   8 o    1.787 --   756 h    0.885   755 h    0.815
   755   1 h    0.881 --   754 o    0.815
   756   1 h    0.906 --   754 o    0.885
 ---------------------------------------------------------------------------

Topologies differ in total number of bonds
Writing topology from bond orders to xtbtopo.mol

molecular dipole:
                 x           y           z       tot (Debye)
 q only:        3.967      -1.108       2.523
   full:        5.661      -1.122       2.979      16.508
molecular quadrupole (traceless):
                xx          xy          yy          xz          yz          zz
 q only:       74.923     -10.126      -7.100      31.691     -17.954     -67.823
  q+dip:      116.484     -13.258     -27.837      44.216     -11.856     -88.646
   full:      118.024     -11.706     -29.213      45.468     -10.040     -88.810


           -------------------------------------------------
          | TOTAL ENERGY            -1283.310743260127 Eh   |
          | GRADIENT NORM               0.098032653103 Eh/α |
          | HOMO-LUMO GAP               6.272575761953 eV   |
           -------------------------------------------------

------------------------------------------------------------------------
 * finished run on 2022/11/24 at 12:22:38.223     
------------------------------------------------------------------------
 total:
 * wall-time:     0 d,  0 h,  0 min, 57.391 sec
 *  cpu-time:     0 d,  0 h,  1 min, 13.229 sec
 * ratio c/w:     1.276 speedup
 SCF:
 * wall-time:     0 d,  0 h,  0 min, 56.387 sec
 *  cpu-time:     0 d,  0 h,  1 min, 11.537 sec
 * ratio c/w:     1.269 speedup

