756
 energy: -1283.293531120432 gnorm: 0.030914416380 xtb: 6.5.1 (579679a)
o            5.77638812038357       -7.57861506427845       -0.65429305959685
h            5.99085977888562       -7.33627498236209       -1.56531450247487
h            4.81795590990398       -7.38284327254153       -0.57602428905810
o            0.49376963058941        2.75998467913681        5.13584856161120
h           -0.05006170765565        2.03047746511823        4.81072765597499
h            0.57516712863792        3.42294162672975        4.43735093381547
o            0.18152773085830       -0.35863908512675       -3.24561294388143
h            0.74675831451790       -0.57029997798938       -4.01157559011766
h            0.55625214049265        0.40848529420211       -2.77625882052710
o           -5.36714345915239        0.15437911717741        1.79299895365078
h           -5.00880184229825       -0.75843688603441        1.83948912373754
h           -5.16717213640482        0.55224989546388        0.91232420305735
o           -2.96589928083242        2.76434183693271        0.97264508136076
h           -2.17936317140517        3.12381439898158        0.51251829004985
h           -3.30339580022043        3.40776455193763        1.61118704851876
o           -3.73670137941989       -4.20962233914335        0.10490713646710
h           -3.67580927306923       -3.66445981812199       -0.72040033116356
h           -4.10068993365028       -3.63344878599914        0.80880180356187
o           -1.45863574677184       -3.93258655294595       -1.50371480508994
h           -1.08593014395045       -4.59160638500449       -0.89548022831980
h           -0.73003406036951       -3.32408379990126       -1.71698381390303
o            0.02863733374320       -5.40387310014465        0.21783549148990
h            0.08909618503412       -5.15546706539066        1.16178826541278
h            0.83911623904945       -5.03869942352439       -0.20023374452317
o           -1.62944314012512       -3.53287487943044        1.63702427372186
h           -2.24429339188124       -3.76086341417832        0.91644940517444
h           -1.67046292011920       -4.31922600367469        2.21807824891339
o           -0.29607713903060        3.34881302340680       -3.35111837839303
h            0.49854879304599        2.90822297148368       -3.71279110423804
h           -0.04285697862396        4.16248474681690       -2.89040559893677
o           -4.23501206008804       -0.05150401612167       -2.38391738842730
h           -3.47599811250710        0.33900605634781       -2.83466371800830
h           -4.57888154678496        0.61250267217398       -1.76930863834862
o           -2.15229601131641        1.31998762933545       -3.68566400695494
h           -2.87839617615093        1.95165747953120       -3.86835366520546
h           -1.44744435291034        1.86383089607942       -3.31111905240436
o           -4.02796986489662       -2.76364197639749       -2.01024535129555
h           -3.30531857874250       -2.25941579667825       -2.42275603442355
h           -4.28190336293744       -3.43568140584766       -2.68065748639659
o           -4.93715792324507        1.63230502235955       -0.33198028629996
h           -5.62591618024404        2.31327443118141       -0.39285498405231
h           -4.15339648856019        2.09753285389709        0.02831343357321
o           -0.80347956595561        3.37151798850042       -0.46591451567398
h           -1.00459614699633        4.20044214359545       -0.91697379212612
h           -0.06502255786757        3.58035891762462        0.14646805071110
o            1.48759228938565        1.83778521449586       -4.60904722758617
h            0.80882550365969        1.38283848130420       -5.15993514547644
h            1.98885451978016        1.15147154157011       -4.14344783588293
o           -1.11773642479978        0.38294697457143        4.39815672435198
h           -0.66099863147465       -0.41733437018097        4.06894895019478
h           -1.81524202468704        0.52505739568653        3.74905099777408
o           -2.06310879569074       -0.86240159658868        8.92983680691582
h           -2.32594934970528       -1.76448462009633        8.64956630411882
h           -2.89635354038477       -0.39073401704880        9.05547938015944
o           -2.09162103054531       -5.81346140544390        2.87615196855929
h           -1.91301750131602       -6.55515724723183        2.26400011565291
h           -3.05972523632775       -5.65415210092419        2.80253798598870
o           -1.10966326044849        0.90955900121359        7.14196558278931
h           -1.08187263022711        0.54620138702497        6.24042802833168
h           -1.44776746328017        0.22105324809112        7.74893919627596
o           -4.71086336553984       -2.43212182825495        1.83364553007964
h           -5.58868400719826       -2.74936389802228        2.14034849792500
h           -4.10374905816610       -2.59800343676473        2.58855692534150
o            4.64446374880056        0.66524293018095        2.42659307426786
h            5.19439631227916        1.43076656995789        2.69807381138051
h            4.36342427197443        0.21296761294171        3.23298618695294
o            0.78782646340777       -2.50643324336025       -1.95889136045972
h            1.08322220090181       -3.20974533210906       -2.56074229822163
h            0.55933083360707       -1.70598991762339       -2.48807142466392
o           -0.34505996598633        5.71428534944550       -1.92404687589282
h           -1.12720636542125        5.88649677096795       -2.48339932809766
h            0.24780719250894        6.46934057699366       -2.09787146116545
o            1.09657170896350        2.36798306060556        7.70344550239676
h            1.04882547679288        2.55098147802727        6.74177527481815
h            0.32489565865705        1.79161067297941        7.82629448799918
o           -4.05769974803843        1.03896097250830        4.04877646986637
h           -4.82498176685226        1.42337442424375        4.52846100136273
h           -4.38816416047885        0.64638947123004        3.22269544940762
o           -7.48763877721911        0.48420686057657       -0.85196458655742
h           -6.92683687974846       -0.30804763812001       -0.73593695622181
h           -7.05274410976720        1.00006534731671       -1.55029814306792
o            1.97234081901187        1.08864040809893        3.60551139119141
h            1.70362714634250        0.67696431129349        4.44922167851426
h            2.25142523941957        0.33951419900112        3.04742973376826
o           -2.09675966676856       -1.63339513205860       -3.52378095937393
h           -1.60337816124312       -2.31100550129144       -4.03061304505162
h           -1.44586308615688       -0.92682210351237       -3.38164866666038
o            2.65403278896637       -0.82841650324194       -0.51189395470801
h            3.60851889341248       -1.01071986662863       -0.39780147409297
h            2.28600289051128       -1.50263133309031       -1.09790521193949
o           -1.96841900637593       -5.25276272746387       -3.73086289486159
h           -2.00267109829798       -6.18071518557164       -3.41365512069093
h           -1.75476712319783       -4.71191848704185       -2.93187013158948
o           -5.66418980289321       -1.66118328588039       -4.03957441172025
h           -5.07335769820859       -1.17507244118034       -3.43085597959504
h           -6.32753171645001       -1.00102457072765       -4.31164540147823
o            1.35078607127829       -0.47685245475928        5.64384852438031
h            0.44448088376230       -0.81321828945222        5.80221851868735
h            1.82003174034270       -1.22075135454210        5.21598810717600
o            2.71985943325959       -3.63588425877323        1.84944551441388
h            2.00326928754258       -4.14243680417674        2.27734699021446
h            3.57046219754315       -4.09997320271644        1.97177915906434
o           -0.06366242859354       -1.76718126934597        3.28026024116699
h           -0.69120963097145       -2.29317596584605        2.77203892701814
h            0.66801617302325       -1.49927824070118        2.68855939756321
o            3.30097073834544        3.33010842064216        4.13349383250650
h            2.81920923794185        2.48309711272552        4.02431230353629
h            3.54864537696695        3.61776531405426        3.22939827718567
o           -4.18196354890966        4.53091885263467       -1.47921318256287
h           -4.93602402715024        4.33044096373418       -0.88650547125260
h           -3.51229459573944        4.97305887671398       -0.92244510031850
o           -6.41510982292469        3.92926535425412       -0.14843126012895
h           -7.02521697372125        4.41581369921372       -0.73167505191723
h           -6.55736983942629        4.30558635014014        0.73983515926035
o           -0.88317552506145       -3.99890851439323        4.75502206884281
h           -1.72849940453465       -3.75733076010585        4.32716676763804
h           -1.12289048842154       -4.62127419615160        5.47239794068683
o           -4.68234077158627       -5.35173621458152        2.45503667282889
h           -5.07758439381646       -6.17585802062196        2.11817241458202
h           -5.08172808243195       -5.16948287409062        3.31063992934880
o            0.51869034457725       -2.43293343827982        0.64507981685116
h            0.69289566101543       -2.64241161754482       -0.28409511694232
h           -0.24676997140560       -2.96479700503496        0.93467997138303
o           -0.06907885229095        1.90990729960455        2.15243993340304
h           -0.81780001292695        2.19478506427435        2.69802774218516
h            0.65318290119946        1.63003390567016        2.75545219915709
o            0.01670744944977       -1.52386750581987       -7.48953820394250
h           -0.39434373721413       -1.21594380958856       -8.29647444907764
h           -0.14354412168244       -0.83494605893640       -6.82286664309448
o            1.97097066523918       -2.89800584843159        4.63212140054537
h            1.14862659343399       -2.75068011720008        4.12887786033500
h            1.71980144774194       -3.35749012640198        5.45195574968375
o           -4.43686824626032        4.15454208605382        2.89253880603883
h           -5.22580826066502        3.60514412012554        2.70542033259918
h           -4.49512214595603        4.31358764619781        3.85262066996523
o           -6.46273793370613        2.43037149371710        2.66733872673238
h           -5.99173305520461        1.63281731141212        2.38648275418895
h           -7.15683791490973        2.57544989265708        1.98913910415352
o           -7.28853041789134       -2.97885120283113        2.13539031798457
h           -7.71785964845958       -3.26208387755350        1.29967201932042
h           -7.53343921146954       -2.02945221591319        2.22528814834405
o            1.81276064371764       -6.32896190631763        5.54517933413432
h            1.70730891460106       -5.63695276132014        6.21599390009827
h            0.90718463243415       -6.59277393574180        5.29997064458409
o            5.81956967697733       -6.65090643134831        4.55335431585319
h            5.67125381293788       -6.95009054159103        5.44993566367114
h            5.18747020652157       -5.91691908904568        4.40679649265030
o            0.94527230040056        1.64519992716323       -1.65471220348084
h            0.23958464997193        2.27394947802984       -1.40910132206795
h            1.76988424819537        2.16348509217820       -1.68161033118504
o            3.47390187530140       -2.78620343220398       -2.45141130966502
h            3.54677197544073       -3.40450672363976       -3.20202444112549
h            4.26770877895433       -2.96605882201782       -1.92758643226443
o           -8.04101076807839        5.39207499713886       -1.82375359919746
h           -7.26980017292946        5.77804350383001       -2.28773735095044
h           -8.36806103223565        4.70472422990962       -2.43968022625342
o            7.66548949031834        0.92967573754735        1.63017468915701
h            7.71635920079891        0.52752171475812        0.74036495671086
h            7.38556742988895        0.22928757212743        2.25888974242677
o            0.79672440568202        2.39932113659787       -8.46305671632244
h           -0.05496907699991        1.95337226277190       -8.56413827954440
h            1.36434817451966        1.77311601699532       -7.98366537549894
o           -8.43626093110824       -3.07447769595922       -0.24989330701551
h           -9.00870077169904       -2.30300489303397       -0.11399495692386
h           -7.59651184391777       -2.70998541317547       -0.58505026292054
o           -2.11898942540644        2.84322424281411        3.76339220754353
h           -2.01382312616352        3.04391219659481        4.71947875324067
h           -2.91210648862322        2.27813380054143        3.72521045148589
o            2.34812976214755       -4.47167600483126       -0.60107800413361
h            2.66725668973983       -3.88888310360109       -1.31200121057647
h            2.54233573852982       -4.03401560933606        0.26300919699876
o           -3.76697765301085       -8.25792351985416        3.31093259472120
h           -4.58583347503999       -8.22676370204521        2.80094006823720
h           -3.05544636352462       -8.33435898276285        2.65969472464139
o            2.93256227432538       -0.12865737156374       -3.22172276229807
h            3.33501961678645        0.33882031366508       -2.46665695715100
h            3.08472845170770       -1.07293930505578       -3.05904351369069
o            4.20991595041631       -1.35858891765423       -7.62265011689313
h            4.30687574612047       -1.53216335535053       -6.66150479616534
h            3.59257400799155       -2.04388689397400       -7.91494896307432
o           -3.32349989935524       -3.03471105044857        4.03035662127535
h           -3.40275106380272       -2.22507984886358        4.56296564116132
h           -4.02436357743135       -3.62950220296532        4.34515717646929
o           -0.87623003740586       -5.96079028057543       -6.13713962581398
h           -1.23617582821119       -5.71520097146048       -5.26405871531623
h           -1.27242873864802       -5.31958909236390       -6.74439355997520
o            2.75389416390180        1.54411064304203        0.75353372168944
h            2.68952510207363        0.78463930400328        0.15799379384193
h            3.42457656547762        1.29908965657448        1.42112402685252
o           -2.10940664009534       -7.71861815448928       -2.79490927529662
h           -2.76246546360654       -8.17955045882515       -3.36137484364135
h           -2.55607184065531       -7.47772813003855       -1.95820139152400
o            3.81869993561232       -4.84245305183152        4.40799473083916
h            3.30757668043269       -4.02514529795887        4.24844534774188
h            3.16427984912736       -5.44702563234102        4.79855133900439
o           -2.84932086084828       -1.17773105863370       -8.08299691338340
h           -3.02364623007509       -0.99268101850197       -7.12914415987869
h           -3.71029020297017       -1.43607336196512       -8.43734345040791
o           -4.49919356337824       -4.59401761598057       -3.85645900150889
h           -4.63478912099772       -4.08954832248362       -4.68217043310187
h           -3.54801503622578       -4.86459408987713       -3.87815929239587
o           -0.55755484657155        0.64986296590765       -5.82115295493069
h           -0.94583349534843        0.99245911792255       -6.65084607515409
h           -1.22750502151570        0.76494426553072       -5.12112432307712
o          -10.50245968631264        5.11959948461854        2.25010233184189
h          -10.02595043122158        5.93313830744070        2.41840631162726
h          -10.24076233439223        4.83461179175899        1.34935263571125
o            3.82372845044587       -2.26768861361046        7.11061860099749
h            3.36717925060281       -1.55112877069091        7.58295888337533
h            4.76323676428082       -2.14111949065301        7.28181468831463
o           -2.02035803315724        3.27026673449427        6.37100712441660
h           -1.67496552120152        2.41132656338402        6.69924373836381
h           -1.31892436253407        3.92287052594775        6.54641889724245
o            5.17660362913003       -0.98086743329820        0.34040472491812
h            5.03083136965443       -0.32217002281020        1.04623059853401
h            5.89654608373586       -0.63101952875606       -0.20608344738009
o            3.92361263177872        4.15848778118755        1.68776645241416
h            4.50588847585692        3.47196729228095        1.30194819280924
h            3.03496777982468        4.08724483329739        1.28159433609748
o           -5.06524084166194        1.42756066525505       -5.71317518274850
h           -4.52020983302842        0.64852751833134       -5.46785960390815
h           -4.47952002800313        1.96150234531764       -6.28184148438935
o            4.84805861711158       -7.55433687273087        2.14771613474105
h            5.34120935495841       -7.99354422438226        1.44882252468247
h            5.38710354570016       -7.51781700301913        2.95255791997037
o           -4.31772608821389        5.18788692158294       -5.70916574502031
h           -4.40896803574881        6.04339164131195       -5.28708700347981
h           -5.20644716026094        4.79418040121008       -5.74588100651405
o            4.60531343393265        1.21342056872266       -1.65404304864273
h            5.19923448013051        0.53346177000674       -2.02562254146846
h            4.58260974843874        1.94496364785200       -2.29643637224343
o           -7.93573456764592       -5.74279220380082        1.68713874027241
h           -7.86074122310375       -5.51441374368894        2.62156380117888
h           -8.79669024926872       -5.38185430088751        1.41727615940905
o           -9.84640588237954       -0.76990134457088        0.07251045997288
h          -10.23931444992667       -0.17022278990698        0.72203969171144
h           -9.03425661402815       -0.33830947521266       -0.23837844738400
o           -7.07509190549367       -3.40761663535153       -2.67574561225194
h           -6.40983303091442       -2.85441029687644       -3.14788589244847
h           -6.63555160807315       -3.88569649909658       -1.95709187272671
o           -8.03351201367457        6.96999945444398        0.48227563895591
h           -7.09522774542584        7.14737961538731        0.26867846917287
h           -8.37681058912412        6.57939312338304       -0.32962648741818
o           -5.40671312908116        6.83944587105604       -0.08680695414630
h           -4.92425141794240        6.94014592551352        0.75155667377264
h           -4.86486613765183        7.23019504810375       -0.77994767673863
o           -2.38747386739715        5.68326590672346        0.11381530254031
h           -2.25687875271324        5.52670481234878        1.06220655925163
h           -2.46454552354693        6.64798144531992       -0.01238482855112
o            0.10401326295020        8.55846222667078        4.37343191034573
h            0.92715564778145        8.09550901432224        4.13300266195226
h            0.35160810447887        9.37364763334044        4.80798985962895
o            0.75084465493908        4.85679084770098        3.26424320935288
h            1.22775238119281        5.70023599644873        3.30454245741418
h           -0.18818331194073        5.06064276828835        3.04713551549570
o            0.36047453945625        4.64051116696677       -7.04847257336368
h            0.35482334688032        3.96385169664547       -7.75437899347147
h            1.21374215339256        4.44621304939339       -6.60913693512363
o            2.36863183704519        0.54264727145473       -7.06515852001551
h            2.99322857709718        0.94719744592170       -6.43195523446198
h            2.92861379999156       -0.05822066079872       -7.58616789937770
o            5.60077124877703        2.46575916073389        0.45331641294267
h            5.23827265950839        1.96498392089480       -0.31045279669711
h            6.20090587989813        1.87154636456347        0.92263487870085
o            6.47977283812566        4.03592393965865       -4.85563698900813
h            6.88966554349723        4.81514455486487       -4.44009302736145
h            5.97386819486207        4.34348324952464       -5.63970274296473
o           -2.04461098820711        6.25769690212923       -3.93690233204576
h           -1.25832275535674        6.66505396573579       -4.34106023754934
h           -2.20611119422363        5.47710758634979       -4.50575012196976
o           -6.28624530808082       -4.88030380241971       -0.42972755733115
h           -5.37329121008182       -4.70764506263829       -0.12002906436432
h           -6.83592167928336       -5.05835317330068        0.34923303649917
o            0.86832463723947       -7.85751180260335        0.46401440465037
h            1.24581468741713       -7.89126592747148        1.35436685624594
h            0.49521987615479       -6.93967443345740        0.37622044729513
o           10.18447188831483       -2.26360376828953       -1.34142116184701
h            9.75643454432644       -1.64187569647173       -1.96375738100851
h           10.26091063262282       -3.10753718499208       -1.82306588806140
o            0.68360700697699       -5.03324405333043        2.80064218606440
h            1.05496974902298       -5.90347841809284        3.00397604239989
h            0.12724086169486       -4.74152469399538        3.54956420368177
o            3.59140074000043        8.50516224551598       -2.24561911075783
h            4.09484944749189        7.83844157617240       -2.75332026545489
h            3.92568185908687        8.44011432645115       -1.34564853545471
o           -5.18386017905668       -2.58061024427838        6.86231806643445
h           -4.53309037243298       -2.01661604300434        6.40569785649830
h           -5.94111962740051       -1.99442220626336        7.00623237868254
o           -6.78591813312242       -0.06290531036389       -7.13111365109623
h           -7.36265702311416       -0.40057714033564       -6.44023045779422
h           -6.16734379971218        0.54586232115629       -6.67215169547729
o           -3.95663585861511        7.65070372509027       -2.52046235185888
h           -4.77709869899491        7.28347468046065       -2.86976655685133
h           -3.24805436585517        7.19004030892892       -3.00294921819520
o           -5.83086451622939        5.70161852292067       -3.26642123795098
h           -5.20531224736639        5.29205178521922       -2.62766688081288
h           -6.10002218745762        5.00113566640945       -3.87937575498272
o            3.98302081716725       -0.68566461168612        4.76652293127618
h            3.86730658820250       -1.41170547092628        5.39530069593965
h            4.22204188099136        0.08356341574720        5.31252373041962
o           -3.54046881562577       -0.74744350925439       -5.54718958354798
h           -4.12880974994095       -1.52939652490728       -5.57044862429010
h           -2.96522089299553       -0.92755121944460       -4.77181033208565
o            1.66408036581154       -5.42111416014510       -5.91146216925204
h            2.20463108976058       -6.15526409093291       -6.20115489867491
h            0.71033007739765       -5.67311873696475       -6.05961063520725
o            1.08026163977652       -4.72313263170170       -3.39724738961338
h            1.50229020172180       -4.98851666778033       -4.23383040569754
h            0.80770539606345       -5.54232784539910       -2.95186929813409
o           -4.21598083795355        6.78497415571016        2.38182487542106
h           -3.29445920544991        7.07951879908317        2.30935286664491
h           -4.18476508404961        5.80859319089569        2.48771363839733
o           -7.56758824190164        0.17417357664043       -4.40233906516371
h           -7.03731480359837        0.81055083429968       -3.87152417561115
h           -8.12651113854633       -0.30586542082287       -3.74976602880762
o           -9.87930491702695        4.13788602099925       -0.16251650112245
h           -9.23614296729779        3.45420351432940        0.15115884857568
h           -9.40802333455114        4.68900863646776       -0.79412885032291
o            4.51630922919013        7.36892646973272        0.15944646080686
h            5.39410331265087        7.27304936932782       -0.25118267339578
h            4.64550055290432        7.12647803232647        1.10096429675590
o           -6.37628979032672        1.97871226852094       -2.85070007902019
h           -5.54898320498171        2.33682539249594       -3.21646880258526
h           -7.08761683613184        2.63556748108002       -2.98495176336516
o            2.35373553222713        5.22653013439806        5.68833895525261
h            2.40310746744697        6.03619467787963        5.17652669113721
h            2.53030842224526        4.49128592321160        5.05164447142329
o            4.23844802486908        1.06277034709905       -5.21224316112334
h            4.31739063834539        1.90090280973996       -4.72113197948721
h            3.88933698925882        0.42800142599153       -4.55249568223276
o           -1.78651147745290       -5.45419213647596        6.77696975405273
h           -1.20514415659011       -6.12575694477002        7.13192390042128
h           -2.52483538785300       -5.94222102589836        6.32518388406827
o            5.25197980593693        4.67116586382272       -1.38050461402071
h            5.42420793035806        4.93942526103448       -0.47115943718714
h            4.47136735315979        4.07126728557996       -1.35759567624610
o           -6.02124832426626       -1.74482100922072       -0.57527859042715
h           -5.33423093450574       -1.93059045468548       -1.24864500485431
h           -5.61552945100784       -1.97476349758701        0.26696339743217
o            7.40551885293793        1.27526849208429        5.17302425206217
h            7.10202171999535        0.62346820695652        4.50734800092146
h            8.22401367980003        0.86262757506801        5.51928969613673
o           -8.38078359445552        1.11738694943222        4.06322876762538
h           -9.09740955286894        1.77186762811121        4.13509596125815
h           -7.60254178915827        1.64077984487343        3.78498708564006
o           -5.06834288657397        4.85061629237417        5.43164947316778
h           -4.84248478392868        4.46776729339379        6.28506393359014
h           -4.80646255087061        5.80151252185288        5.44514538951551
o           -8.39279155164168        2.25758368684821        0.88462116162720
h           -8.01965754565992        1.61197314184606        0.24594326118201
h           -9.14530425482539        1.81259680363258        1.32722210226403
o           -4.39196935742581        0.31457965901403        8.04634585568375
h           -4.00027480066634       -0.05763375765304        7.23175113185932
h           -5.32013199921354        0.05881503364321        8.02516133084895
o            0.38749362614970       -2.14170416259917        8.56946647695026
h            1.06539039145600       -1.43582031118873        8.51870749705932
h           -0.30873279965645       -1.81301264829376        9.14661230510410
o            1.71465065711986       -4.02718659526949        7.08926577317853
h            2.57720361819478       -3.59569451180222        7.20710291644591
h            1.11652207231235       -3.56115496360652        7.69264877969860
o           -1.69010278779709        4.05776435653244       -5.46792798170179
h           -1.22678747308245        3.66908117509337       -4.69485496302538
h           -0.97920404755248        4.30678745142907       -6.10101492346554
o            3.00181577820033        3.28215017599165       -1.21638068384787
h            2.56826544282379        4.10363778007650       -0.92611031457826
h            3.06274477004730        2.68632143467118       -0.43747592281239
o            7.07554286345202        1.39286445557431       -3.97764421496568
h            8.03697345445309        1.44279815364125       -4.08387251491010
h            6.75354273732622        2.28641022717344       -4.12822315729583
o            1.03681147740789        7.94466723091711       -2.55405088864261
h            1.99219839206973        8.16927533017872       -2.44184276485294
h            0.84551172285609        8.00974818847899       -3.49439698850030
o            5.50258730678635        4.09684403270659        5.41303651929433
h            5.41187842800190        4.08399108289944        6.36692184369554
h            4.62214248617131        3.84664553851952        5.05219773767197
o            6.10473959642015        2.76018390781821        3.07081153299902
h            7.06367946465263        2.70510768432793        2.98136750649759
h            5.93975093262760        3.07917174532353        3.96480189225721
o            5.26650554858893       -4.22573056274909       -1.00699290187419
h            5.12238917665979       -4.48205908346756       -0.06603182017398
h            5.53970046784300       -5.02186523528593       -1.46718279037915
o            4.95709517559509       -4.91696836801803        1.49354308533354
h            5.76089508952129       -4.51762260406846        1.89198875436679