      -----------------------------------------------------------      
     |                   =====================                   |     
     |                           x T B                           |     
     |                   =====================                   |     
     |                         S. Grimme                         |     
     |          Mulliken Center for Theoretical Chemistry        |     
     |                    University of Bonn                     |     
      -----------------------------------------------------------      

   * xtb version 6.5.1 (579679a) compiled by 'ehlert@majestix' on 2022-07-11

   xtb is free software: you can redistribute it and/or modify it under
   the terms of the GNU Lesser General Public License as published by
   the Free Software Foundation, either version 3 of the License, or
   (at your option) any later version.
   
   xtb is distributed in the hope that it will be useful,
   but WITHOUT ANY WARRANTY; without even the implied warranty of
   MERCHANTABILITY or FITNESS FOR A PARTICULAR PURPOSE.  See the
   GNU Lesser General Public License for more details.
   
   Cite this work as:
   * C. Bannwarth, E. Caldeweyher, S. Ehlert, A. Hansen, P. Pracht,
     J. Seibert, S. Spicher, S. Grimme, WIREs Comput. Mol. Sci., 2020, 11,
     e01493. DOI: 10.1002/wcms.1493
   
   for GFN2-xTB:
   * C. Bannwarth, S. Ehlert and S. Grimme., J. Chem. Theory Comput., 2019,
     15, 1652-1671. DOI: 10.1021/acs.jctc.8b01176
   for GFN1-xTB:
   * S. Grimme, C. Bannwarth, P. Shushkov, J. Chem. Theory Comput., 2017,
     13, 1989-2009. DOI: 10.1021/acs.jctc.7b00118
   for GFN0-xTB:
   * P. Pracht, E. Caldeweyher, S. Ehlert, S. Grimme, ChemRxiv, 2019, preprint.
     DOI: 10.26434/chemrxiv.8326202.v1
   for GFN-FF:
   * S. Spicher and S. Grimme, Angew. Chem. Int. Ed., 2020, 59, 15665-15673.
     DOI: 10.1002/anie.202004239
   
   for ALPB and GBSA implicit solvation:
   * S. Ehlert, M. Stahn, S. Spicher, S. Grimme, J. Chem. Theory Comput.,
     2021, 17, 4250-4261. DOI: 10.1021/acs.jctc.1c00471
   
   for DFT-D4:
   * E. Caldeweyher, C. Bannwarth and S. Grimme, J. Chem. Phys., 2017,
     147, 034112. DOI: 10.1063/1.4993215
   * E. Caldeweyher, S. Ehlert, A. Hansen, H. Neugebauer, S. Spicher,
     C. Bannwarth and S. Grimme, J. Chem. Phys., 2019, 150, 154122.
     DOI: 10.1063/1.5090222
   * E. Caldeweyher, J.-M. Mewes, S. Ehlert and S. Grimme, Phys. Chem. Chem. Phys.
     2020, 22, 8499-8512. DOI: 10.1039/D0CP00502A
   
   for sTDA-xTB:
   * S. Grimme and C. Bannwarth, J. Chem. Phys., 2016, 145, 054103.
     DOI: 10.1063/1.4959605
   
   in the mass-spec context:
   * V. Asgeirsson, C. Bauer and S. Grimme, Chem. Sci., 2017, 8, 4879.
     DOI: 10.1039/c7sc00601b
   * J. Koopman and S. Grimme, ACS Omega 2019, 4, 12, 15120-15133.
     DOI: 10.1021/acsomega.9b02011
   
   for metadynamics refer to:
   * S. Grimme, J. Chem. Theory Comput., 2019, 155, 2847-2862
     DOI: 10.1021/acs.jctc.9b00143
   
   for SPH calculations refer to:
   * S. Spicher and S. Grimme, J. Chem. Theory Comput., 2021, 17, 1701-1714
     DOI: 10.1021/acs.jctc.0c01306
   
   with help from (in alphabetical order)
   P. Atkinson, C. Bannwarth, F. Bohle, G. Brandenburg, E. Caldeweyher
   M. Checinski, S. Dohm, S. Ehlert, S. Ehrlich, I. Gerasimov, C. Hölzer
   A. Katbashev, J. Koopman, C. Lavigne, S. Lehtola, F. März, M. Müller,
   F. Musil, H. Neugebauer, J. Pisarek, C. Plett, P. Pracht, F. Pultar,
   J. Seibert, P. Shushkov, S. Spicher, M. Stahn, M. Steiner, T. Strunk,
   J. Stückrath, T. Rose, and J. Unsleber
   
 * started run on 2022/11/17 at 06:48:47.983     

           -------------------------------------------------
          |                Calculation Setup                |
           -------------------------------------------------

          program call               : xtb solvent_cluster.coord --gfn2 --input xcontrol --opt 1
          hostname                   : cn0363
          coordinate file            : solvent_cluster.coord
          omp threads                :                     2

   ID    Z sym.   atoms
    1    8 o      1, 4, 7, 10, 13, 16, 19, 22, 25, 28, 31, 34, 37, 40, 43,
                  46, 49, 52, 55, 58, 61, 64, 67, 70, 73, 76, 79, 82, 85, 88,
                  91, 94, 97, 100, 103, 106, 109, 112, 115, 118, 121, 124,
                  127, 130, 133, 136, 139, 142, 145, 148, 151, 154, 157, 160,
                  163, 166, 169, 172, 175, 178, 181, 184, 187, 190, 193, 196,
                  199, 202, 205, 208, 211, 214, 217, 220, 223, 226, 229, 232,
                  235, 238, 241, 244, 247, 250, 253, 256, 259, 262, 265, 268,
                  271, 274, 277, 280, 283, 286, 289, 292, 295, 298, 301, 304,
                  307, 310, 313, 316, 319, 322, 325, 328, 331, 334, 337, 340,
                  343, 346, 349, 352, 355, 358, 361, 364, 367, 370, 373, 376,
                  379, 382, 385, 388, 391, 394, 397, 400, 403, 406, 409, 412,
                  415, 418, 421, 424, 427, 430, 433, 436, 439, 442, 445, 448,
                  451, 454, 457, 460, 463, 466, 469, 472, 475, 478, 481, 484,
                  487, 490, 493, 496, 499, 502, 505, 508, 511, 514, 517, 520,
                  523, 526, 529
    2    1 h      2, 3, 5, 6, 8, 9, 11, 12, 14, 15, 17, 18, 20, 21, 23, 24,
                  26, 27, 29, 30, 32, 33, 35, 36, 38, 39, 41, 42, 44, 45, 47,
                  48, 50, 51, 53, 54, 56, 57, 59, 60, 62, 63, 65, 66, 68, 69,
                  71, 72, 74, 75, 77, 78, 80, 81, 83, 84, 86, 87, 89, 90, 92,
                  93, 95, 96, 98, 99, 101, 102, 104, 105, 107, 108, 110, 111,
                  113, 114, 116, 117, 119, 120, 122, 123, 125, 126, 128, 129,
                  131, 132, 134, 135, 137, 138, 140, 141, 143, 144, 146, 147,
                  149, 150, 152, 153, 155, 156, 158, 159, 161, 162, 164, 165,
                  167, 168, 170, 171, 173, 174, 176, 177, 179, 180, 182, 183,
                  185, 186, 188, 189, 191, 192, 194, 195, 197, 198, 200, 201,
                  203, 204, 206, 207, 209, 210, 212, 213, 215, 216, 218, 219,
                  221, 222, 224, 225, 227, 228, 230, 231, 233, 234, 236, 237,
                  239, 240, 242, 243, 245, 246, 248, 249, 251, 252, 254, 255,
                  257, 258, 260, 261, 263, 264, 266, 267, 269, 270, 272, 273,
                  275, 276, 278, 279, 281, 282, 284, 285, 287, 288, 290, 291,
                  293, 294, 296, 297, 299, 300, 302, 303, 305, 306, 308, 309,
                  311, 312, 314, 315, 317, 318, 320, 321, 323, 324, 326, 327,
                  329, 330, 332, 333, 335, 336, 338, 339, 341, 342, 344, 345,
                  347, 348, 350, 351, 353, 354, 356, 357, 359, 360, 362, 363,
                  365, 366, 368, 369, 371, 372, 374, 375, 377, 378, 380, 381,
                  383, 384, 386, 387, 389, 390, 392, 393, 395, 396, 398, 399,
                  401, 402, 404, 405, 407, 408, 410, 411, 413, 414, 416, 417,
                  419, 420, 422, 423, 425, 426, 428, 429, 431, 432, 434, 435,
                  437, 438, 440, 441, 443, 444, 446, 447, 449, 450, 452, 453,
                  455, 456, 458, 459, 461, 462, 464, 465, 467, 468, 470, 471,
                  473, 474, 476, 477, 479, 480, 482, 483, 485, 486, 488, 489,
                  491, 492, 494, 495, 497, 498, 500, 501, 503, 504, 506, 507,
                  509, 510, 512, 513, 515, 516, 518, 519, 521, 522, 524, 525,
                  527, 528, 530, 531

molecular fragmentation (1/2 indicates fragments):
111222222222222222222222222222222222222222222222222222222222222222222222
222222222222222222222222222222222222222222222222222222222222222222222222
222222222222222222222222222222222222222222222222222222222222222222222222
222222222222222222222222222222222222222222222222222222222222222222222222
222222222222222222222222222222222222222222222222222222222222222222222222
222222222222222222222222222222222222222222222222222222222222222222222222
222222222222222222222222222222222222222222222222222222222222222222222222
222222222222222222222222222
# atoms in fragment 1/2:     3   528
 fragment masses (1/2) :       18.02     3170.69
CMA distance (Bohr)    :   5.908
constraining FC (au)   :  0.0500

           -------------------------------------------------
          |                 G F N 2 - x T B                 |
           -------------------------------------------------

        Reference                      10.1021/acs.jctc.8b01176
      * Hamiltonian:
        H0-scaling (s, p, d)           1.850000    2.230000    2.230000
        zeta-weighting                 0.500000
      * Dispersion:
        s8                             2.700000
        a1                             0.520000
        a2                             5.000000
        s9                             5.000000
      * Repulsion:
        kExp                           1.500000    1.000000
        rExp                           1.000000
      * Coulomb:
        alpha                          2.000000
        third order                    shell-resolved
        anisotropic                    true
        a3                             3.000000
        a5                             4.000000
        cn-shift                       1.200000
        cn-exp                         4.000000
        max-rad                        5.000000


          ...................................................
          :                      SETUP                      :
          :.................................................:
          :  # basis functions                1062          :
          :  # atomic orbitals                1062          :
          :  # shells                          708          :
          :  # electrons                      1416          :
          :  max. iterations                   250          :
          :  Hamiltonian                  GFN2-xTB          :
          :  restarted?                      false          :
          :  GBSA solvation                  false          :
          :  PC potential                    false          :
          :  electronic temp.          300.0000000     K    :
          :  accuracy                    1.0000000          :
          :  -> integral cutoff          0.2500000E+02      :
          :  -> integral neglect         0.1000000E-07      :
          :  -> SCF convergence          0.1000000E-05 Eh   :
          :  -> wf. convergence          0.1000000E-03 e    :
          :  Broyden damping             0.4000000          :
          ...................................................

 iter      E             dE          RMSdq      gap      omega  full diag
   1   -906.5798981 -0.906580E+03  0.406E+00    8.62       0.0  T
   2   -906.6365449 -0.566467E-01  0.241E+00    7.41       1.0  T
   3   -906.6588900 -0.223451E-01  0.214E-01    5.90       1.0  T
   4   -906.6628302 -0.394023E-02  0.464E-02    6.31       1.0  T
   5   -906.6628985 -0.683227E-04  0.312E-02    6.24       1.0  T
   6   -906.6629282 -0.296469E-04  0.447E-03    6.28       1.0  T
   7   -906.6629301 -0.191510E-05  0.753E-04    6.27       5.8  T
   8   -906.6629301 -0.203603E-07  0.395E-04    6.27      11.0  T
   9   -906.6629301 -0.108034E-07  0.689E-05    6.27      63.0  T

   *** convergence criteria satisfied after 9 iterations ***

         #    Occupation            Energy/Eh            Energy/eV
      -------------------------------------------------------------
         1        2.0000           -0.6942133             -18.8905
       ...           ...                  ...                  ...
       702        2.0000           -0.3630644              -9.8795
       703        2.0000           -0.3594225              -9.7804
       704        2.0000           -0.3562677              -9.6945
       705        2.0000           -0.3536490              -9.6233
       706        2.0000           -0.3517930              -9.5728
       707        2.0000           -0.3256577              -8.8616
       708        2.0000           -0.3095409              -8.4230 (HOMO)
       709                         -0.0790636              -2.1514 (LUMO)
       710                         -0.0735436              -2.0012
       711                         -0.0545536              -1.4845
       712                         -0.0511374              -1.3915
       713                         -0.0439623              -1.1963
       ...                                ...                  ...
      1062                          0.4631067              12.6018
      -------------------------------------------------------------
                  HL-Gap            0.2304772 Eh            6.2716 eV
             Fermi-level           -0.1943023 Eh           -5.2872 eV

 SCC (total)                   0 d,  0 h,  0 min,  8.135 sec
 SCC setup                      ...        0 min,  0.025 sec (  0.308%)
 Dispersion                     ...        0 min,  0.052 sec (  0.645%)
 classical contributions        ...        0 min,  0.012 sec (  0.142%)
 integral evaluation            ...        0 min,  0.325 sec (  3.992%)
 iterations                     ...        0 min,  2.912 sec ( 35.797%)
 molecular gradient             ...        0 min,  4.781 sec ( 58.773%)
 printout                       ...        0 min,  0.028 sec (  0.342%)

         :::::::::::::::::::::::::::::::::::::::::::::::::::::
         ::                     SUMMARY                     ::
         :::::::::::::::::::::::::::::::::::::::::::::::::::::
         :: total energy            -901.221237293596 Eh    ::
         :: gradient norm              0.103124871934 Eh/a0 ::
         :: HOMO-LUMO gap              6.271604911632 eV    ::
         ::.................................................::
         :: SCC energy              -906.662930123522 Eh    ::
         :: -> isotropic ES            5.092027711118 Eh    ::
         :: -> anisotropic ES         -1.116778609551 Eh    ::
         :: -> anisotropic XC         -0.093071682241 Eh    ::
         :: -> dispersion             -0.537057716731 Eh    ::
         :: repulsion energy           5.345138406730 Eh    ::
         :: add. restraining           0.000000000000 Eh    ::
         :: total charge              -0.000000000000 e     ::
         :::::::::::::::::::::::::::::::::::::::::::::::::::::

      ----------------------------------------------------------- 
     |                       L-ANC optimizer                     |
      ----------------------------------------------------------- 
          low memory version by Sebastian Ehlert

          ...................................................
          :                      SETUP                      :
          :.................................................:
          :   energy convergence        0.1000000E-05 Eh    :
          :   grad. convergence         0.8000000E-03 Eh/a0 :
          :   optimization log               true           :
          :   writing optlog all                1     steps :
          :   Hessian reset                    20     steps :
          :   maximium step len.        1.0000000     a0    :
          :   LBFGS images                     20           :
          ...................................................
 * calculating model hessian...
Using Lindh-Hessian (1995)
 Shifting diagonal of input Hessian by   1.000015357004202E-002
 Lowest  eigenvalues of input Hessian
    0.010000    0.010000   -0.000000   -0.000000   -0.000000   -0.000000
   -0.000000   -0.000000   -0.000000   -0.000000   -0.000000   -0.000000
   -0.000000   -0.000000   -0.000000   -0.000000   -0.000000   -0.000000
 Highest eigenvalues
    0.313107    0.321370    1.229164    1.237747    1.421199    1.451158
 

........................................................................
.............................. CYCLE    1 ..............................
........................................................................
   1   -906.6634229 -0.906663E+03  0.353E-02    6.50       0.0  T
   2   -906.6634590 -0.360328E-04  0.209E-02    6.49       1.0  T
   3   -906.6634662 -0.723355E-05  0.441E-03    6.50       1.0  T
   4   -906.6634672 -0.974869E-06  0.790E-04    6.51       5.5  T
   5   -906.6634672 -0.927844E-08  0.128E-04    6.51      33.9  T
     SCC iter.                  ...        0 min,  1.427 sec
     gradient                   ...        0 min,  4.791 sec
 * total energy  :  -901.2250412 Eh     change       -0.3803861E-02 Eh
   gradient norm :     0.0185121 Eh/a0  converged?    E=F G=F D=F
   step length   :     0.5016012 a0

........................................................................
.............................. CYCLE    2 ..............................
........................................................................
   1   -906.6666857 -0.906667E+03  0.360E-02    6.48       0.0  T
   2   -906.6666937 -0.795042E-05  0.223E-02    6.48       1.0  T
   3   -906.6666978 -0.414052E-05  0.163E-03    6.47       2.7  T
   4   -906.6666979 -0.110018E-06  0.504E-04    6.47       8.6  T
   5   -906.6666979 -0.457146E-08  0.604E-05    6.47      71.8  T
     SCC iter.                  ...        0 min,  1.427 sec
     gradient                   ...        0 min,  4.802 sec
 * total energy  :  -901.2265104 Eh     change       -0.1469250E-02 Eh
   gradient norm :     0.0084587 Eh/a0  converged?    E=F G=F D=F
   step length   :     0.4871138 a0

........................................................................
.............................. CYCLE    3 ..............................
........................................................................
   1   -906.6647583 -0.906665E+03  0.192E-02    6.52       0.0  T
   2   -906.6647631 -0.473323E-05  0.116E-02    6.54       1.0  T
   3   -906.6647646 -0.155997E-05  0.147E-03    6.55       2.9  T
   4   -906.6647648 -0.155910E-06  0.417E-04    6.55      10.4  T
   5   -906.6647648 -0.368630E-08  0.493E-05    6.55      88.0  T
     SCC iter.                  ...        0 min,  1.410 sec
     gradient                   ...        0 min,  4.818 sec
 * total energy  :  -901.2273343 Eh     change       -0.8238867E-03 Eh
   gradient norm :     0.0156316 Eh/a0  converged?    E=F G=F D=F
   step length   :     0.3521691 a0

........................................................................
.............................. CYCLE    4 ..............................
........................................................................
   1   -906.6647119 -0.906665E+03  0.154E-02    6.62       0.0  T
   2   -906.6647161 -0.421936E-05  0.939E-03    6.64       1.0  T
   3   -906.6647173 -0.117057E-05  0.137E-03    6.67       3.2  T
   4   -906.6647174 -0.146510E-06  0.361E-04    6.67      12.0  T
   5   -906.6647174 -0.278089E-08  0.424E-05    6.66     102.5  T
     SCC iter.                  ...        0 min,  1.391 sec
     gradient                   ...        0 min,  4.831 sec
 * total energy  :  -901.2279528 Eh     change       -0.6184709E-03 Eh
   gradient norm :     0.0183280 Eh/a0  converged?    E=F G=F D=F
   step length   :     0.2762677 a0

........................................................................
.............................. CYCLE    5 ..............................
........................................................................
   1   -906.6648324 -0.906665E+03  0.189E-02    6.71       0.0  T
   2   -906.6648454 -0.129229E-04  0.112E-02    6.74       1.0  T
   3   -906.6648473 -0.194632E-05  0.253E-03    6.75       1.7  T
   4   -906.6648476 -0.329908E-06  0.362E-04    6.75      12.0  T
   5   -906.6648476 -0.348871E-08  0.749E-05    6.75      57.9  T
     SCC iter.                  ...        0 min,  1.387 sec
     gradient                   ...        0 min,  4.833 sec
 * total energy  :  -901.2286216 Eh     change       -0.6688305E-03 Eh
   gradient norm :     0.0171911 Eh/a0  converged?    E=F G=F D=F
   step length   :     0.3131499 a0

........................................................................
.............................. CYCLE    6 ..............................
........................................................................
   1   -906.6666584 -0.906667E+03  0.179E-02    6.78       0.0  T
   2   -906.6666691 -0.107003E-04  0.106E-02    6.78       1.0  T
   3   -906.6666708 -0.164953E-05  0.228E-03    6.78       1.9  T
   4   -906.6666710 -0.286097E-06  0.338E-04    6.78      12.8  T
   5   -906.6666710 -0.276384E-08  0.678E-05    6.78      64.0  T
     SCC iter.                  ...        0 min,  1.300 sec
     gradient                   ...        0 min,  4.830 sec
 * total energy  :  -901.2291580 Eh     change       -0.5364569E-03 Eh
   gradient norm :     0.0115295 Eh/a0  converged?    E=F G=F D=F
   step length   :     0.2757542 a0

........................................................................
.............................. CYCLE    7 ..............................
........................................................................
   1   -906.6608201 -0.906661E+03  0.293E-02    6.78       0.0  T
   2   -906.6608356 -0.154568E-04  0.176E-02    6.75       1.0  T
   3   -906.6608386 -0.297901E-05  0.258E-03    6.71       1.7  T
   4   -906.6608391 -0.551142E-06  0.573E-04    6.71       7.6  T
   5   -906.6608391 -0.856608E-08  0.856E-05    6.71      50.7  T
     SCC iter.                  ...        0 min,  1.261 sec
     gradient                   ...        0 min,  4.830 sec
 * total energy  :  -901.2293937 Eh     change       -0.2356755E-03 Eh
   gradient norm :     0.0304437 Eh/a0  converged?    E=F G=F D=F
   step length   :     0.4638346 a0

........................................................................
.............................. CYCLE    8 ..............................
........................................................................
   1   -906.6706861 -0.906671E+03  0.201E-02    6.74       0.0  T
   2   -906.6706913 -0.522428E-05  0.118E-02    6.73       1.0  T
   3   -906.6706923 -0.941564E-06  0.155E-03    6.74       2.8  T
   4   -906.6706924 -0.172386E-06  0.338E-04    6.74      12.8  T
   5   -906.6706924 -0.156308E-08  0.555E-05    6.74      78.3  T
     SCC iter.                  ...        0 min,  1.256 sec
     gradient                   ...        0 min,  4.907 sec
 * total energy  :  -901.2303952 Eh     change       -0.1001470E-02 Eh
   gradient norm :     0.0167586 Eh/a0  converged?    E=F G=F D=F
   step length   :     0.3447770 a0

........................................................................
.............................. CYCLE    9 ..............................
........................................................................
   1   -906.6649502 -0.906665E+03  0.326E-02    6.77       0.0  T
   2   -906.6649581 -0.793770E-05  0.198E-02    6.79       1.0  T
   3   -906.6649624 -0.431966E-05  0.201E-03    6.81       2.2  T
   4   -906.6649626 -0.135176E-06  0.595E-04    6.80       7.3  T
   5   -906.6649626 -0.128307E-07  0.840E-05    6.80      51.6  T
     SCC iter.                  ...        0 min,  1.353 sec
     gradient                   ...        0 min,  4.919 sec
 * total energy  :  -901.2288759 Eh     change        0.1519246E-02 Eh
   gradient norm :     0.0605643 Eh/a0  converged?    E=F G=F D=F
   step length   :     0.5010032 a0

........................................................................
.............................. CYCLE   10 ..............................
........................................................................
   1   -906.6701751 -0.906670E+03  0.295E-02    6.77       0.0  T
   2   -906.6701865 -0.114413E-04  0.175E-02    6.80       1.0  T
   3   -906.6701903 -0.376655E-05  0.236E-03    6.81       1.8  T
   4   -906.6701907 -0.362241E-06  0.706E-04    6.81       6.1  T
   5   -906.6701907 -0.122612E-07  0.704E-05    6.81      61.7  T
     SCC iter.                  ...        0 min,  1.350 sec
     gradient                   ...        0 min,  4.942 sec
 * total energy  :  -901.2306401 Eh     change       -0.1764188E-02 Eh
   gradient norm :     0.0314879 Eh/a0  converged?    E=F G=F D=F
   step length   :     0.2552210 a0

........................................................................
.............................. CYCLE   11 ..............................
........................................................................
   1   -906.6661892 -0.906666E+03  0.338E-02    6.72       0.0  T
   2   -906.6662516 -0.624537E-04  0.203E-02    6.61       1.0  T
   3   -906.6662660 -0.143754E-04  0.548E-03    6.52       1.0  T
   4   -906.6662677 -0.166025E-05  0.124E-03    6.53       3.5  T
   5   -906.6662677 -0.350299E-07  0.162E-04    6.53      26.7  T
   6   -906.6662677 -0.153943E-08  0.604E-05    6.53      71.8  T
     SCC iter.                  ...        0 min,  1.600 sec
     gradient                   ...        0 min,  4.908 sec
 * total energy  :  -901.2284178 Eh     change        0.2222371E-02 Eh
   gradient norm :     0.0511975 Eh/a0  converged?    E=F G=F D=F
   step length   :     0.2615666 a0

........................................................................
.............................. CYCLE   12 ..............................
........................................................................
   1   -906.6705054 -0.906671E+03  0.246E-02    6.60       0.0  T
   2   -906.6705348 -0.294350E-04  0.146E-02    6.69       1.0  T
   3   -906.6705418 -0.703289E-05  0.373E-03    6.76       1.2  T
   4   -906.6705426 -0.737507E-06  0.855E-04    6.75       5.1  T
   5   -906.6705426 -0.153115E-07  0.103E-04    6.75      42.2  T
     SCC iter.                  ...        0 min,  1.236 sec
     gradient                   ...        0 min,  4.845 sec
 * total energy  :  -901.2311303 Eh     change       -0.2712579E-02 Eh
   gradient norm :     0.0073337 Eh/a0  converged?    E=F G=F D=F
   step length   :     0.1967108 a0

........................................................................
.............................. CYCLE   13 ..............................
........................................................................
   1   -906.6635024 -0.906664E+03  0.227E-02    6.72       0.0  T
   2   -906.6635043 -0.195327E-05  0.137E-02    6.72       1.0  T
   3   -906.6635052 -0.890508E-06  0.918E-04    6.70       4.7  T
   4   -906.6635053 -0.419088E-07  0.308E-04    6.70      14.1  T
     SCC iter.                  ...        0 min,  0.991 sec
     gradient                   ...        0 min,  4.961 sec
 * total energy  :  -901.2308120 Eh     change        0.3183674E-03 Eh
   gradient norm :     0.0300175 Eh/a0  converged?    E=F G=F D=F
   step length   :     0.4012133 a0

........................................................................
.............................. CYCLE   14 ..............................
........................................................................
   1   -906.6699323 -0.906670E+03  0.144E-02    6.73       0.0  T
   2   -906.6699331 -0.794902E-06  0.865E-03    6.74       1.0  T
   3   -906.6699335 -0.372904E-06  0.592E-04    6.75       7.3  T
   4   -906.6699335 -0.133163E-07  0.191E-04    6.75      22.8  T
     SCC iter.                  ...        0 min,  1.065 sec
     gradient                   ...        0 min,  4.937 sec
 * total energy  :  -901.2313515 Eh     change       -0.5394899E-03 Eh
   gradient norm :     0.0086360 Eh/a0  converged?    E=F G=F D=F
   step length   :     0.2228958 a0

........................................................................
.............................. CYCLE   15 ..............................
........................................................................
   1   -906.6699663 -0.906670E+03  0.457E-03    6.75       0.0  T
   2   -906.6699664 -0.858703E-07  0.278E-03    6.75       1.6  T
   3   -906.6699665 -0.418543E-07  0.189E-04    6.75      23.0  T
   4   -906.6699665 -0.215130E-08  0.681E-05    6.75      63.7  T
     SCC iter.                  ...        0 min,  1.059 sec
     gradient                   ...        0 min,  4.862 sec
 * total energy  :  -901.2314608 Eh     change       -0.1093644E-03 Eh
   gradient norm :     0.0083368 Eh/a0  converged?    E=F G=F D=F
   step length   :     0.0851674 a0

........................................................................
.............................. CYCLE   16 ..............................
........................................................................
   1   -906.6639598 -0.906664E+03  0.358E-02    6.72       0.0  T
   2   -906.6639650 -0.514816E-05  0.218E-02    6.71       1.0  T
   3   -906.6639679 -0.288215E-05  0.152E-03    6.69       2.9  T
   4   -906.6639680 -0.981208E-07  0.464E-04    6.70       9.4  T
   5   -906.6639680 -0.822320E-08  0.943E-05    6.70      46.0  T
     SCC iter.                  ...        0 min,  1.315 sec
     gradient                   ...        0 min,  4.883 sec
 * total energy  :  -901.2314461 Eh     change        0.1476678E-04 Eh
   gradient norm :     0.0258768 Eh/a0  converged?    E=F G=F D=F
   step length   :     0.6619230 a0

........................................................................
.............................. CYCLE   17 ..............................
........................................................................
   1   -906.6717470 -0.906672E+03  0.216E-02    6.72       0.0  T
   2   -906.6717491 -0.206276E-05  0.131E-02    6.73       1.0  T
   3   -906.6717502 -0.113563E-05  0.988E-04    6.74       4.4  T
   4   -906.6717502 -0.345660E-07  0.293E-04    6.74      14.8  T
   5   -906.6717502 -0.319403E-08  0.515E-05    6.74      84.3  T
     SCC iter.                  ...        0 min,  1.317 sec
     gradient                   ...        0 min,  4.802 sec
 * total energy  :  -901.2318541 Eh     change       -0.4080226E-03 Eh
   gradient norm :     0.0050593 Eh/a0  converged?    E=F G=F D=F
   step length   :     0.3610935 a0

........................................................................
.............................. CYCLE   18 ..............................
........................................................................
   1   -906.6713113 -0.906671E+03  0.701E-03    6.74       0.0  T
   2   -906.6713116 -0.315810E-06  0.428E-03    6.74       1.0  T
   3   -906.6713118 -0.191400E-06  0.391E-04    6.74      11.1  T
   4   -906.6713118 -0.540172E-08  0.108E-04    6.74      40.0  T
     SCC iter.                  ...        0 min,  1.063 sec
     gradient                   ...        0 min,  4.786 sec
 * total energy  :  -901.2319993 Eh     change       -0.1451658E-03 Eh
   gradient norm :     0.0056991 Eh/a0  converged?    E=F G=F D=F
   step length   :     0.1226027 a0

........................................................................
.............................. CYCLE   19 ..............................
........................................................................
   1   -906.6656243 -0.906666E+03  0.276E-02    6.72       0.0  T
   2   -906.6656280 -0.370161E-05  0.168E-02    6.72       1.0  T
   3   -906.6656301 -0.206704E-05  0.131E-03    6.71       3.3  T
   4   -906.6656301 -0.698974E-07  0.392E-04    6.71      11.1  T
   5   -906.6656301 -0.577586E-08  0.757E-05    6.71      57.4  T
     SCC iter.                  ...        0 min,  1.308 sec
     gradient                   ...        0 min,  4.772 sec
 * total energy  :  -901.2318423 Eh     change        0.1569629E-03 Eh
   gradient norm :     0.0227593 Eh/a0  converged?    E=F G=F D=F
   step length   :     0.4922664 a0

........................................................................
.............................. CYCLE   20 ..............................
........................................................................
   1   -906.6712793 -0.906671E+03  0.193E-02    6.73       0.0  T
   2   -906.6712809 -0.154503E-05  0.117E-02    6.73       1.0  T
   3   -906.6712817 -0.843312E-06  0.855E-04    6.73       5.1  T
   4   -906.6712818 -0.268831E-07  0.254E-04    6.73      17.1  T
     SCC iter.                  ...        0 min,  1.045 sec
     gradient                   ...        0 min,  4.805 sec
 * total energy  :  -901.2321890 Eh     change       -0.3466830E-03 Eh
   gradient norm :     0.0049788 Eh/a0  converged?    E=F G=F D=F
   step length   :     0.3243897 a0
 * RMSD in coord.:     0.1330172 a0     energy gain  -0.1095168E-01 Eh
 * calculating model hessian...
Using Lindh-Hessian (1995)
 Shifting diagonal of input Hessian by   1.000007530161383E-002
 Lowest  eigenvalues of input Hessian
    0.010000    0.010000   -0.000000   -0.000000   -0.000000   -0.000000
   -0.000000   -0.000000   -0.000000   -0.000000   -0.000000   -0.000000
   -0.000000   -0.000000   -0.000000   -0.000000   -0.000000   -0.000000
 Highest eigenvalues
    0.307057    0.321101    1.204625    1.241786    1.395290    1.451365
 

........................................................................
.............................. CYCLE   21 ..............................
........................................................................
   1   -906.6707791 -0.906671E+03  0.126E-02    6.73       0.0  T
   2   -906.6707799 -0.778139E-06  0.768E-03    6.73       1.0  T
   3   -906.6707802 -0.363111E-06  0.546E-04    6.72       8.0  T
   4   -906.6707803 -0.136346E-07  0.160E-04    6.72      27.2  T
     SCC iter.                  ...        0 min,  1.047 sec
     gradient                   ...        0 min,  4.783 sec
 * total energy  :  -901.2324267 Eh     change       -0.2376852E-03 Eh
   gradient norm :     0.0035062 Eh/a0  converged?    E=F G=F D=F
   step length   :     0.1542709 a0

........................................................................
.............................. CYCLE   22 ..............................
........................................................................
   1   -906.6700733 -0.906670E+03  0.153E-02    6.73       0.0  T
   2   -906.6700743 -0.109580E-05  0.947E-03    6.73       1.0  T
   3   -906.6700750 -0.639902E-06  0.623E-04    6.73       7.0  T
   4   -906.6700750 -0.934881E-08  0.162E-04    6.73      26.7  T
     SCC iter.                  ...        0 min,  1.041 sec
     gradient                   ...        0 min,  4.791 sec
 * total energy  :  -901.2326463 Eh     change       -0.2196267E-03 Eh
   gradient norm :     0.0053664 Eh/a0  converged?    E=F G=F D=F
   step length   :     0.2186664 a0

........................................................................
.............................. CYCLE   23 ..............................
........................................................................
   1   -906.6707219 -0.906671E+03  0.367E-03    6.73       0.0  T
   2   -906.6707221 -0.214523E-06  0.223E-03    6.73       1.9  T
   3   -906.6707221 -0.643616E-07  0.306E-04    6.73      14.2  T
   4   -906.6707222 -0.686896E-08  0.876E-05    6.73      49.5  T
     SCC iter.                  ...        0 min,  1.046 sec
     gradient                   ...        0 min,  4.798 sec
 * total energy  :  -901.2327136 Eh     change       -0.6735748E-04 Eh
   gradient norm :     0.0030463 Eh/a0  converged?    E=F G=F D=F
   step length   :     0.0822537 a0

........................................................................
.............................. CYCLE   24 ..............................
........................................................................
   1   -906.6713182 -0.906671E+03  0.879E-03    6.73       0.0  T
   2   -906.6713196 -0.139828E-05  0.532E-03    6.73       1.0  T
   3   -906.6713199 -0.362478E-06  0.770E-04    6.73       5.6  T
   4   -906.6713200 -0.456315E-07  0.205E-04    6.73      21.1  T
     SCC iter.                  ...        0 min,  1.040 sec
     gradient                   ...        0 min,  4.794 sec
 * total energy  :  -901.2327916 Eh     change       -0.7793831E-04 Eh
   gradient norm :     0.0025905 Eh/a0  converged?    E=F G=F D=F
   step length   :     0.2024513 a0

........................................................................
.............................. CYCLE   25 ..............................
........................................................................
   1   -906.6716929 -0.906672E+03  0.152E-03    6.73       0.0  T
   2   -906.6716930 -0.719431E-07  0.889E-04    6.73       4.9  T
   3   -906.6716930 -0.111326E-07  0.186E-04    6.73      23.3  T
     SCC iter.                  ...        0 min,  0.783 sec
     gradient                   ...        0 min,  4.816 sec
 * total energy  :  -901.2327987 Eh     change       -0.7114463E-05 Eh
   gradient norm :     0.0012188 Eh/a0  converged?    E=F G=F D=F
   step length   :     0.0306900 a0

........................................................................
.............................. CYCLE   26 ..............................
........................................................................
   1   -906.6713322 -0.906671E+03  0.199E-03    6.72       0.0  T
   2   -906.6713322 -0.269572E-07  0.120E-03    6.72       3.6  T
   3   -906.6713322 -0.916179E-08  0.107E-04    6.72      40.4  T
   4   -906.6713322 -0.880732E-09  0.332E-05    6.72     130.9  T
     SCC iter.                  ...        0 min,  1.029 sec
     gradient                   ...        0 min,  4.786 sec
 * total energy  :  -901.2328008 Eh     change       -0.2143020E-05 Eh
   gradient norm :     0.0006617 Eh/a0  converged?    E=F G=T D=F
   step length   :     0.0366227 a0

........................................................................
.............................. CYCLE   27 ..............................
........................................................................
   1   -906.6715043 -0.906672E+03  0.153E-03    6.72       0.0  T
   2   -906.6715043 -0.144028E-07  0.935E-04    6.72       4.6  T
   3   -906.6715043 -0.434568E-08  0.725E-05    6.72      59.8  T
     SCC iter.                  ...        0 min,  0.776 sec
     gradient                   ...        0 min,  4.803 sec
 * total energy  :  -901.2328027 Eh     change       -0.1874774E-05 Eh
   gradient norm :     0.0005252 Eh/a0  converged?    E=F G=T D=F
   step length   :     0.0235356 a0

........................................................................
.............................. CYCLE   28 ..............................
........................................................................
   1   -906.6714899 -0.906671E+03  0.771E-04    6.72       0.0  T
   2   -906.6714899 -0.213902E-08  0.468E-04    6.72       9.3  T
   3   -906.6714899 -0.947466E-09  0.306E-05    6.72     141.8  T
     SCC iter.                  ...        0 min,  0.783 sec
     gradient                   ...        0 min,  4.806 sec
 * total energy  :  -901.2328033 Eh     change       -0.5438603E-06 Eh
   gradient norm :     0.0001186 Eh/a0  converged?    E=T G=T D=F
   step length   :     0.0113042 a0

   *** GEOMETRY OPTIMIZATION CONVERGED AFTER 28 CYCLES ***

------------------------------------------------------------------------
 total energy gain   :        -0.0115660 Eh       -7.2578 kcal/mol
 total RMSD          :         0.1436758 a0        0.0760 Å
 total power (kW/mol):        -1.0845156 (step)   -0.1591 (real)
------------------------------------------------------------------------

 L-ANCopt (total)              0 d,  0 h,  3 min, 10.868 sec
 setup                          ...        0 min,  0.018 sec (  0.010%)
 model hessian                  ...        0 min,  8.081 sec (  4.234%)
 ANC generation                 ...        0 min,  1.986 sec (  1.040%)
 coordinate transformation      ...        0 min,  0.002 sec (  0.001%)
 Rational function              ...        0 min,  0.000 sec (  0.000%)
 singlepoint calculation        ...        3 min,  0.639 sec ( 94.641%)
 optimization log               ...        0 min,  0.136 sec (  0.071%)
 hessian update                 ...        0 min,  0.000 sec (  0.000%)

================
 final structure:
================
$coord
       -0.50948923220900       -5.77669202849000       -0.60762400088800      o
       -2.09560714419200       -5.01598203860800       -1.21669516335600      h
        0.09296905313000       -6.95197429213000       -1.88181795094500      h
       -1.42896011952600       -9.64962888824800        2.53716476630200      o
       -1.02205453896500       -8.20436816842800        1.46063559949600      h
       -0.09687982000600      -10.89336873848300        2.24562180430800      h
        3.27212887341400        5.64619866658700       -0.07425733562300      o
        3.88333916257100        4.04442339907000       -0.75587335234300      h
        3.00346452472300        5.39532368851200        1.72504742342900      h
        7.50801794468600       -2.21207060465900       -0.02805644747500      o
        8.14604132838200       -1.21231043204700       -1.41219145679100      h
        8.77710867885700       -3.50083332530200        0.29225893040100      h
       -9.93102309555000        1.52371250231000       13.31521184867200      o
       -8.55134336309200        2.62263237161800       12.82285282969300      h
       -9.35540163328300       -0.19111400591900       12.96918713400500      h
        0.21269266615900       -9.78040434560600       -3.56246700547900      o
        0.26276979740200       -9.62714934500400       -5.40009546101800      h
       -0.14278078521400      -11.52804593455100       -3.12125803516200      h
       -8.53884602297500      -11.27356498538900        5.76104326138300      o
       -7.53402569906300      -11.41737926248000        7.27260398963500      h
       -9.35183087364700       -9.62922764349300        5.90878752367400      h
       12.03728440560700       -6.48222396895900        9.27278851438200      o
       12.29944181860700       -5.61571219934900        7.65035160089800      h
       10.25321263086800       -6.34645714745900        9.65860652912400      h
       -5.01451298946600       -7.00808627320800        5.12042185259400      o
       -3.41809325366700       -7.67390812787400        4.53183196628700      h
       -5.35568456343000       -7.91177244577700        6.70287930059600      h
        1.50305110408600        4.97596784147500        4.66250321905400      o
       -0.26044279529300        5.35221525240900        5.03677860590600      h
        2.57259664162400        6.05624618506800        5.71842389240200      h
       -2.11297110707300        0.63844456543700       -3.75300166205200      o
       -1.01759956314100       -0.06568773457900       -5.02296844615000      h
       -2.94580628370200        2.11704233927200       -4.47889400009400      h
        4.75081922983600        6.92674130498400        7.86467224007300      o
        3.79544501666600        6.40759543201100        9.34784592198800      h
        6.25463406175100        5.87199837914400        7.77340409298800      h
       -1.37831460010200        5.58700733606700       -1.78123771134800      o
        0.18567947307500        5.74290791066900       -0.81527489578800      h
       -2.62798197261900        4.72985948867100       -0.72232887728400      h
       -8.22107636333400        6.62477052415300        2.94877395071700      o
       -8.94529288994800        6.43581782992700        4.63727138104900      h
       -9.46292437018200        5.95015151217900        1.76410857337300      h
       -1.36600348624200        1.03607088218400       -9.24075471667100      o
       -2.99192485557700        0.61439653189200       -8.49458574372600      h
       -0.60040717131300        2.35880206454800       -8.23443676018900      h
       -1.80483825760000        9.92879179162000       -4.33821713011600      o
       -2.05572553533400        8.43549243669300       -3.27888480260800      h
       -2.34859484702700       11.37685971634500       -3.35814785238500      h
       -5.96233285307800       -0.60219623987600       -7.46374253307900      o
       -6.20597748266800        0.21525806759000       -5.80583289822400      h
       -5.74849790899900       -2.41518986511200       -7.14183466500400      h
       -0.50675723027100       -3.90893754769400       -6.18800878688600      o
       -0.39605527815000       -5.39116273136900       -7.27468773034600      h
       -2.14536064512700       -4.00782438799400       -5.41067493735500      h
        6.11656443589400        2.10051577991100        2.70581553409900      o
        7.07539953946600        2.51900936030400        4.21441733172700      h
        6.80447830241200        0.57534507284000        1.95433920384300      h
        9.36748844668800       -1.61538447589400        5.04227757594900      o
       10.19130625152000       -0.93379199930100        3.51335270831600      h
        9.52850184851100       -3.44824303674700        4.91701802586900      h
       -5.86763923737000       10.47412909220600       -7.74565789278200      o
       -4.39526787129900       10.25461544020200       -6.67190929141600      h
       -5.76371185129900        9.25616208130300       -9.09152140815700      h
        3.96155236659300        0.13586354674400       -8.49743528926400      o
        3.39540856347500        1.82488046387300       -8.99388183309300      h
        2.65227797316900       -1.01627993859800       -9.10073774031800      h
        8.99351393160800        4.41183459489500        6.30464051270800      o
        9.57781121736000        6.11296857710800        5.89500896637200      h
       10.50192603930100        3.46025091686700        6.74998939882600      h
       14.05566776263200       -3.05183363491500       -2.86567530056000      o
       14.52407748398000       -1.37835113795300       -2.25305072009300      h
       15.65221523710200       -3.93712061946900       -3.20438868915100      h
      -10.98482733970800       -0.03483973725600       -0.40305547502200      o
      -12.37956784726500       -1.03191105037300       -1.05403932814500      h
       -9.85116220338000       -1.18434440304600        0.51688737739800      h
        4.59038740837000        1.49813533238400       -2.83007496750700      o
        3.54940260112500        2.13482975780200       -4.22050090644500      h
        6.34573942878800        1.74441807287800       -3.26638439508900      h
      -11.05983580398000       -6.78170515055800        6.71551947111300      o
      -10.78519637937600       -4.97395209612700        6.33854956163500      h
      -11.64350942480000       -6.81229852110400        8.43440385382400      h
       -3.48073027438900       -5.05423858028200      -11.77290609974400      o
       -3.59549352120700       -6.70243400198300      -12.51663476469100      h
       -3.98409296839400       -5.26821253562600      -10.00058508995600      h
       -9.88987251530800        4.28293313057300       -6.64750256861000      o
      -11.48036397066600        3.70125492920800       -5.92729481232800      h
       -9.89583425277900        3.79092111592200       -8.41905670190700      h
       17.78153171831300       -7.57175372331800        5.26105153630400      o
       18.83166441146800       -7.14357690370100        6.67149576835600      h
       16.56675272119600       -8.87093647996100        5.88495944024500      h
        9.72053571670900       -7.15184444584800       -5.21278498720800      o
        9.32043031270800       -5.37773582749900       -5.06698458244400      h
        8.17369819387200       -7.91872199459200       -5.92231622481300      h
      -17.48154639014500       -5.86280058387200       -0.05349179819300      o
      -16.98675828814000       -7.25790770790100       -1.15304062461000      h
      -16.85629468601900       -6.35149487999500        1.61528526188000      h
       -4.94035110673500        3.24333181985200        0.87664722705600      o
       -5.82619701666700        2.57625398453400       -0.60639867499200      h
       -6.07793754024900        4.44640425081800        1.68888282557700      h
       -1.73100098254400      -14.25447267669800       -1.76477219221400      o
       -3.13687748959600      -13.99458778859800       -0.61827612017900      h
       -0.31147958606500      -14.59627936317600       -0.66844571212300      h
        4.38879600381900       -2.72152256410300        5.18020042565700      o
        6.17596465785400       -2.32051104104500        5.02210415069600      h
        3.64480282316000       -1.35313914377200        6.18617147494200      h
       10.50913303266300      -10.39791051452200       -1.47206822681700      o
       12.23783226607300      -10.96295903399200       -1.75074361188500      h
       10.16113281266100       -9.21849484348600       -2.86624410240200      h
        7.48193520825100        0.11614919658500        9.60337503580600      o
        5.73295300236400        0.45053765878000        9.15040830817300      h
        8.29222130633500       -0.40220693667000        8.04580111114400      h
       -9.53750384587600       -4.60665510097700       -3.53921036176000      o
       -7.77914312020900       -4.31510374236400       -3.11013411800800      h
      -10.45447785549200       -4.86275853709200       -1.94878944590300      h
        9.84912301598100        1.43414957513500       -3.09802042457400      o
       10.92027481320700        0.90699647430100       -4.46463825259600      h
       10.83442705928100        1.26678683774100       -1.54350769948100      h
       -4.04665093961100        4.79119911671900       -6.29605365317500      o
       -2.67452846084100        5.87314247063500       -6.85839848711600      h
       -4.99119570784300        5.78707447425100       -5.05351725847000      h
        8.24224000952000       -6.44876984906700        4.54468047001900      o
        9.22319364894900       -8.00848305537500        4.51089350003400      h
        7.28452124813500       -6.45795337105000        2.97835980423600      h
        3.26646962059600       -2.97602049509800       11.53901739069400      o
        2.56249563671700       -3.75775037385400       13.01605264765200      h
        3.56470016493200       -1.21819317519400       12.04157144299800      h
       12.29642125211500        0.10473509991700       12.14250798891100      o
       12.50332411676200        1.87576108542500       12.56280109183100      h
       10.50591268642200       -0.19876202730300       11.94838178345000      h
       -5.78088452289100       -2.47131141349500        7.27265318524800      o
       -4.06276274589000       -2.31189682016900        7.87058548037400      h
       -5.73624632339600       -4.00830943529200        6.25363528319400      h
        1.36943671710300        4.04544880329900       -5.74230284290700      o
        0.19621826153300        4.34074177337100       -4.33581920829300      h
        2.11682789468300        5.68306909673300       -6.04079129798600      h
       -2.56569982088800       15.50126954623900        3.01536242109100      o
       -4.01571452711300       14.71128803550600        3.83312605194000      h
       -1.11413698048900       14.84316634392000        3.91089827915100      h
       -7.63487275738200       -7.86505910741500        0.82197278280600      o
       -6.50541874569600       -8.23411468342400       -0.57746721429400      h
       -6.65430026981900       -7.83539907667200        2.38120053647100      h
      -10.80392321242200       -1.86682659379600        5.80690885715700      o
      -12.20414794732500       -1.71103875930000        4.60505641569000      h
      -11.19198393389000       -0.58872936320100        7.09181324874000      h
       13.12559971889200        5.73402071188800       -4.94853648945500      o
       11.33877231837200        5.39409629469000       -4.80174748665500      h
       13.69565718867100        4.97378693540200       -6.57597564774400      h
       -3.11586810759800        2.33410013177800      -13.69548721046700      o
       -4.46958396171400        1.12153943500900      -13.88865565330600      h
       -2.26300136819900        1.84980028299000      -12.10188238568700      h
      -14.87011106883200       -1.79341824854700        2.85078764231100      o
      -16.02375551946400       -2.24177490941300        4.22115434098600      h
      -15.47725906343700       -0.20853649947100        2.14810059941000      h
        3.21786791461900        1.73268075994000       13.61509430299400      o
        2.56337641228200        3.20429992570000       12.74059202184900      h
        1.76565597735600        1.00006205368700       14.44533968901100      h
      -13.85458435269900        2.61445943255400       -3.92964002497000      o
      -15.26482055842700        3.73249882241700       -3.56624059015700      h
      -14.38238197744900        0.90460041650300       -3.56811496000400      h
       -7.33784576344000        2.39739178588300        6.00598537510900      o
       -8.99681825311200        2.46409024322000        5.20835100321600      h
       -6.88664945107400        0.63124647211800        6.22884495509100      h
       16.15731358240900       -3.50216259519500       10.54551074379100      o
       15.31106495411400       -2.23389944250400       11.54154940029000      h
       14.88038828029000       -4.79614208989300       10.28786257973400      h
       15.35719286293600        1.89296008090000       -2.48614323922400      o
       14.49914194820100        3.31381765440900       -3.30267151200000      h
       16.43544444918100        2.62713659029900       -1.17455922255600      h
      -15.28138598775000        7.53802316599900        7.42416540215700      o
      -15.29113006499900        7.87448143085400        5.61523902349800      h
      -16.16406786073900        5.94337268309700        7.62506172487500      h
        1.99091403115100        1.00499803392900      -14.48041244818400      o
        0.30880943750300        1.41147958360900      -15.05878489109700      h
        2.38551216883400        2.35278109588500      -13.27891018030500      h
       -4.39651121667600       -5.34566361525100       12.52628951251600      o
       -6.04123467153500       -4.55568642821100       12.33075250890400      h
       -3.33902019259100       -4.74291923806400       11.13540209229700      h
        5.87455111147400       10.07401375845200        1.47872406951100      o
        6.12468458981000       10.62437685417500        3.22511630790800      h
        6.89342734096300        8.54744613799200        1.22114260257500      h
       -7.33605049034000        1.62724034267800       -3.25809812745900      o
       -8.02359636239800        2.95799349314400       -4.33945112191700      h
       -8.80795330434300        0.92907783546900       -2.35793806332500      h
      -10.38849965888600        6.69174763481000        7.58749983871200      o
       -9.50681264289400        7.96977843870300        8.52193867778800      h
      -12.20168722934200        7.16201007220200        7.59724361303800      h
      -13.29040401792800        9.78341031698900       -2.89587682282500      o
      -12.44738510343400        9.69651434114900       -4.58985739069700      h
      -12.77229046066700       11.38278284274700       -2.21805058649000      h
      -10.89108463126300        5.64208158944700       -1.16603016841700      o
      -11.79668820198400        4.23849656370300       -1.93435702660400      h
      -11.82163192556700        7.16997187124000       -1.63839564099900      h
       12.10592401325000        0.45375122770800        1.43120724367500      o
       13.72269627610200       -0.43455826881100        1.47215128310700      h
       12.51007751410200        2.18527997934000        1.95029597020100      h
        6.18282051330000       11.47670586430700        6.35070562915000      o
        8.00473023670700       11.35901987738500        6.43338034329000      h
        5.59556143493400        9.88415077643400        7.09658926764900      h
        5.41975290113600       -7.24493992410000        0.19159705199700      o
        4.97559642680000       -6.04418232408600       -1.12091607545600      h
        5.41826583288900       -8.90872349616800       -0.60080358441700      h
        0.97594703275800       10.61974089759600        0.72290779161600      o
        0.96392030583500       11.87977318998900       -0.62086096575700      h
        2.75201059867900       10.11286172822300        0.90623911447000      h
       -1.21026069827700       -1.11573333839000       13.93409580411700      o
       -2.37230162479000       -2.50827194993200       14.12762550870000      h
       -1.73780683999900       -0.21697043992400       12.42620293850100      h
       -7.62849097729600       -2.83505245369000        1.99699640910500      o
       -8.20849514603100       -4.56060279177500        1.69507375430300      h
       -8.28409590257100       -2.38022827870600        3.65360803561400      h
        8.43283763081600       -4.93059812528600      -11.05679070128600      o
        8.08610934850100       -3.41582922119500      -12.05146080729200      h
        8.10831614230700       -4.39846218902200       -9.32092941918900      h
      -12.01742136179500       -5.38182322706000        0.72920067937200      o
      -13.23341434267200       -4.23596237412000        1.49142533826900      h
      -12.58948216009900       -7.07685585355700        1.04357162815300      h
        3.79794888087200       -4.57816560144700       -3.84275273809000      o
        5.11182314277800       -3.50710789027500       -4.52260928729300      h
        2.20507670775600       -4.10277078591800       -4.67234299089100      h
        6.95865641959000       -0.29945629390800      -12.63525294492100      o
        5.83670390522800       -0.00951582670000      -14.03491799609800      h
        5.90949364169600       -0.06832039305700      -11.12017242180800      h
      -14.54760135308900        1.79015314962700       -9.34388026688800      o
      -13.43874308469000        0.90440857039100       -8.16581782369100      h
      -13.44465352781800        2.51181144915400      -10.60251124906600      h
       12.44047346800200       -1.22336716887600       -7.16520558120700      o
       13.14630693219900       -2.04970985110000       -5.65331956441200      h
       12.91616631296700       -2.34761319562400       -8.59303015231600      h
       11.35303915534800       -5.56721911576500        0.50785637954300      o
       11.09102129672000       -7.31311211029700        0.03506665460300      h
       12.41542910781900       -4.77797904316600       -0.78545461836400      h
      -16.86143296709300       -2.72662202586000       -9.94832922752600      o
      -16.22445763674700       -0.98758723419100       -9.84477537300100      h
      -16.08305820454200       -3.42358442934600      -11.43278621420700      h
        2.75721007172500        1.16846986357700        7.76997961892800      o
        2.41953360127400        2.47381466240600        6.49198384507300      h
        1.22571461026100        1.00944461332300        8.74137057098800      h
        7.67899766460100       -2.49804628679600       -6.49379195829400      o
        9.34536030289700       -1.74583992989400       -6.80828864811800      h
        6.42930351315500       -1.32704054403200       -7.18161980070700      h
       -0.64236360704500       10.48466307641400        9.73974934580500      o
       -0.06893436747500       11.09229400050200        8.06761498160400      h
       -0.11227589447100       11.73762774216700       10.93059564143000      h
        7.26866194401500        6.71068698549100       -9.42663728161700      o
        6.90253801401100        8.50599298409000       -9.17304100085500      h
        7.64431558037800        6.06446051669000       -7.75875989947100      h
        2.80279312777000       -7.42624792758500        4.39702228361100      o
        3.28730086757700       -5.78911548126600        5.07446598631200      h
        3.39239233428100       -7.38667900525400        2.64770119600400      h
      -15.13968096833900       -2.30412857782300       -2.69947280444400      o
      -15.99663527321600       -3.41169798226000       -1.46774523172100      h
      -14.54137824308600       -3.46843541406100       -4.03167324140100      h
      -17.08236940396900        6.36766950114200       -2.39430096221400      o
      -15.98892402613800        7.77428966921200       -2.84642882330200      h
      -18.02169635161600        5.93404363501900       -3.92570870732400      h
       -3.53913181624600       14.13343722423000       -1.69771623708800      o
       -3.57192157728000       15.65179675200000       -2.67708658059100      h
       -3.10958176509700       14.61909069940000        0.05585242041600      h
       16.79187760430200       -1.71876208286000        1.51608199755200      o
       16.58420439778500       -3.51963112757300        1.24218112584800      h
       17.14945150553100       -1.49105769019600        3.32626531004000      h
       18.62739341652700       -0.09721191949900       -5.78374653873100      o
       18.42772788554800        0.70923866872100       -7.39454126864800      h
       17.36208875850000        0.69327530967600       -4.66897861673000      h
       10.75359454920600        9.20679101328000        5.55979801531900      o
       11.01919743017700        9.80745915650300        3.82918924029400      h
       12.41392527297900        8.90135726788400        6.24193011997500      h
       13.21065744642900        5.20723768988100        2.44691543208000      o
       13.84493255889300        5.55781417421500        4.14870212299000      h
       14.21733045161500        6.22228620500400        1.28403515279500      h
        2.21110289433100      -13.12285841780100        1.49803025039300      o
        3.31922004112600      -12.69471488759700        0.10002574581500      h
        3.27379802280200      -13.08095279906800        2.99495451845400      h
       13.59662606855000       -4.48730362071900        4.92588511097400      o
       15.19284424750200       -5.37757391729200        5.05112935673000      h
       12.81087897125400       -5.02938823599500        3.34791515417700      h
        5.29620598530600      -11.70472801325600        5.39460523681600      o
        4.52400651229800      -10.03829679132500        5.06823221504300      h
        5.12007237348000      -11.91930391642300        7.19955298513800      h
      -20.93143549252300       -3.09768407489800        2.88531036670000      o
      -20.04917858034900       -4.24663869116400        1.76637192270900      h
      -21.39413872810800       -1.67697246287600        1.83786994777500      h
      -14.01813313274300       -4.01353989738700       10.20823280992800      o
      -14.65464627618400       -3.52329476005800       11.82930610208000      h
      -15.25895148140000       -3.42530496699700        8.98955938223800      h
      -15.10980020929100       -9.65352909420200       -2.56642166313000      o
      -14.48246576808700      -10.42157635949800       -1.03525166784400      h
      -13.61103287752800       -9.51857575210200       -3.64359561879100      h
       -0.40060581269100       -8.53588042747700       -8.41507794212500      o
       -1.96800865611600       -9.23150038949100       -9.12504593489100      h
        0.89887457408900       -8.68369006446000       -9.68212738053000      h
       15.49519969263200      -10.96270205072700       -2.20593370338700      o
       15.98625990655800       -9.44572779809200       -1.24131341395900      h
       16.55395554431000      -12.31694044581600       -1.64649810084400      h
       -6.86284898674600       -1.23318304683000      -12.46060074784800      o
       -5.75339796120500       -2.67915492872800      -12.70922690857900      h
       -6.59320052074800       -0.79382588208700      -10.69007040363000      h
       -8.66678325954500      -13.07998985084900       -2.10362245781300      o
       -7.38567889274000      -12.88455369718600       -0.77987543002100      h
      -10.24738289831300      -13.05462204158200       -1.18982463418800      h
       23.70069182413500        1.95939806483700        3.17281083242300      o
       23.01817509032800        1.01173282124800        1.76064432360500      h
       25.49986642850100        1.81181280389900        3.08124990820700      h
        4.32935725015800      -10.37466752180500       10.33144865125200      o
        4.69553727800000      -10.95964452006100       12.00051705925500      h
        5.31146154315100       -8.79803093863100       10.07710155345700      h
      -11.75175282777600      -10.79995192820600        1.38270392004400      o
      -10.21753825740700       -9.76182938095300        1.19362234178400      h
      -11.65952448958200      -11.48772284508200        3.05676774735200      h
       -4.62013934196600       -3.28365759707800       -2.05321261291500      o
       -5.48747324856700       -2.91900979909800       -0.47468476990100      h
       -3.89180239547700       -1.66259117842700       -2.60818921773000      h
      -15.70723496754200       -7.17090947351000        4.56804822830100      o
      -16.75561521634500       -6.35175626292000        5.79932612070300      h
      -13.98449611988200       -7.15053024179500        5.23931010773200      h
       14.66548277622500       -7.98906537669400       -6.57521911618000      o
       15.10402839097800       -9.40158537519200       -5.50783446098900      h
       12.91529847975700       -7.59864200060300       -6.15373175975100      h
       12.67508470715500        5.28937890452800       11.64332037208100      o
       13.19243016489400        6.66646994657300       12.69388811851100      h
       10.81369007390800        5.32248582412600       11.59810359311400      h
      -12.17258439809000        1.89104001710100        8.87418357905300      o
      -11.68287243862300        1.76550567951500       10.66483883132100      h
      -11.45954580569100        3.47508867784700        8.28251632487000      h
       -3.83245169699800        9.03191445584800        1.57372528838400      o
       -3.68429202759000        7.72469942037900        2.87376839908000      h
       -2.12783385079700        9.57622331258100        1.17010026621300      h
      -19.27982428326600       -0.90100134159200       -5.22735663339000      o
      -17.72562747367500       -1.40359920152300       -4.33082232312900      h
      -19.25956420387400       -1.79530013837000       -6.80945772896600      h
      -17.86366101067900       -2.44447594025500        6.87958650830900      o
      -17.80997390099500       -0.60294394245100        7.12765338820500      h
      -19.32071009419400       -2.75026247443100        5.78150309501200      h
      -18.56229565684700        4.05313033009000       -6.62422299098800      o
      -17.17103532906900        3.76499301670700       -7.77732706144600      h
      -19.11443678059800        2.36533395463700       -6.15059405859600      h
       13.53242746220800       -4.61850519124700      -10.55459847462100      o
       11.81466260511600       -5.03973066869900      -11.08098286366300      h
       14.17900292540900       -6.06206543436900       -9.64917702208100      h
       -5.15108765482500       -9.50099601899000        9.52965626527500      o
       -3.38008722691500       -9.86773667409700        9.22862515728700      h
       -5.13700218599700       -8.24626065129900       10.88520518171900      h
       -4.76807654452100       -8.83012349850400       -3.40831251989200      o
       -5.26683324298600      -10.38683149574500       -4.26479894393000      h
       -2.94038883832600       -9.00400863842900       -3.20695083930900      h
       -8.37347950344700       12.23884419712200       -2.30710626718900      o
       -7.86535550223800       10.60720748147800       -2.99940771472300      h
       -6.78668480236700       13.12036369401100       -2.06297515203100      h
        7.78088218303300        6.28523836814200       -4.25013498879400      o
        8.10231247578600        5.91180937782500       -2.43955549129200      h
        6.07772313628900        6.95027202888500       -4.28530917825200      h
        3.95328990289600       -7.40640401422400      -11.11983676169300      o
        3.01588887530800       -5.81571528092500      -11.32451215628600      h
        5.68848296240100       -6.94851755062200      -11.51934471031500      h
       -5.39161023831600      -12.67254761608600        1.77294983027000      o
       -6.55981102362600      -12.46031695069400        3.17737888963700      h
       -4.01917255892700      -11.47197380004600        2.10591828322300      h
       10.57778252810800        3.55720424343300      -12.02471471525400      o
        9.53229247511500        2.10197501230500      -12.40656445705900      h
        9.44140602886100        4.85241177200200      -11.41447017375600      h
       18.38769132237500       -5.06007430289000       -4.39364891529900      o
       17.46810495768500       -6.09659251438700       -5.59963865019400      h
       18.81131254846400       -3.48063512328600       -5.23566995358000      h
      -10.65463007972000       -9.29490344709800       -5.06820275818400      o
      -10.18467045314800       -7.59982280077600       -4.47121569018300      h
       -9.72202358109600      -10.51919959901500       -4.06672303794800      h
      -14.34843708306700        7.82532970218700        2.41419046370200      o
      -13.10811639317200        9.19589203927600        2.29097189758300      h
      -15.53569040721800        8.06064305068600        1.06558174344100      h
       -9.88850453891400        3.18936121480400      -11.65848345335200      o
       -9.15834375630600        1.70352763212100      -12.41478894954800      h
       -8.60439369522400        4.51347008051700      -11.80187556320900      h
       -8.85290415578300       -3.03799199761500       11.20946073457500      o
       -7.97754647318000       -2.69696913469000        9.60895465292700      h
      -10.59155842429800       -3.41120780889200       10.78300870865100      h
      -21.42555769592200        0.72306497240600       -0.81572466719400      o
      -20.88376714713700        0.00425046779200       -2.42246049178300      h
      -22.77667404472400        1.86784430268200       -1.18517928737100      h
        6.08998915902000       11.26885001105300       -7.54971845842400      o
        5.04250058761000       10.56563261165100       -6.20048388360500      h
        7.62431990841800       11.83614416840200       -6.74986112952000      h
       15.06678552740500        6.42560029809300        7.00727536308000      o
       16.74409680756100        5.72596225828000        6.79131688708600      h
       14.36786335017500        5.69655427729500        8.53974316129900      h
        3.12366352911700        8.68752368573100       -4.23316886160200      o
        1.42052905731400        9.39757548595300       -4.46598085582900      h
        3.14331634318500        8.08815545683100       -2.49587429002500      h
        0.93465649071900        5.64452639593800       10.96737793608100      o
       -0.30030184384700        4.42688911840200       10.33429467755300      h
        0.21005424231600        7.30945375600600       10.71410104980700      h
       21.05789442445100       -0.17386232545200       -0.88042408681700      o
       20.77656570768000       -0.26878953358700       -2.67893494610900      h
       19.51816032457600       -0.82856961861900       -0.08227652412700      h
      -11.08388485193000       -1.22783875312400       -7.03226356589900      o
       -9.37956087077500       -0.62488976548200       -7.34238039367000      h
      -10.89952563116600       -2.56019649975100       -5.76761469757800      h
      -11.52006906891700       -3.68970637079200      -11.46202221936000      o
      -10.10724225829400       -2.88214213758900      -12.29585582494600      h
      -11.63734583908600       -2.86901795345500       -9.80117621758700      h
       -5.51668441194900       -5.55106262559400       -7.13776276667700      o
       -7.00351905560000       -6.26318649444600       -8.01306454948600      h
       -5.25464038023900       -6.66208538118200       -5.67561895082200      h
        1.36244409803200       -3.09023079166300      -11.50017138132500      o
       -0.41224373001200       -3.55032871915200      -11.54310123700300      h
        1.58218544632900       -1.75082870719000      -12.76068159202500      h
        5.16617274540500       -8.73356955814800       -6.37678100869300      o
        4.42736272170900       -7.31381963692100       -5.43072737309200      h
        4.68501009113700       -8.46094337028000       -8.14391434809600      h
       -5.56528998203700        9.31833946133700        8.79180988861800      o
       -5.96124251446500       10.51632400190400        7.41911926563100      h
       -3.97108912937800        9.90980674774300        9.48269823820500      h
      -11.99183995396900        3.00820511731700        3.61859541810200      o
      -12.92818725959600        4.51813529326600        3.20487287738000      h
      -11.80231971268000        2.04707760571600        2.06202447720400      h
       14.22124173741000      -10.52436532042200        6.99186236441800      o
       12.90567236449300      -10.98945247722900        5.80650064441500      h
       13.42577028007600       -9.32611961576000        8.15082127829900      h
       10.08485753790700      -11.07908588211100        3.78819172974300      o
       10.08559361696700      -11.13762912695800        1.96330574390100      h
        8.42027039332700      -11.66113506389100        4.35078438272300      h
       -4.71750770224000      -10.44816818772600      -10.17017437843000      o
       -6.35447327101700       -9.61648267690100      -10.24859241079300      h
       -4.92364427280900      -11.79496575155200       -8.95153290902900      h
       11.79616073260600       10.81769544330000        0.87058833423800      o
       10.90144183708900       10.95133880904100       -0.71615289288900      h
       13.46307569017600       10.21973934027300        0.42993791570000      h
       -0.72220701263700        7.68774831518600       -9.24734369311300      o
       -2.02642977553500        7.82940034346900      -10.50723550932600      h
       -0.18278653470500        9.42771132720300       -8.85805575999200      h
        2.93700145467300        4.50435049344300      -10.85102994051600      o
        4.53132333161900        5.39376553860200      -10.59506259528200      h
        1.58693462980600        5.66548071529000      -10.36012963217700      h
      -17.08178983239000        2.57509791444900        1.33943619572800      o
      -18.69424316759200        1.88741216657700        0.79186289410800      h
      -16.83304268649000        4.06350963134700        0.30670910499800      h
       17.04323063277500       -6.83782711468000        0.30038547329100      o
       17.73159713571200       -7.26979003481700        1.95144219840400      h
       18.38957976236500       -6.39538517131300       -0.85018349994900      h
       14.50932177830200        3.12120135150900       -8.85139520205400      o
       13.93551804399200        1.46766619752300       -8.26748847276600      h
       13.37908749669300        3.47715051606700      -10.26922123240900      h
        0.96273184528000       12.36177733638800       -8.34986376379800      o
        2.74775291477900       12.41631840453600       -8.70909069505400      h
        0.78113609209100       12.90056960610900       -6.60940346548500      h
        6.79653849865000       -6.13422723172200        9.42851754438600      o
        6.93663868436100       -6.04940629667300        7.58781408010600      h
        5.71794575961200       -4.75338058139500        9.98908840754000      h
        1.07929952640100       12.43584259969900        5.43878774590600      o
        2.87186139385500       12.59088691963100        5.75827647223500      h
        0.93477298741100       11.62507777790800        3.77263019314200      h
       -2.17556348018400        1.78359277494300        9.56394210609100      o
       -2.44577176313300        1.40588005085500        7.77364212853700      h
       -3.73594777749900        2.62433394908200       10.12000277090500      h
       -5.61538128981600        5.93038418090800      -11.06500014702100      o
       -4.64694925571800        4.85365563913300      -12.21663600416200      h
       -5.33960932901800        5.24428435511400       -9.36768155967200      h
       17.43397884689900       -0.78847428515700        6.40102725332500      o
       15.78104014333500        0.06003634150900        6.56429639984900      h
       17.42525378981700       -1.96371754428800        7.82414729234600      h
       10.29584335048700       10.68249256648000       -4.28322074157200      o
        9.44132190941100        9.02434325598200       -4.27380984870700      h
       11.96249883640100       10.38080737860900       -4.92617076270400      h
       -9.15708271440100       -7.77851846619400       -9.65872493765100      o
      -10.24872995563000       -6.49350670340600      -10.43616017060100      h
      -10.09055532129300       -8.49541222349600       -8.23686537947600      h
       -5.13733428246700      -13.36927369668200       -5.75636902557000      o
       -6.68989114649400      -13.87369441649900       -4.92953721556400      h
       -3.78913334049900      -14.15208716905200       -4.80516058569900      h
        1.76022011357800       13.97363718917200       -3.20771046794400      o
        1.28809435840100       15.67928868750000       -2.84274605942100      h
        3.60520980833500       13.89052286600500       -2.94526302585300      h
      -10.37735016599200       11.08919910541900        2.12416859673800      o
       -9.76696625739400       11.69047665729200        0.47174745150600      h
       -9.42112671224800        9.52133498064500        2.40969167193600      h
       -6.13270137061400       12.23553109519500        4.73058324463900      o
       -5.30648456039100       11.09016441239400        3.50645987320000      h
       -7.86883553065000       12.35466801710300        4.13255254241300      h
        6.56156904153400       13.69202345240600       -1.95680263509400      o
        6.41549463255500       12.46881869753800       -0.57054506839500      h
        8.04619524637200       13.20438383879200       -2.88245320689000      h
       -6.39299696759500        4.26288416399400       10.56129440841800      o
       -7.10268300323400        3.68610811866700        8.93484268749600      h
       -6.24525768794400        6.07252740622300       10.41482341323600      h
        8.55791611075700        5.89746739684200        0.57059139880700      o
       10.23648487597500        5.79477123336700        1.32355196933400      h
        7.54742554281300        4.50733952683500        1.29014387088400      h
       19.42300317628900        3.80220804631700        5.54893928964400      o
       18.86660578517700        2.09000134378400        5.97934540800200      h
       21.20538294049100        3.62203152720500        5.19393652195100      h
       -6.45772517587000        7.47947669312200       -2.70051151120900      o
       -5.58166320638900        7.93225763140300       -1.14538839291800      h
       -8.02811239753600        6.64800424681900       -2.20475566580500      h
      -10.83072043874300        9.28071815689900       -7.06924443163000      o
       -9.22678517270400       10.16635953291000       -7.20591934751700      h
      -10.38139487721000        7.49342530591700       -6.98697394347600      h
       15.72071967699400        8.01944417452900       -1.07198704324500      o
       14.97093126696300        7.36787146957100       -2.61564154722000      h
       17.25232549391900        7.06026265924600       -0.76841837289100      h
       12.95523113219200        1.18766137210800        7.25310357913000      o
[...]
   160   8 o      161   1 h                                       0.9747294
   160   8 o      162   1 h                                       0.9718026
   163   8 o      164   1 h                                       0.9637306
   163   8 o      165   1 h                                       0.9716282
   166   8 o      167   1 h                                       0.9788787
   166   8 o      168   1 h                                       0.9788913
   169   8 o      170   1 h                                       0.9736738
   169   8 o      171   1 h                                       0.9703438
   172   8 o      173   1 h                                       0.9655445
   172   8 o      174   1 h                                       0.9780242
   175   8 o      176   1 h                                       0.9710675
   175   8 o      177   1 h                                       0.9780702
   178   8 o      179   1 h                                       0.9779551
   178   8 o      180   1 h                                       0.9807449
   181   8 o      182   1 h                                       0.9776108
   181   8 o      183   1 h                                       0.9849263
   184   8 o      185   1 h                                       0.9589519
   184   8 o      186   1 h                                       0.9912566
   187   8 o      189   1 h                                       0.9592398
   190   8 o      191   1 h                                       0.9729518
   190   8 o      192   1 h                                       0.9791204
   193   8 o      194   1 h                                       0.9764321
   193   8 o      195   1 h                                       0.9801907
   196   8 o      197   1 h                                       0.9671125
   196   8 o      198   1 h                                       0.9811134
   199   8 o      200   1 h                                       0.9702555
   199   8 o      201   1 h                                       0.9751915
   202   8 o      203   1 h                                       0.9748273
   202   8 o      204   1 h                                       0.9821819
   205   8 o      206   1 h                                       0.9652165
   205   8 o      207   1 h                                       0.9699720
   208   8 o      209   1 h                                       0.9764842
   208   8 o      210   1 h                                       0.9730309
   211   8 o      212   1 h                                       0.9763448
   211   8 o      213   1 h                                       0.9759982
   214   8 o      215   1 h                                       0.9718182
   214   8 o      216   1 h                                       0.9611844
   217   8 o      218   1 h                                       0.9664746
   217   8 o      219   1 h                                       0.9831114
   220   8 o      221   1 h                                       0.9615757
   220   8 o      222   1 h                                       0.9828512
   223   8 o      224   1 h                                       0.9760332
   223   8 o      225   1 h                                       0.9644154
   226   8 o      227   1 h                                       0.9852994
   226   8 o      228   1 h                                       0.9940783
   229   8 o      230   1 h                                       0.9671539
   229   8 o      231   1 h                                       0.9792247
   232   8 o      233   1 h                                       0.9815779
   232   8 o      234   1 h                                       0.9606042
   235   8 o      236   1 h                                       0.9830774
   235   8 o      237   1 h                                       0.9633886
   238   8 o      239   1 h                                       0.9816897
   238   8 o      240   1 h                                       0.9766292
   241   8 o      242   1 h                                       0.9891609
   241   8 o      243   1 h                                       0.9567765
   244   8 o      245   1 h                                       0.9788322
   244   8 o      246   1 h                                       0.9671848
   247   8 o      248   1 h                                       0.9719994
   247   8 o      249   1 h                                       0.9770907
   250   8 o      251   1 h                                       0.9869168
   250   8 o      252   1 h                                       0.9883488
   253   8 o      254   1 h                                       0.9726823
   253   8 o      255   1 h                                       0.9779872
   256   8 o      257   1 h                                       0.9562831
   256   8 o      258   1 h                                       0.9893458
   259   8 o      260   1 h                                       0.9701826
   259   8 o      261   1 h                                       0.9838246
   262   8 o      263   1 h                                       0.9590947
   262   8 o      264   1 h                                       0.9855454
   265   8 o      266   1 h                                       0.9795290
   265   8 o      267   1 h                                       0.9635230
   268   8 o      269   1 h                                       0.9788044
   268   8 o      270   1 h                                       0.9751812
   271   8 o      272   1 h                                       0.9708127
   271   8 o      273   1 h                                       0.9717083
   274   8 o      275   1 h                                       0.9694464
   274   8 o      276   1 h                                       0.9759331
   277   8 o      278   1 h                                       0.9871396
   277   8 o      279   1 h                                       0.9663684
   280   8 o      281   1 h                                       0.9686253
   280   8 o      282   1 h                                       0.9656067
   283   8 o      284   1 h                                       0.9574114
   283   8 o      285   1 h                                       0.9715578
   286   8 o      287   1 h                                       0.9653572
   286   8 o      288   1 h                                       0.9793096
   289   8 o      290   1 h                                       0.9821469
   289   8 o      291   1 h                                       0.9636129
   292   8 o      293   1 h                                       0.9861518
   292   8 o      294   1 h                                       0.9566105
   295   8 o      296   1 h                                       0.9733886
   295   8 o      297   1 h                                       0.9758297
   298   8 o      299   1 h                                       0.9802971
   298   8 o      300   1 h                                       0.9662326
   301   8 o      302   1 h                                       0.9697255
   301   8 o      303   1 h                                       0.9565081
   304   8 o      305   1 h                                       0.9557585 (min)
   304   8 o      306   1 h                                       0.9921198
   307   8 o      308   1 h                                       0.9853594
   307   8 o      309   1 h                                       0.9589686
   310   8 o      311   1 h                                       0.9724467
   310   8 o      312   1 h                                       0.9852266
   313   8 o      314   1 h                                       0.9592801
   313   8 o      315   1 h                                       0.9784539
   316   8 o      317   1 h                                       0.9652003
   316   8 o      318   1 h                                       0.9747823
   319   8 o      320   1 h                                       0.9565849
   319   8 o      321   1 h                                       0.9854540
   322   8 o      323   1 h                                       0.9846143
   322   8 o      324   1 h                                       0.9711094
   325   8 o      326   1 h                                       0.9787454
   325   8 o      327   1 h                                       0.9707060
   328   8 o      329   1 h                                       0.9860187
   328   8 o      330   1 h                                       0.9617678
   331   8 o      332   1 h                                       0.9837090
   331   8 o      333   1 h                                       0.9789471
   334   8 o      335   1 h                                       0.9683044
   334   8 o      336   1 h                                       0.9725698
   337   8 o      338   1 h                                       0.9765045
   337   8 o      339   1 h                                       0.9644557
   340   8 o      341   1 h                                       0.9702232
   340   8 o      342   1 h                                       0.9774854
   343   8 o      344   1 h                                       0.9765675
   343   8 o      345   1 h                                       0.9773640
   346   8 o      347   1 h                                       0.9757130
   346   8 o      348   1 h                                       0.9692173
   349   8 o      350   1 h                                       0.9929606
   349   8 o      351   1 h                                       0.9677230
   352   8 o      353   1 h                                       0.9830318
   352   8 o      354   1 h                                       0.9729038
   355   8 o      356   1 h                                       0.9731908
   355   8 o      357   1 h                                       0.9808826
   358   8 o      359   1 h                                       0.9694999
   358   8 o      360   1 h                                       0.9672967
   361   8 o      362   1 h                                       0.9720772
   361   8 o      363   1 h                                       0.9733241
   364   8 o      365   1 h                                       0.9829821
   364   8 o      366   1 h                                       0.9716734
   367   8 o      368   1 h                                       0.9803385
   367   8 o      369   1 h                                       0.9589195
   370   8 o      371   1 h                                       0.9631657
   370   8 o      372   1 h                                       0.9790160
   373   8 o      374   1 h                                       0.9820719
   373   8 o      375   1 h                                       0.9676958
   376   8 o      377   1 h                                       0.9745818
   376   8 o      378   1 h                                       0.9572891
   379   8 o      380   1 h                                       0.9775010
   379   8 o      381   1 h                                       0.9635917
   382   8 o      383   1 h                                       0.9684818
   382   8 o      384   1 h                                       0.9712180
   385   8 o      386   1 h                                       0.9841903
   385   8 o      387   1 h                                       0.9725669
   388   8 o      389   1 h                                       0.9769818
   388   8 o      390   1 h                                       0.9701684
   391   8 o      392   1 h                                       0.9646131
   391   8 o      393   1 h                                       0.9809728
   394   8 o      395   1 h                                       0.9706386
   394   8 o      396   1 h                                       0.9769739
   397   8 o      398   1 h                                       0.9676159
   397   8 o      399   1 h                                       0.9822894
   400   8 o      401   1 h                                       0.9877276
   400   8 o      402   1 h                                       0.9816064
   403   8 o      404   1 h                                       0.9704381
   403   8 o      405   1 h                                       0.9802172
   406   8 o      407   1 h                                       0.9838354
   406   8 o      408   1 h                                       0.9798504
   409   8 o      410   1 h                                       0.9866318
   409   8 o      411   1 h                                       0.9712438
   412   8 o      413   1 h                                       0.9653391
   412   8 o      414   1 h                                       0.9732543
   415   8 o      416   1 h                                       0.9688586
   415   8 o      417   1 h                                       0.9774397
   418   8 o      419   1 h                                       0.9661850
   418   8 o      420   1 h                                       0.9794987
   421   8 o      422   1 h                                       0.9725216
   421   8 o      423   1 h                                       0.9673156
   424   8 o      425   1 h                                       0.9665463
   424   8 o      426   1 h                                       0.9657057
   427   8 o      428   1 h                                       0.9625194
   427   8 o      429   1 h                                       0.9857467
   430   8 o      431   1 h                                       0.9755309
   430   8 o      432   1 h                                       0.9774589
   433   8 o      434   1 h                                       0.9718372
   433   8 o      435   1 h                                       0.9676524
   436   8 o      437   1 h                                       0.9738053
   436   8 o      438   1 h                                       0.9659797
   439   8 o      440   1 h                                       0.9763824
   439   8 o      441   1 h                                       0.9778130
   442   8 o      443   1 h                                       0.9639627
   442   8 o      444   1 h                                       0.9689113
   445   8 o      446   1 h                                       0.9779064
   445   8 o      447   1 h                                       0.9735049
   448   8 o      449   1 h                                       0.9670184
   448   8 o      450   1 h                                       0.9835167
   451   8 o      452   1 h                                       0.9787424
   451   8 o      453   1 h                                       0.9830240
   454   8 o      455   1 h                                       0.9791167
   454   8 o      456   1 h                                       0.9797176
   457   8 o      458   1 h                                       0.9870019
   457   8 o      459   1 h                                       0.9766932
   460   8 o      461   1 h                                       0.9871326
   460   8 o      462   1 h                                       0.9586933
   463   8 o      464   1 h                                       0.9825262
   463   8 o      465   1 h                                       0.9767575
   466   8 o      467   1 h                                       0.9683400
   466   8 o      468   1 h                                       0.9664174
   469   8 o      470   1 h                                       0.9562379
   469   8 o      471   1 h                                       0.9871353
   472   8 o      473   1 h                                       0.9849805
   472   8 o      474   1 h                                       0.9834848
   475   8 o      476   1 h                                       0.9890063
   475   8 o      477   1 h                                       0.9737431
   478   8 o      479   1 h                                       0.9813746
   478   8 o      480   1 h                                       0.9611142
   481   8 o      482   1 h                                       0.9874042
   481   8 o      483   1 h                                       0.9639294
   484   8 o      485   1 h                                       0.9750497
   484   8 o      486   1 h                                       0.9859330
   487   8 o      488   1 h                                       0.9795469
   487   8 o      489   1 h                                       0.9664359
   490   8 o      491   1 h                                       0.9744484
   490   8 o      492   1 h                                       0.9762189
   493   8 o      494   1 h                                       0.9722542
   493   8 o      495   1 h                                       0.9761962
   496   8 o      497   1 h                                       0.9713825
   496   8 o      498   1 h                                       0.9697091
   499   8 o      500   1 h                                       0.9751843
   499   8 o      501   1 h                                       0.9788193
   502   8 o      503   1 h                                       0.9713219
   502   8 o      504   1 h                                       0.9795942
   505   8 o      506   1 h                                       0.9717289
   505   8 o      507   1 h                                       0.9706550
   508   8 o      509   1 h                                       0.9584393
   508   8 o      510   1 h                                       0.9786961
   511   8 o      512   1 h                                       0.9729146
   511   8 o      513   1 h                                       0.9773593
   514   8 o      515   1 h                                       0.9703447
   514   8 o      516   1 h                                       0.9812715
   517   8 o      518   1 h                                       0.9673259
   517   8 o      519   1 h                                       0.9743617
   520   8 o      521   1 h                                       0.9718594
   520   8 o      522   1 h                                       0.9783625
   523   8 o      524   1 h                                       0.9815069
   523   8 o      525   1 h                                       0.9592742
   526   8 o      527   1 h                                       0.9585404
   526   8 o      528   1 h                                       0.9772888
   529   8 o      530   1 h                                       0.9602725
   529   8 o      531   1 h                                       0.9633937

 * 1 distinct bonds (by element types)

   Z      Z             #   av. dist./Å        max./Å        min./Å
   1 H    8 O         353     0.9739526     0.9974430     0.9557585


optimized geometry written to: xtbopt.coord


           -------------------------------------------------
          | TOTAL ENERGY             -901.232803258671 Eh   |
          | GRADIENT NORM               0.004177683905 Eh/α |
          | HOMO-LUMO GAP               6.723774423679 eV   |
           -------------------------------------------------

------------------------------------------------------------------------
 * finished run on 2022/11/17 at 06:52:13.611     
------------------------------------------------------------------------
 total:
 * wall-time:     0 d,  0 h,  3 min, 25.629 sec
 *  cpu-time:     0 d,  0 h,  5 min, 19.651 sec
 * ratio c/w:     1.555 speedup
 SCF:
 * wall-time:     0 d,  0 h,  0 min,  8.142 sec
 *  cpu-time:     0 d,  0 h,  0 min, 13.194 sec
 * ratio c/w:     1.620 speedup
 ANC optimizer:
 * wall-time:     0 d,  0 h,  3 min, 16.899 sec
 *  cpu-time:     0 d,  0 h,  5 min,  5.385 sec
 * ratio c/w:     1.551 speedup

