      -----------------------------------------------------------      
     |                   =====================                   |     
     |                           x T B                           |     
     |                   =====================                   |     
     |                         S. Grimme                         |     
     |          Mulliken Center for Theoretical Chemistry        |     
     |                    University of Bonn                     |     
      -----------------------------------------------------------      

   * xtb version 6.5.1 (579679a) compiled by 'ehlert@majestix' on 2022-07-11

   xtb is free software: you can redistribute it and/or modify it under
   the terms of the GNU Lesser General Public License as published by
   the Free Software Foundation, either version 3 of the License, or
   (at your option) any later version.
   
   xtb is distributed in the hope that it will be useful,
   but WITHOUT ANY WARRANTY; without even the implied warranty of
   MERCHANTABILITY or FITNESS FOR A PARTICULAR PURPOSE.  See the
   GNU Lesser General Public License for more details.
   
   Cite this work as:
   * C. Bannwarth, E. Caldeweyher, S. Ehlert, A. Hansen, P. Pracht,
     J. Seibert, S. Spicher, S. Grimme, WIREs Comput. Mol. Sci., 2020, 11,
     e01493. DOI: 10.1002/wcms.1493
   
   for GFN2-xTB:
   * C. Bannwarth, S. Ehlert and S. Grimme., J. Chem. Theory Comput., 2019,
     15, 1652-1671. DOI: 10.1021/acs.jctc.8b01176
   for GFN1-xTB:
   * S. Grimme, C. Bannwarth, P. Shushkov, J. Chem. Theory Comput., 2017,
     13, 1989-2009. DOI: 10.1021/acs.jctc.7b00118
   for GFN0-xTB:
   * P. Pracht, E. Caldeweyher, S. Ehlert, S. Grimme, ChemRxiv, 2019, preprint.
     DOI: 10.26434/chemrxiv.8326202.v1
   for GFN-FF:
   * S. Spicher and S. Grimme, Angew. Chem. Int. Ed., 2020, 59, 15665-15673.
     DOI: 10.1002/anie.202004239
   
   for ALPB and GBSA implicit solvation:
   * S. Ehlert, M. Stahn, S. Spicher, S. Grimme, J. Chem. Theory Comput.,
     2021, 17, 4250-4261. DOI: 10.1021/acs.jctc.1c00471
   
   for DFT-D4:
   * E. Caldeweyher, C. Bannwarth and S. Grimme, J. Chem. Phys., 2017,
     147, 034112. DOI: 10.1063/1.4993215
   * E. Caldeweyher, S. Ehlert, A. Hansen, H. Neugebauer, S. Spicher,
     C. Bannwarth and S. Grimme, J. Chem. Phys., 2019, 150, 154122.
     DOI: 10.1063/1.5090222
   * E. Caldeweyher, J.-M. Mewes, S. Ehlert and S. Grimme, Phys. Chem. Chem. Phys.
     2020, 22, 8499-8512. DOI: 10.1039/D0CP00502A
   
   for sTDA-xTB:
   * S. Grimme and C. Bannwarth, J. Chem. Phys., 2016, 145, 054103.
     DOI: 10.1063/1.4959605
   
   in the mass-spec context:
   * V. Asgeirsson, C. Bauer and S. Grimme, Chem. Sci., 2017, 8, 4879.
     DOI: 10.1039/c7sc00601b
   * J. Koopman and S. Grimme, ACS Omega 2019, 4, 12, 15120-15133.
     DOI: 10.1021/acsomega.9b02011
   
   for metadynamics refer to:
   * S. Grimme, J. Chem. Theory Comput., 2019, 155, 2847-2862
     DOI: 10.1021/acs.jctc.9b00143
   
   for SPH calculations refer to:
   * S. Spicher and S. Grimme, J. Chem. Theory Comput., 2021, 17, 1701-1714
     DOI: 10.1021/acs.jctc.0c01306
   
   with help from (in alphabetical order)
   P. Atkinson, C. Bannwarth, F. Bohle, G. Brandenburg, E. Caldeweyher
   M. Checinski, S. Dohm, S. Ehlert, S. Ehrlich, I. Gerasimov, C. Hölzer
   A. Katbashev, J. Koopman, C. Lavigne, S. Lehtola, F. März, M. Müller,
   F. Musil, H. Neugebauer, J. Pisarek, C. Plett, P. Pracht, F. Pultar,
   J. Seibert, P. Shushkov, S. Spicher, M. Stahn, M. Steiner, T. Strunk,
   J. Stückrath, T. Rose, and J. Unsleber
   
 * started run on 2022/11/17 at 06:54:59.737     

           -------------------------------------------------
          |                Calculation Setup                |
           -------------------------------------------------

          program call               : xtb solvent_cluster.coord --gfn2 --sp --lmo --chrg 0
          hostname                   : cn0363
          coordinate file            : solvent_cluster.coord
          omp threads                :                     2

   ID    Z sym.   atoms
    1    8 o      1, 4, 7, 10, 13, 16, 19, 22, 25, 28, 31, 34, 37, 40, 43,
                  46, 49, 52, 55, 58, 61, 64, 67, 70, 73, 76, 79, 82, 85, 88,
                  91, 94, 97, 100, 103, 106, 109, 112, 115, 118, 121, 124,
                  127, 130, 133, 136, 139, 142, 145, 148, 151, 154, 157, 160,
                  163, 166, 169, 172, 175, 178, 181, 184, 187, 190, 193, 196,
                  199, 202, 205, 208, 211, 214, 217, 220, 223, 226, 229, 232,
                  235, 238, 241, 244, 247, 250, 253, 256, 259, 262, 265, 268,
                  271, 274, 277, 280, 283, 286, 289, 292, 295, 298, 301, 304,
                  307, 310, 313, 316, 319, 322, 325, 328, 331, 334, 337, 340,
                  343, 346, 349, 352, 355, 358, 361, 364, 367, 370, 373, 376,
                  379, 382, 385, 388, 391, 394, 397, 400, 403, 406, 409, 412,
                  415, 418, 421, 424, 427, 430, 433, 436, 439, 442, 445, 448,
                  451, 454, 457, 460, 463, 466, 469, 472, 475, 478, 481, 484,
                  487, 490, 493, 496, 499, 502, 505, 508, 511, 514, 517, 520,
                  523, 526, 529
    2    1 h      2, 3, 5, 6, 8, 9, 11, 12, 14, 15, 17, 18, 20, 21, 23, 24,
                  26, 27, 29, 30, 32, 33, 35, 36, 38, 39, 41, 42, 44, 45, 47,
                  48, 50, 51, 53, 54, 56, 57, 59, 60, 62, 63, 65, 66, 68, 69,
                  71, 72, 74, 75, 77, 78, 80, 81, 83, 84, 86, 87, 89, 90, 92,
                  93, 95, 96, 98, 99, 101, 102, 104, 105, 107, 108, 110, 111,
                  113, 114, 116, 117, 119, 120, 122, 123, 125, 126, 128, 129,
                  131, 132, 134, 135, 137, 138, 140, 141, 143, 144, 146, 147,
                  149, 150, 152, 153, 155, 156, 158, 159, 161, 162, 164, 165,
                  167, 168, 170, 171, 173, 174, 176, 177, 179, 180, 182, 183,
                  185, 186, 188, 189, 191, 192, 194, 195, 197, 198, 200, 201,
                  203, 204, 206, 207, 209, 210, 212, 213, 215, 216, 218, 219,
                  221, 222, 224, 225, 227, 228, 230, 231, 233, 234, 236, 237,
                  239, 240, 242, 243, 245, 246, 248, 249, 251, 252, 254, 255,
                  257, 258, 260, 261, 263, 264, 266, 267, 269, 270, 272, 273,
                  275, 276, 278, 279, 281, 282, 284, 285, 287, 288, 290, 291,
                  293, 294, 296, 297, 299, 300, 302, 303, 305, 306, 308, 309,
                  311, 312, 314, 315, 317, 318, 320, 321, 323, 324, 326, 327,
                  329, 330, 332, 333, 335, 336, 338, 339, 341, 342, 344, 345,
                  347, 348, 350, 351, 353, 354, 356, 357, 359, 360, 362, 363,
                  365, 366, 368, 369, 371, 372, 374, 375, 377, 378, 380, 381,
                  383, 384, 386, 387, 389, 390, 392, 393, 395, 396, 398, 399,
                  401, 402, 404, 405, 407, 408, 410, 411, 413, 414, 416, 417,
                  419, 420, 422, 423, 425, 426, 428, 429, 431, 432, 434, 435,
                  437, 438, 440, 441, 443, 444, 446, 447, 449, 450, 452, 453,
                  455, 456, 458, 459, 461, 462, 464, 465, 467, 468, 470, 471,
                  473, 474, 476, 477, 479, 480, 482, 483, 485, 486, 488, 489,
                  491, 492, 494, 495, 497, 498, 500, 501, 503, 504, 506, 507,
                  509, 510, 512, 513, 515, 516, 518, 519, 521, 522, 524, 525,
                  527, 528, 530, 531

molecular fragmentation (1/2 indicates fragments):
111222222222222222222222222222222222222222222222222222222222222222222222
222222222222222222222222222222222222222222222222222222222222222222222222
222222222222222222222222222222222222222222222222222222222222222222222222
222222222222222222222222222222222222222222222222222222222222222222222222
222222222222222222222222222222222222222222222222222222222222222222222222
222222222222222222222222222222222222222222222222222222222222222222222222
222222222222222222222222222222222222222222222222222222222222222222222222
222222222222222222222222222
# atoms in fragment 1/2:     3   528
 fragment masses (1/2) :       18.02     3170.69
CMA distance (Bohr)    :   5.910
constraining FC (au)   :  0.0500

           -------------------------------------------------
          |                 G F N 2 - x T B                 |
           -------------------------------------------------

        Reference                      10.1021/acs.jctc.8b01176
      * Hamiltonian:
        H0-scaling (s, p, d)           1.850000    2.230000    2.230000
        zeta-weighting                 0.500000
      * Dispersion:
        s8                             2.700000
        a1                             0.520000
        a2                             5.000000
        s9                             5.000000
      * Repulsion:
        kExp                           1.500000    1.000000
        rExp                           1.000000
      * Coulomb:
        alpha                          2.000000
        third order                    shell-resolved
        anisotropic                    true
        a3                             3.000000
        a5                             4.000000
        cn-shift                       1.200000
        cn-exp                         4.000000
        max-rad                        5.000000


          ...................................................
          :                      SETUP                      :
          :.................................................:
          :  # basis functions                1062          :
          :  # atomic orbitals                1062          :
          :  # shells                          708          :
          :  # electrons                      1416          :
          :  max. iterations                   250          :
          :  Hamiltonian                  GFN2-xTB          :
          :  restarted?                      false          :
          :  GBSA solvation                  false          :
          :  PC potential                    false          :
          :  electronic temp.          300.0000000     K    :
          :  accuracy                    1.0000000          :
          :  -> integral cutoff          0.2500000E+02      :
          :  -> integral neglect         0.1000000E-07      :
          :  -> SCF convergence          0.1000000E-05 Eh   :
          :  -> wf. convergence          0.1000000E-03 e    :
          :  Broyden damping             0.4000000          :
          ...................................................

 iter      E             dE          RMSdq      gap      omega  full diag
   1   -906.5890120 -0.906589E+03  0.406E+00    8.61       0.0  T
   2   -906.6452594 -0.562475E-01  0.241E+00    7.79       1.0  T
   3   -906.6674692 -0.222098E-01  0.213E-01    6.36       1.0  T
   4   -906.6713929 -0.392371E-02  0.465E-02    6.75       1.0  T
   5   -906.6714582 -0.652728E-04  0.313E-02    6.69       1.0  T
   6   -906.6714879 -0.296838E-04  0.454E-03    6.73       1.0  T
   7   -906.6714898 -0.196673E-05  0.765E-04    6.72       5.7  T
   8   -906.6714899 -0.217606E-07  0.399E-04    6.72      10.9  T
   9   -906.6714899 -0.110654E-07  0.673E-05    6.72      64.5  T

   *** convergence criteria satisfied after 9 iterations ***

         #    Occupation            Energy/Eh            Energy/eV
      -------------------------------------------------------------
         1        2.0000           -0.6937176             -18.8770
       ...           ...                  ...                  ...
       702        2.0000           -0.3627057              -9.8697
       703        2.0000           -0.3613351              -9.8324
       704        2.0000           -0.3608279              -9.8186
       705        2.0000           -0.3528595              -9.6018
       706        2.0000           -0.3462337              -9.4215
       707        2.0000           -0.3339759              -9.0879
       708        2.0000           -0.3270295              -8.8989 (HOMO)
       709                         -0.0799375              -2.1752 (LUMO)
       710                         -0.0732326              -1.9928
       711                         -0.0549508              -1.4953
       712                         -0.0523905              -1.4256
       713                         -0.0432979              -1.1782
       ...                                ...                  ...
      1062                          0.4523976              12.3104
      -------------------------------------------------------------
                  HL-Gap            0.2470920 Eh            6.7237 eV
             Fermi-level           -0.2034835 Eh           -5.5371 eV
 
 localization/xTB-IFF output generation
 averaging CT terms over            2  occ. levels
 averaging CT terms over            2  virt. levels
 dipole moment from electron density (au)
     X       Y       Z   
   3.9416  -0.8927   0.9607  total (Debye):   10.559
cpu  time for init local    0.43 s
wall time for init local    0.21 s
 doing rotations ...
 initialization of trafo matrix to unity

 converged in     16 iterations, threshold :   0.99996937D-06
 doing transformations ...
 lmo centers(Z=2) and atoms on file <lmocent.coord>
 LMO Fii/eV  ncent    charge center   contributions...
    1 LP   *******   0.00 -10.23712   5.08986   8.40031  184O :  8.87  355O :  4.51  373O :  4.35  397O :  4.01  250O :  3.74   25O :  3.68    1O :  3.61  166O :  3.54   73O :  3.45  400O :  3.18   16O :  3.13  256O :  3.06
  463O :  3.02  103O :  2.99  169O :  2.74  202O :  2.73   10O :  2.70  337O :  2.56  172O :  2.45  178O :  2.41  160O :  2.28  310O :  2.16  523O :  2.13  427O :  2.08
  241O :  2.06  481O :  2.05   55O :  2.03  274O :  2.00  502O :  1.99  121O :  1.98  199O :  1.97   85O :  1.96   22O :  1.93  364O :  1.92  340O :  1.92   97O :  1.90
   34O :  1.90  442O :  1.89  439O :  1.85  520O :  1.81    4O :  1.81  142O :  1.80  526O :  1.79  238O :  1.76  205O :  1.75  346O :  1.72  280O :  1.71  445O :  1.68
  466O :  1.68  193O :  1.67  367O :  1.64  529O :  1.60  487O :  1.58   61O :  1.55  214O :  1.54  208O :  1.51  316O :  1.50  448O :  1.49  265O :  1.49   91O :  1.49
  484O :  1.49  217O :  1.45  508O :  1.45   76O :  1.42  505O :  1.38  136O :  1.37  190O :  1.33  490O :  1.32  457O :  1.30  109O :  1.29  235O :  1.24   19O :  1.22
  226O :  1.20   67O :  1.15  451O :  1.15   37O :  1.13   52O :  1.12  157O :  1.12  154O :  1.12  130O :  1.07  181O :  1.07  277O :  1.06    7O :  1.04  325O :  1.03
  139O :  1.01  100O :  0.99  349O :  0.99   28O :  0.98  493O :  0.97  127O :  0.97  175O :  0.97  304O :  0.97   58O :  0.93  118O :  0.92  478O :  0.92  511O :  0.91
  106O :  0.91  412O :  0.90  286O :  0.85   88O :  0.85  232O :  0.84  475O :  0.84  122H :  0.78  148O :  0.78  163O :  0.77  133O :  0.72  262O :  0.72  379O :  0.72
  361O :  0.71  328O :  0.71  403O :  0.70  433O :  0.69  424O :  0.68  472O :  0.68  415O :  0.68  283O :  0.64  301O :  0.63  409O :  0.63  358O :  0.61   49O :  0.60
  220O :  0.59  187O :  0.59  229O :  0.57  406O :  0.56  183H :  0.54  352O :  0.54   82O :  0.52   31O :  0.52   11H :  0.51   46O :  0.51  151O :  0.50  258H :  0.49
  391O :  0.49  348H :  0.48    3H :  0.48   40O :  0.48  388O :  0.47  382O :  0.47   70O :  0.47  421O :  0.47  115O :  0.45   94O :  0.45  394O :  0.44  247O :  0.43
  322O :  0.42  307O :  0.41  223O :  0.40  253O :  0.40  176H :  0.39  282H :  0.38  271O :  0.38  385O :  0.36   17H :  0.35  499O :  0.34  365H :  0.34  319O :  0.33
  331O :  0.33  460O :  0.33  124O :  0.33  105H :  0.31   35H :  0.31  167H :  0.30  441H :  0.30   43O :  0.29   77H :  0.28  295O :  0.26  292O :  0.26  469O :  0.26
  341H :  0.26  454O :  0.26  289O :  0.26  430O :  0.25   86H :  0.25  170H :  0.25  257H :  0.24   63H :  0.24  112O :  0.23    6H :  0.23  444H :  0.23  211O :  0.22
  298O :  0.21   13O :  0.21  418O :  0.21  436O :  0.21  278H :  0.21  402H :  0.20  370O :  0.20  483H :  0.20  527H :  0.20  312H :  0.20  313O :  0.19  268O :  0.19
  416H :  0.19  318H :  0.17  145O :  0.17  326H :  0.16   79O :  0.16  210H :  0.16  517O :  0.15  159H :  0.15  496O :  0.15  196O :  0.14  288H :  0.14  168H :  0.14
  138H :  0.14  237H :  0.13  464H :  0.13  189H :  0.13  219H :  0.13   32H :  0.13   95H :  0.13    5H :  0.12  299H :  0.12  161H :  0.12  474H :  0.12  414H :  0.12
  449H :  0.12  494H :  0.12  343O :  0.12  117H :  0.11  165H :  0.11  447H :  0.11   54H :  0.11  504H :  0.11  476H :  0.11   26H :  0.11  192H :  0.11  514O :  0.11
  491H :  0.11  426H :  0.11  470H :  0.10  131H :  0.10  458H :  0.10  259O :  0.10  368H :  0.10  407H :  0.10   87H :  0.10  404H :  0.10  249H :  0.10  376O :  0.09
  248H :  0.09  435H :  0.09  116H :  0.09  153H :  0.09  215H :  0.09  422H :  0.09   98H :  0.09  375H :  0.09  467H :  0.09  354H :  0.08  372H :  0.08  179H :  0.08
  101H :  0.08  275H :  0.08  156H :  0.08  512H :  0.08  221H :  0.08  411H :  0.08   23H :  0.08  492H :  0.07  230H :  0.07   78H :  0.07  434H :  0.07  513H :  0.07
  446H :  0.07
    2 LP   *******   0.00  -8.02956  -4.41163  12.02373  373O :  5.95  184O :  4.24  355O :  3.48  397O :  3.09  250O :  2.89   25O :  2.84    1O :  2.79  166O :  2.73   73O :  2.66  400O :  2.45   16O :  2.41  256O :  2.36
  463O :  2.33  103O :  2.31  169O :  2.11  202O :  2.11   10O :  2.08  337O :  1.98  172O :  1.89  178O :  1.86  160O :  1.75  310O :  1.67  523O :  1.64  427O :  1.61
  241O :  1.59   55O :  1.57  481O :  1.56  274O :  1.54  502O :  1.54  121O :  1.53  199O :  1.52   85O :  1.51   22O :  1.49  364O :  1.48  340O :  1.48   97O :  1.47
   34O :  1.46  442O :  1.46  439O :  1.43  520O :  1.40  142O :  1.40    4O :  1.39  526O :  1.38  238O :  1.36  205O :  1.35  346O :  1.33  280O :  1.32  445O :  1.30
  466O :  1.29  193O :  1.29  367O :  1.27  529O :  1.23  487O :  1.22   61O :  1.20  214O :  1.19  208O :  1.16  316O :  1.16  448O :  1.15  265O :  1.15   91O :  1.15
  484O :  1.15  217O :  1.12  508O :  1.12   76O :  1.09  505O :  1.07  136O :  1.05  190O :  1.03  490O :  1.02  457O :  1.00  109O :  0.99  235O :  0.96   19O :  0.94
  226O :  0.93   67O :  0.89  451O :  0.88   37O :  0.87   52O :  0.87  157O :  0.86  154O :  0.86  130O :  0.84  181O :  0.82  277O :  0.82    7O :  0.80  325O :  0.79
  175O :  0.79  139O :  0.78  100O :  0.76   28O :  0.76  349O :  0.76  493O :  0.75  127O :  0.75  304O :  0.75   58O :  0.72  118O :  0.71  478O :  0.71  511O :  0.71
  106O :  0.70  412O :  0.70  286O :  0.66   88O :  0.66  232O :  0.65  475O :  0.65  122H :  0.60  148O :  0.60  163O :  0.59  133O :  0.56  262O :  0.56  379O :  0.55
  361O :  0.55  328O :  0.55  403O :  0.54  433O :  0.53  424O :  0.53  472O :  0.53  415O :  0.52  409O :  0.49  301O :  0.49  283O :  0.48  358O :  0.47   49O :  0.46
  220O :  0.46  187O :  0.45  229O :  0.44  406O :  0.43  176H :  0.43  183H :  0.42  352O :  0.42   82O :  0.40   31O :  0.40   11H :  0.39   46O :  0.39  151O :  0.38
   40O :  0.38  258H :  0.38  391O :  0.38  348H :  0.37    3H :  0.37  388O :  0.37  382O :  0.37   70O :  0.36  421O :  0.36  115O :  0.35   94O :  0.35  394O :  0.34
  247O :  0.33  322O :  0.33  307O :  0.32  223O :  0.31  253O :  0.31  282H :  0.29  271O :  0.29  385O :  0.28   17H :  0.27  499O :  0.26  365H :  0.26  319O :  0.25
  331O :  0.25  460O :  0.25  124O :  0.25  105H :  0.24   35H :  0.24  167H :  0.23  441H :  0.23   43O :  0.23   77H :  0.21  295O :  0.20  292O :  0.20  469O :  0.20
  341H :  0.20  454O :  0.20  289O :  0.20  430O :  0.19   86H :  0.19  170H :  0.19  257H :  0.19   63H :  0.18  112O :  0.18    6H :  0.18  444H :  0.18  211O :  0.17
   13O :  0.17  298O :  0.16  418O :  0.16  436O :  0.16  278H :  0.16  402H :  0.16  370O :  0.15  527H :  0.15  312H :  0.15  268O :  0.15  313O :  0.15  416H :  0.15
  483H :  0.15  318H :  0.13  145O :  0.13  326H :  0.12   79O :  0.12  210H :  0.12  517O :  0.12  159H :  0.12  496O :  0.11  196O :  0.11  288H :  0.11  168H :  0.11
  138H :  0.10  237H :  0.10  161H :  0.10  464H :  0.10  189H :  0.10  219H :  0.10   32H :  0.10   95H :  0.10    5H :  0.10  299H :  0.09  414H :  0.09  449H :  0.09
  474H :  0.09  494H :  0.09  343O :  0.09  117H :  0.09  165H :  0.09  447H :  0.09  504H :  0.09   54H :  0.09  476H :  0.08   26H :  0.08  192H :  0.08  514O :  0.08
  491H :  0.08  426H :  0.08  470H :  0.08  458H :  0.08  131H :  0.08  259O :  0.08  407H :  0.08   87H :  0.08  404H :  0.07  368H :  0.07  249H :  0.07  376O :  0.07
  248H :  0.07  435H :  0.07  116H :  0.07  153H :  0.07
    3 LP   *******   0.00  -6.28378  -7.45964   3.85338   25O :  5.30  184O :  4.14  355O :  3.40  373O :  3.28  397O :  3.03  250O :  2.82    1O :  2.73  166O :  2.67   73O :  2.60  400O :  2.40   16O :  2.36  256O :  2.31
  463O :  2.28  103O :  2.26  169O :  2.07  202O :  2.06   10O :  2.04  337O :  1.93  172O :  1.85  178O :  1.82  160O :  1.71  310O :  1.63  523O :  1.61  427O :  1.57
  241O :  1.56   55O :  1.53  481O :  1.53  274O :  1.51  502O :  1.50  121O :  1.49  199O :  1.49   85O :  1.48   22O :  1.45  364O :  1.45   97O :  1.44   34O :  1.43
  442O :  1.43  340O :  1.42  439O :  1.40  520O :  1.37  142O :  1.36  526O :  1.35    4O :  1.35  238O :  1.33  205O :  1.32  346O :  1.30  280O :  1.29  445O :  1.27
  466O :  1.27  193O :  1.26  367O :  1.24  529O :  1.21  487O :  1.19   61O :  1.17  214O :  1.16  316O :  1.13  208O :  1.13  448O :  1.13  265O :  1.12   91O :  1.12
  484O :  1.12  217O :  1.10  508O :  1.09   76O :  1.07  505O :  1.04  136O :  1.03  190O :  1.00  490O :  1.00  457O :  0.98  109O :  0.97  235O :  0.94   19O :  0.93
  226O :  0.91   67O :  0.87  451O :  0.86   37O :  0.85   52O :  0.85  157O :  0.85  154O :  0.84  181O :  0.81  277O :  0.80  130O :  0.79    7O :  0.79  325O :  0.78
  139O :  0.75  100O :  0.75   28O :  0.74  349O :  0.74  493O :  0.73  127O :  0.73  175O :  0.73  304O :  0.73   58O :  0.70  118O :  0.70  511O :  0.69  478O :  0.69
  106O :  0.69  412O :  0.68  286O :  0.64   88O :  0.64  232O :  0.63  475O :  0.63  122H :  0.59  148O :  0.59  163O :  0.58  133O :  0.55  262O :  0.55  379O :  0.54
  361O :  0.53  328O :  0.53  403O :  0.53  433O :  0.52  424O :  0.52  472O :  0.52  415O :  0.51  283O :  0.48  409O :  0.48  301O :  0.48  358O :  0.46   49O :  0.45
  220O :  0.45  187O :  0.44  229O :  0.43  406O :  0.42  183H :  0.41  352O :  0.41   82O :  0.39   31O :  0.39   11H :  0.38   46O :  0.38  151O :  0.37   40O :  0.37
  258H :  0.37  391O :  0.37  348H :  0.36    3H :  0.36  388O :  0.36  382O :  0.36   70O :  0.36  421O :  0.35  115O :  0.34   94O :  0.34  394O :  0.34  247O :  0.32
  322O :  0.32  307O :  0.31  223O :  0.30  253O :  0.30  176H :  0.29  282H :  0.29  271O :  0.28  385O :  0.27   17H :  0.26  499O :  0.26  365H :  0.26  319O :  0.25
  331O :  0.25  124O :  0.25  460O :  0.25  105H :  0.23   35H :  0.23  167H :  0.23  441H :  0.22   43O :  0.22   77H :  0.21  295O :  0.20  292O :  0.20  469O :  0.20
  454O :  0.20  289O :  0.20  341H :  0.19  430O :  0.19   86H :  0.19  170H :  0.19  257H :  0.18   63H :  0.18  112O :  0.18    6H :  0.17  444H :  0.17  211O :  0.16
  298O :  0.16  418O :  0.16   13O :  0.16  436O :  0.16  278H :  0.16  402H :  0.15  370O :  0.15  312H :  0.15  313O :  0.15  527H :  0.15  268O :  0.15  416H :  0.15
  483H :  0.14  318H :  0.13  145O :  0.13  326H :  0.12   79O :  0.12  517O :  0.12  159H :  0.12  210H :  0.12  496O :  0.11  196O :  0.11  288H :  0.11  168H :  0.10
  138H :  0.10  237H :  0.10  161H :  0.10  464H :  0.10  189H :  0.10  219H :  0.10   32H :  0.10   95H :  0.10    5H :  0.09  299H :  0.09  414H :  0.09  449H :  0.09
  474H :  0.09  494H :  0.09  117H :  0.09  343O :  0.09  165H :  0.09  447H :  0.09   54H :  0.08  504H :  0.08  476H :  0.08  192H :  0.08  514O :  0.08  491H :  0.08
  131H :  0.08  426H :  0.08  470H :  0.08  458H :  0.08  259O :  0.07  407H :  0.07   87H :  0.07  404H :  0.07  368H :  0.07  249H :  0.07  248H :  0.07  376O :  0.07
  435H :  0.07
    4 LP   *******   0.00  16.50294   1.12011  -3.77621  166O :  5.54  184O :  3.96  355O :  3.26  373O :  3.14  397O :  2.90  250O :  2.70   25O :  2.66    1O :  2.61   73O :  2.49  400O :  2.29   16O :  2.26  256O :  2.21
  463O :  2.18  103O :  2.16  169O :  1.98  202O :  1.97   10O :  1.95  337O :  1.85  172O :  1.77  178O :  1.74  160O :  1.64  310O :  1.56  523O :  1.54  427O :  1.51
  241O :  1.49   55O :  1.47  481O :  1.46  274O :  1.45  502O :  1.44  121O :  1.43  199O :  1.42   85O :  1.41   22O :  1.39  364O :  1.39  340O :  1.39   97O :  1.37
   34O :  1.37  442O :  1.37  439O :  1.34  520O :  1.31    4O :  1.31  142O :  1.30  526O :  1.29  238O :  1.27  205O :  1.26  346O :  1.24  280O :  1.23  445O :  1.21
  466O :  1.21  367O :  1.19  193O :  1.17  529O :  1.15  487O :  1.14   61O :  1.12  214O :  1.11  208O :  1.09  316O :  1.08  448O :  1.08  265O :  1.08   91O :  1.07
  484O :  1.07  217O :  1.05  508O :  1.05   76O :  1.02  505O :  1.00  136O :  0.99  190O :  0.96  490O :  0.95  457O :  0.94  109O :  0.93  235O :  0.90   19O :  0.88
  226O :  0.87   67O :  0.83  451O :  0.83   37O :  0.81   52O :  0.81  157O :  0.81  154O :  0.81  130O :  0.77  181O :  0.77  277O :  0.76    7O :  0.75  325O :  0.74
  139O :  0.73  100O :  0.72  349O :  0.71   28O :  0.71  493O :  0.70  127O :  0.70  175O :  0.70  304O :  0.70   58O :  0.67  118O :  0.67  478O :  0.66  511O :  0.66
  106O :  0.66  412O :  0.65  286O :  0.62   88O :  0.61  232O :  0.61  475O :  0.61  122H :  0.56  148O :  0.56  163O :  0.56  133O :  0.52  379O :  0.52  361O :  0.51
  328O :  0.51  403O :  0.51  262O :  0.50  433O :  0.50  424O :  0.49  472O :  0.49  415O :  0.49  283O :  0.46  409O :  0.46  301O :  0.46  358O :  0.44   49O :  0.43
  220O :  0.43  187O :  0.42  229O :  0.41  406O :  0.40  183H :  0.39  352O :  0.39   82O :  0.37   31O :  0.37   11H :  0.37   46O :  0.37  151O :  0.36   40O :  0.36
  258H :  0.35  391O :  0.35  348H :  0.35    3H :  0.35  388O :  0.34  382O :  0.34   70O :  0.34  421O :  0.34  115O :  0.33   94O :  0.32  394O :  0.32  247O :  0.31
  322O :  0.31  307O :  0.30  223O :  0.29  253O :  0.29  176H :  0.28  282H :  0.28  271O :  0.27  385O :  0.26   17H :  0.25  499O :  0.25  365H :  0.24  319O :  0.24
  331O :  0.24  460O :  0.24  124O :  0.23  105H :  0.22   35H :  0.22  441H :  0.21   43O :  0.21   77H :  0.20  295O :  0.19  292O :  0.19  469O :  0.19  167H :  0.19
  341H :  0.19  454O :  0.19  289O :  0.19  430O :  0.18   86H :  0.18  170H :  0.18  257H :  0.18   63H :  0.17  112O :  0.17    6H :  0.17  444H :  0.16  211O :  0.16
  298O :  0.15  418O :  0.15   13O :  0.15  436O :  0.15  278H :  0.15  402H :  0.15  370O :  0.14  527H :  0.14  312H :  0.14  268O :  0.14  313O :  0.14  416H :  0.14
  483H :  0.14  145O :  0.13  318H :  0.13  326H :  0.11   79O :  0.11  210H :  0.11  517O :  0.11  159H :  0.11  496O :  0.11  196O :  0.10  288H :  0.10  138H :  0.10
  237H :  0.10  161H :  0.10  464H :  0.10  189H :  0.09  219H :  0.09   32H :  0.09   95H :  0.09    5H :  0.09  299H :  0.09  414H :  0.09  449H :  0.09  474H :  0.09
  494H :  0.08  343O :  0.08  165H :  0.08  447H :  0.08   54H :  0.08  504H :  0.08  514O :  0.08  476H :  0.08   26H :  0.08  192H :  0.08  168H :  0.08  491H :  0.08
  426H :  0.08  470H :  0.08  117H :  0.08  131H :  0.07  458H :  0.07  259O :  0.07  407H :  0.07   87H :  0.07  404H :  0.07
    5 LP   *******   0.00   1.65812  -9.23716  -2.85217   16O :  4.69  184O :  3.67  355O :  3.01  373O :  2.91  397O :  2.68  250O :  2.50   25O :  2.46    1O :  2.41  166O :  2.37   73O :  2.31  400O :  2.12  256O :  2.05
  463O :  2.02  103O :  2.00  169O :  1.83  202O :  1.83   10O :  1.81  337O :  1.71  172O :  1.64  178O :  1.61  160O :  1.51  310O :  1.45  523O :  1.42  427O :  1.39
  241O :  1.38   55O :  1.36  481O :  1.35  274O :  1.34  502O :  1.33  121O :  1.32  199O :  1.32   85O :  1.31   22O :  1.29  340O :  1.29  364O :  1.28   97O :  1.27
   34O :  1.27  442O :  1.27  439O :  1.24  520O :  1.21    4O :  1.21  142O :  1.20  526O :  1.20  238O :  1.18  205O :  1.17  346O :  1.15  280O :  1.14  445O :  1.12
  466O :  1.12  193O :  1.12  367O :  1.10  529O :  1.07  487O :  1.06   61O :  1.04  214O :  1.03  208O :  1.01  316O :  1.01  448O :  1.00  265O :  1.00   91O :  0.99
  484O :  0.99  217O :  0.97  508O :  0.97   76O :  0.95  505O :  0.93  136O :  0.91  190O :  0.89  490O :  0.88  457O :  0.87  109O :  0.86  235O :  0.83   19O :  0.82
  226O :  0.80   67O :  0.77  451O :  0.76   52O :  0.75   37O :  0.75  157O :  0.75  154O :  0.75  130O :  0.72  181O :  0.71  277O :  0.71    7O :  0.70  325O :  0.69
  139O :  0.67  100O :  0.66  349O :  0.66   28O :  0.66  493O :  0.65  127O :  0.65  175O :  0.65  304O :  0.65   58O :  0.62  118O :  0.62  478O :  0.61  511O :  0.61
  106O :  0.61  412O :  0.60  286O :  0.57   88O :  0.57  232O :  0.56  475O :  0.56  122H :  0.52  148O :  0.52  163O :  0.51  133O :  0.48  262O :  0.48  379O :  0.48
  361O :  0.47  328O :  0.47  403O :  0.47  433O :  0.46  424O :  0.46  472O :  0.46  415O :  0.45  283O :  0.43  409O :  0.43  301O :  0.42  358O :  0.41   49O :  0.40
  220O :  0.40  187O :  0.39  229O :  0.38  406O :  0.37  183H :  0.36  352O :  0.36   82O :  0.35   31O :  0.35   11H :  0.34   46O :  0.34  151O :  0.33   40O :  0.33
  258H :  0.33  391O :  0.33  348H :  0.32  388O :  0.32  382O :  0.32   70O :  0.32  421O :  0.31  115O :  0.30   94O :  0.30  394O :  0.30  247O :  0.29  322O :  0.28
  307O :  0.28  223O :  0.27  253O :  0.27  176H :  0.26  282H :  0.26  271O :  0.25    3H :  0.24  385O :  0.24  499O :  0.23  365H :  0.23  319O :  0.22  331O :  0.22
  460O :  0.22  124O :  0.22   17H :  0.21  105H :  0.21   35H :  0.21  167H :  0.20  441H :  0.20   43O :  0.20   77H :  0.19  289O :  0.18  295O :  0.18  292O :  0.18
  469O :  0.18  341H :  0.17  454O :  0.17  430O :  0.17   86H :  0.17  170H :  0.17  257H :  0.16   63H :  0.16  112O :  0.16    6H :  0.16  444H :  0.15  211O :  0.15
  298O :  0.14  418O :  0.14   13O :  0.14  436O :  0.14  402H :  0.14  278H :  0.14  370O :  0.13  312H :  0.13  527H :  0.13  313O :  0.13  268O :  0.13  416H :  0.13
  483H :  0.13  318H :  0.12  145O :  0.11  326H :  0.11   79O :  0.11  210H :  0.10  517O :  0.10  159H :  0.10  496O :  0.10  196O :  0.10  288H :  0.10  168H :  0.09
  138H :  0.09  237H :  0.09  219H :  0.09  161H :  0.09  464H :  0.09  189H :  0.09   32H :  0.09    5H :  0.09   95H :  0.09  299H :  0.08  414H :  0.08  449H :  0.08
  474H :  0.08  494H :  0.08  117H :  0.08  165H :  0.08  447H :  0.08  343O :  0.08   54H :  0.07  504H :  0.07  476H :  0.07   26H :  0.07  192H :  0.07  514O :  0.07
  491H :  0.07  426H :  0.07
    6 LP   *******   0.01  -6.29508 -12.25224   0.19612  355O :  4.62  184O :  3.22  373O :  2.55  397O :  2.35  250O :  2.20   25O :  2.16    1O :  2.12  166O :  2.08   73O :  2.03  400O :  1.87   16O :  1.84  256O :  1.80
  463O :  1.77  103O :  1.76  169O :  1.61  202O :  1.60   10O :  1.59  337O :  1.50  172O :  1.44  178O :  1.42  160O :  1.33  310O :  1.27  523O :  1.25  427O :  1.22
  241O :  1.21   55O :  1.19  481O :  1.19  274O :  1.17  502O :  1.17  121O :  1.16  199O :  1.16   85O :  1.15   22O :  1.13  364O :  1.13  340O :  1.13   97O :  1.12
   34O :  1.11  442O :  1.11  439O :  1.09    4O :  1.07  520O :  1.06  142O :  1.06  526O :  1.05  238O :  1.04  205O :  1.03  346O :  1.01  280O :  1.00  445O :  0.99
  466O :  0.98  193O :  0.98  367O :  0.96  529O :  0.94  487O :  0.93   61O :  0.91  214O :  0.90  208O :  0.89  316O :  0.88  448O :  0.88  265O :  0.88   91O :  0.87
  484O :  0.87  217O :  0.85  508O :  0.85   76O :  0.83  505O :  0.81  136O :  0.80  190O :  0.78  490O :  0.78  457O :  0.76  109O :  0.76  235O :  0.73  226O :  0.70
   19O :  0.70   67O :  0.68  451O :  0.67   37O :  0.66   52O :  0.66  157O :  0.66  154O :  0.66  130O :  0.63  181O :  0.63  277O :  0.62    7O :  0.61  325O :  0.60
  100O :  0.58  349O :  0.58   28O :  0.58  139O :  0.58  493O :  0.57  127O :  0.57  175O :  0.57  304O :  0.57   58O :  0.55  118O :  0.54  478O :  0.54  511O :  0.54
  106O :  0.54  412O :  0.53  286O :  0.50   88O :  0.50  232O :  0.49  475O :  0.49  122H :  0.46  148O :  0.46  163O :  0.45  133O :  0.43  262O :  0.42  379O :  0.42
  361O :  0.42  328O :  0.41  403O :  0.41  433O :  0.41  424O :  0.40  472O :  0.40  415O :  0.40  283O :  0.38  409O :  0.37  301O :  0.37  358O :  0.36   49O :  0.35
  220O :  0.35  187O :  0.34  229O :  0.33  406O :  0.33  183H :  0.32  352O :  0.32   82O :  0.30   31O :  0.30   11H :  0.30   46O :  0.30  151O :  0.29   40O :  0.29
  258H :  0.29  391O :  0.29  348H :  0.28    3H :  0.28  388O :  0.28  382O :  0.28   70O :  0.28  421O :  0.27  115O :  0.27   94O :  0.26  394O :  0.26  247O :  0.25
  322O :  0.25  307O :  0.24  223O :  0.24  253O :  0.23  176H :  0.23  282H :  0.22  271O :  0.22  385O :  0.21   17H :  0.20  499O :  0.20  365H :  0.20  319O :  0.19
  331O :  0.19  460O :  0.19  124O :  0.19  105H :  0.18   35H :  0.18  167H :  0.18  441H :  0.17   43O :  0.17  299H :  0.17   77H :  0.16  295O :  0.16  292O :  0.16
  469O :  0.15  341H :  0.15  454O :  0.15  289O :  0.15  430O :  0.15   86H :  0.15  170H :  0.15  257H :  0.14   63H :  0.14  112O :  0.14    6H :  0.14  444H :  0.13
  211O :  0.13  298O :  0.13  418O :  0.12   13O :  0.12  436O :  0.12  278H :  0.12  402H :  0.12  370O :  0.12  527H :  0.12  312H :  0.12  313O :  0.11  268O :  0.11
  416H :  0.11  483H :  0.11  318H :  0.10  145O :  0.10  326H :  0.09   79O :  0.09  210H :  0.09  517O :  0.09  159H :  0.09  496O :  0.09  196O :  0.08  288H :  0.08
  168H :  0.08  138H :  0.08  237H :  0.08  161H :  0.08  464H :  0.08  189H :  0.08  219H :  0.08   32H :  0.08   95H :  0.07    5H :  0.07  414H :  0.07  449H :  0.07
    7 LP   *******   0.01 -12.98641  -3.50164 -12.35094  397O :  4.32  184O :  2.99  355O :  2.46  373O :  2.37  250O :  2.04   25O :  2.01    1O :  1.97  166O :  1.93   73O :  1.88  400O :  1.73   16O :  1.70  256O :  1.67
  103O :  1.63  463O :  1.62  169O :  1.49  202O :  1.49   10O :  1.47  337O :  1.39  172O :  1.33  178O :  1.31  160O :  1.23  310O :  1.18  523O :  1.16  427O :  1.14
  241O :  1.12   55O :  1.11  481O :  1.10  274O :  1.09  502O :  1.09  121O :  1.08  199O :  1.07   85O :  1.07   22O :  1.05  340O :  1.05  364O :  1.05   97O :  1.04
   34O :  1.03  442O :  1.03  439O :  1.01  520O :  0.99    4O :  0.98  142O :  0.98  526O :  0.98  238O :  0.96  205O :  0.95  346O :  0.94  280O :  0.93  445O :  0.92
  466O :  0.91  193O :  0.91  367O :  0.89  529O :  0.87  487O :  0.86   61O :  0.84  214O :  0.84  208O :  0.82  316O :  0.82  448O :  0.81  265O :  0.81   91O :  0.81
  484O :  0.81  508O :  0.79  217O :  0.79   76O :  0.77  505O :  0.75  136O :  0.74  190O :  0.73  490O :  0.72  457O :  0.71  109O :  0.70  235O :  0.68   19O :  0.67
  226O :  0.65   67O :  0.63  451O :  0.62   37O :  0.61   52O :  0.61  157O :  0.61  154O :  0.61  130O :  0.58  181O :  0.58  277O :  0.58    7O :  0.57  325O :  0.56
  139O :  0.55  100O :  0.54  349O :  0.54   28O :  0.54  493O :  0.53  127O :  0.53  175O :  0.53  304O :  0.53   58O :  0.51  118O :  0.50  478O :  0.50  511O :  0.50
  106O :  0.50  412O :  0.49  286O :  0.47   88O :  0.46  475O :  0.46  232O :  0.46  148O :  0.42  122H :  0.42  163O :  0.42  133O :  0.39  262O :  0.39  379O :  0.39
  361O :  0.39  328O :  0.38  403O :  0.38  433O :  0.38  424O :  0.37  472O :  0.37  415O :  0.37  283O :  0.35  409O :  0.35  301O :  0.34  358O :  0.33  220O :  0.32
   49O :  0.32  187O :  0.32  229O :  0.31  406O :  0.31  183H :  0.30  352O :  0.29   82O :  0.28   31O :  0.28   11H :  0.28   46O :  0.28  151O :  0.27   40O :  0.27
  258H :  0.27  391O :  0.27  348H :  0.26    3H :  0.26  388O :  0.26  382O :  0.26   70O :  0.26  421O :  0.26  115O :  0.25   94O :  0.24  247O :  0.23  322O :  0.23
  394O :  0.23  307O :  0.23  223O :  0.22  253O :  0.22  176H :  0.21  282H :  0.21  271O :  0.21  385O :  0.20   17H :  0.19  499O :  0.19  365H :  0.18  319O :  0.18
  331O :  0.18  460O :  0.18  124O :  0.18  105H :  0.17   35H :  0.17  167H :  0.16  441H :  0.16   43O :  0.16  295O :  0.15   77H :  0.15  292O :  0.14  469O :  0.14
  341H :  0.14  289O :  0.14  454O :  0.14  430O :  0.14   86H :  0.14  170H :  0.14  257H :  0.13   63H :  0.13  112O :  0.13    6H :  0.13  444H :  0.12  211O :  0.12
  298O :  0.12  418O :  0.11   13O :  0.11  436O :  0.11  278H :  0.11  402H :  0.11  370O :  0.11  527H :  0.11  312H :  0.11  313O :  0.11  268O :  0.11  416H :  0.11
  483H :  0.10  318H :  0.09  145O :  0.09  326H :  0.09   79O :  0.09  210H :  0.08  517O :  0.08  159H :  0.08  496O :  0.08  196O :  0.08  288H :  0.08  168H :  0.07
  138H :  0.07  237H :  0.07  161H :  0.07  189H :  0.07  219H :  0.07   32H :  0.07
    8 LP   *******   0.01 -16.06145   8.79904   8.29371  169O :  3.67  184O :  2.92  355O :  2.41  373O :  2.32  397O :  2.14  250O :  2.00   25O :  1.97    1O :  1.93  166O :  1.89   73O :  1.85  400O :  1.70   16O :  1.67
  256O :  1.63  463O :  1.61  103O :  1.60  202O :  1.46   10O :  1.44  337O :  1.37  172O :  1.31  178O :  1.29  160O :  1.21  310O :  1.16  523O :  1.14  427O :  1.11
  241O :  1.10   55O :  1.09  481O :  1.08  274O :  1.07  121O :  1.06  199O :  1.05   85O :  1.05   22O :  1.03  502O :  1.03  364O :  1.03  340O :  1.03   97O :  1.02
   34O :  1.01  442O :  1.01  439O :  0.99  520O :  0.97    4O :  0.97  142O :  0.96  526O :  0.96  238O :  0.94  205O :  0.94  346O :  0.92  280O :  0.91  367O :  0.90
  445O :  0.90  466O :  0.90  193O :  0.90  529O :  0.85  487O :  0.84   61O :  0.83  214O :  0.82  208O :  0.81  316O :  0.80  448O :  0.80  265O :  0.80   91O :  0.80
  484O :  0.79  217O :  0.78  508O :  0.78   76O :  0.76  505O :  0.74  136O :  0.73  190O :  0.71  490O :  0.71  457O :  0.70  109O :  0.69  235O :  0.66   19O :  0.65
  226O :  0.64   67O :  0.62  451O :  0.61   37O :  0.60   52O :  0.60  157O :  0.60  154O :  0.60  130O :  0.57  181O :  0.57  277O :  0.57    7O :  0.56  325O :  0.55
  139O :  0.54  100O :  0.53  349O :  0.53   28O :  0.53  493O :  0.52  175O :  0.52  127O :  0.52  304O :  0.52   58O :  0.50  118O :  0.49  478O :  0.49  511O :  0.49
  106O :  0.49  412O :  0.48  286O :  0.46   88O :  0.45  232O :  0.45  475O :  0.45  122H :  0.42  148O :  0.42  163O :  0.41  133O :  0.39  262O :  0.39  379O :  0.38
  361O :  0.38  328O :  0.38  403O :  0.38  433O :  0.37  424O :  0.37  472O :  0.37  415O :  0.36  283O :  0.34  409O :  0.34  301O :  0.34  358O :  0.32   49O :  0.32
  220O :  0.32  187O :  0.31  229O :  0.30  406O :  0.30  183H :  0.29  352O :  0.29   82O :  0.28   31O :  0.28   11H :  0.27   46O :  0.27  151O :  0.27   40O :  0.27
  258H :  0.26  391O :  0.26  348H :  0.26    3H :  0.26  388O :  0.25  382O :  0.25   70O :  0.25  421O :  0.25  115O :  0.24   94O :  0.24  394O :  0.24  247O :  0.23
  322O :  0.23  307O :  0.22  223O :  0.22  253O :  0.21  176H :  0.21  282H :  0.20  271O :  0.20  385O :  0.19   17H :  0.19  499O :  0.18  365H :  0.18  319O :  0.18
  331O :  0.17  460O :  0.17  124O :  0.17  105H :  0.16   35H :  0.16  167H :  0.16  441H :  0.16   43O :  0.16   77H :  0.15  295O :  0.14  292O :  0.14  469O :  0.14
  341H :  0.14  454O :  0.14  289O :  0.14  430O :  0.13   86H :  0.13  257H :  0.13   63H :  0.13  112O :  0.13    6H :  0.12  444H :  0.12  211O :  0.12  298O :  0.11
  170H :  0.11  418O :  0.11   13O :  0.11  436O :  0.11  278H :  0.11  402H :  0.11  370O :  0.11  527H :  0.11  312H :  0.11  313O :  0.10  268O :  0.10  416H :  0.10
  483H :  0.10  318H :  0.09  145O :  0.09  326H :  0.08   79O :  0.08  210H :  0.08  517O :  0.08  159H :  0.08  496O :  0.08  196O :  0.08  288H :  0.08  168H :  0.07
  138H :  0.07  237H :  0.07  464H :  0.07  161H :  0.07
    9 LP   *******   0.01  -9.98550   0.69993  -1.81933   73O :  3.71  184O :  2.94  355O :  2.41  373O :  2.33  397O :  2.15  250O :  1.98   25O :  1.97    1O :  1.94  166O :  1.90  400O :  1.70   16O :  1.67  256O :  1.64
  463O :  1.62  103O :  1.60  169O :  1.47  202O :  1.46   10O :  1.45  337O :  1.37  172O :  1.31  178O :  1.29  160O :  1.21  310O :  1.16  523O :  1.14  427O :  1.11
  241O :  1.10   55O :  1.09  481O :  1.08  274O :  1.07  502O :  1.07  121O :  1.06  199O :  1.06   85O :  1.05   22O :  1.03  364O :  1.03  340O :  1.03   97O :  1.02
   34O :  1.02  442O :  1.01  439O :  0.99  520O :  0.97    4O :  0.97  526O :  0.96  142O :  0.96  238O :  0.94  205O :  0.94  346O :  0.92  280O :  0.91  445O :  0.90
  466O :  0.90  193O :  0.90  367O :  0.88  529O :  0.86  487O :  0.84   61O :  0.83  214O :  0.82  316O :  0.80  448O :  0.80  265O :  0.80   91O :  0.80  484O :  0.80
  208O :  0.78  217O :  0.78  508O :  0.78   76O :  0.76  505O :  0.74  136O :  0.73  190O :  0.71  490O :  0.71  457O :  0.70  109O :  0.69  235O :  0.67   19O :  0.66
  226O :  0.64  181O :  0.62   67O :  0.62  451O :  0.61  157O :  0.60   37O :  0.60   52O :  0.60  154O :  0.60  130O :  0.57  277O :  0.57    7O :  0.56  325O :  0.55
  139O :  0.54  100O :  0.53   28O :  0.53  349O :  0.53  493O :  0.52  127O :  0.52  175O :  0.52  304O :  0.52   58O :  0.50  118O :  0.50  478O :  0.49  511O :  0.49
  106O :  0.49  183H :  0.49  412O :  0.46  286O :  0.46   88O :  0.46  232O :  0.45  475O :  0.45  122H :  0.42  148O :  0.42  163O :  0.41  133O :  0.39  262O :  0.39
  379O :  0.38  361O :  0.38  328O :  0.38  403O :  0.38  433O :  0.37  424O :  0.37  472O :  0.37  415O :  0.36  283O :  0.34  409O :  0.34  301O :  0.34  358O :  0.32
   49O :  0.32  220O :  0.32  187O :  0.31  229O :  0.30  406O :  0.30  352O :  0.29   82O :  0.28   31O :  0.28   11H :  0.27   46O :  0.27   40O :  0.26  151O :  0.26
  258H :  0.26  391O :  0.26  348H :  0.26    3H :  0.26  388O :  0.25  382O :  0.25   70O :  0.25  421O :  0.25  115O :  0.24   94O :  0.24  394O :  0.24  247O :  0.23
  322O :  0.23  307O :  0.22  223O :  0.22  253O :  0.21  176H :  0.21  282H :  0.20  271O :  0.20  385O :  0.19   17H :  0.19  499O :  0.18  365H :  0.18  319O :  0.18
  460O :  0.17  331O :  0.17  124O :  0.17  105H :  0.17   35H :  0.16  167H :  0.16  441H :  0.16   43O :  0.16   77H :  0.15  295O :  0.14  292O :  0.14  469O :  0.14
  341H :  0.14  454O :  0.14  289O :  0.14  430O :  0.14  170H :  0.13   86H :  0.13  257H :  0.13  112O :  0.13   63H :  0.13    6H :  0.12  444H :  0.12  211O :  0.12
  298O :  0.11  418O :  0.11   13O :  0.11  436O :  0.11  278H :  0.11  402H :  0.11  370O :  0.11  527H :  0.11  312H :  0.10  268O :  0.10  416H :  0.10  313O :  0.10
  483H :  0.10  318H :  0.09  145O :  0.09  210H :  0.09  326H :  0.09   79O :  0.08  517O :  0.08  496O :  0.08  196O :  0.08  288H :  0.08  159H :  0.08  168H :  0.07
  138H :  0.07  161H :  0.07  237H :  0.07  464H :  0.07
   10 LP   *******   0.01  -5.87579  -3.78706  -6.62110  400O :  3.78  184O :  2.90  355O :  2.38  373O :  2.29  397O :  2.12  250O :  1.97   25O :  1.94    1O :  1.91  166O :  1.87   73O :  1.82   16O :  1.65  463O :  1.64
  256O :  1.61  103O :  1.58  169O :  1.44  202O :  1.44   10O :  1.42  337O :  1.35  172O :  1.29  178O :  1.27  160O :  1.19  310O :  1.14  523O :  1.12  427O :  1.10
  241O :  1.09   55O :  1.07  481O :  1.07  274O :  1.06  502O :  1.05  121O :  1.04  199O :  1.04   85O :  1.03   22O :  1.02  340O :  1.01  364O :  1.01   97O :  1.00
   34O :  1.00  442O :  1.00  439O :  0.98  520O :  0.96    4O :  0.95  142O :  0.95  526O :  0.94  238O :  0.93  205O :  0.92  346O :  0.91  280O :  0.90  445O :  0.89
  466O :  0.89  193O :  0.88  367O :  0.87  529O :  0.84  487O :  0.83   61O :  0.82  214O :  0.81  208O :  0.79  316O :  0.79  448O :  0.79  265O :  0.79   91O :  0.78
  484O :  0.78  217O :  0.77  508O :  0.77   76O :  0.75  505O :  0.73  136O :  0.72  190O :  0.70  490O :  0.70  457O :  0.69  109O :  0.68  235O :  0.66   19O :  0.65
  226O :  0.63   67O :  0.61  451O :  0.60   37O :  0.59   52O :  0.59  157O :  0.59  154O :  0.59  181O :  0.57  130O :  0.56  277O :  0.56    7O :  0.55  325O :  0.54
  139O :  0.53  100O :  0.52  349O :  0.52   28O :  0.52  493O :  0.51  127O :  0.51  175O :  0.51  304O :  0.51   58O :  0.49  118O :  0.49  478O :  0.48  511O :  0.48
  106O :  0.48  412O :  0.48  286O :  0.45   88O :  0.45  232O :  0.44  475O :  0.44  122H :  0.41  148O :  0.41  163O :  0.41  133O :  0.38  262O :  0.38  379O :  0.38
  361O :  0.37  328O :  0.37  403O :  0.37  433O :  0.36  424O :  0.36  472O :  0.36  415O :  0.36  283O :  0.34  409O :  0.34  301O :  0.33  358O :  0.32   49O :  0.32
  220O :  0.31  187O :  0.31  229O :  0.30  406O :  0.30  183H :  0.29  352O :  0.28   82O :  0.28   31O :  0.27   11H :  0.27   46O :  0.27  151O :  0.26   40O :  0.26
  258H :  0.26  391O :  0.26  421O :  0.25  348H :  0.25    3H :  0.25  388O :  0.25  382O :  0.25   70O :  0.25  115O :  0.24   94O :  0.24  394O :  0.23  247O :  0.23
  322O :  0.22  307O :  0.22  223O :  0.21  253O :  0.21  176H :  0.20  282H :  0.20  271O :  0.20  385O :  0.19   17H :  0.18  499O :  0.18  365H :  0.18  319O :  0.17
  331O :  0.17  460O :  0.17  124O :  0.17  105H :  0.16   35H :  0.16  167H :  0.16  441H :  0.16   43O :  0.16   77H :  0.15  295O :  0.14  292O :  0.14  469O :  0.14
  341H :  0.14  454O :  0.14  289O :  0.14  430O :  0.13   86H :  0.13  170H :  0.13  257H :  0.13  112O :  0.13   63H :  0.12    6H :  0.12  444H :  0.12  211O :  0.11
  298O :  0.11  418O :  0.11   13O :  0.11  436O :  0.11  278H :  0.11  312H :  0.11  370O :  0.11  527H :  0.10  313O :  0.10  268O :  0.10  416H :  0.10  483H :  0.10
  402H :  0.09  318H :  0.09  145O :  0.09  326H :  0.08   79O :  0.08  210H :  0.08   51H :  0.08  517O :  0.08  159H :  0.08  496O :  0.08  196O :  0.08  288H :  0.08
  168H :  0.07  138H :  0.07  343O :  0.07  464H :  0.07  237H :  0.07
   11 LP   *******   0.01  -4.70468 -14.26836   1.77809  355O :  4.24  184O :  2.91  373O :  2.30  397O :  2.12  250O :  1.98   25O :  1.95    1O :  1.91  166O :  1.88   73O :  1.83  400O :  1.68   16O :  1.65  256O :  1.62
  463O :  1.60  103O :  1.58  169O :  1.45  202O :  1.45   10O :  1.43  337O :  1.36  172O :  1.30  178O :  1.28  160O :  1.20  310O :  1.15  523O :  1.13  427O :  1.10
  241O :  1.09   55O :  1.08  481O :  1.07  274O :  1.06  502O :  1.05  121O :  1.05  199O :  1.04   85O :  1.04   22O :  1.02  340O :  1.02  364O :  1.02   97O :  1.01
   34O :  1.00  442O :  1.00  439O :  0.98  520O :  0.96  142O :  0.95    4O :  0.95  526O :  0.95  238O :  0.93  205O :  0.93  346O :  0.91  280O :  0.90  445O :  0.89
  466O :  0.89  193O :  0.89  367O :  0.87  529O :  0.85  487O :  0.84   61O :  0.82  214O :  0.81  208O :  0.80  316O :  0.80  448O :  0.79  265O :  0.79   91O :  0.79
  484O :  0.79  217O :  0.77  508O :  0.77   76O :  0.75  505O :  0.73  136O :  0.72  190O :  0.70  490O :  0.70  457O :  0.69  109O :  0.68   19O :  0.67  235O :  0.66
  226O :  0.64   67O :  0.61  451O :  0.60   37O :  0.60   52O :  0.59  157O :  0.59  154O :  0.59  130O :  0.57  181O :  0.57  277O :  0.56    7O :  0.55  325O :  0.54
  349O :  0.52   28O :  0.52  493O :  0.51  127O :  0.51  175O :  0.51  139O :  0.51  100O :  0.51  304O :  0.51   58O :  0.49  118O :  0.49  478O :  0.49  511O :  0.48
  106O :  0.48  412O :  0.48  286O :  0.45   88O :  0.45  232O :  0.45  475O :  0.44  122H :  0.41  148O :  0.41  163O :  0.41  133O :  0.38  262O :  0.38  379O :  0.38
  361O :  0.38  328O :  0.37  403O :  0.37  433O :  0.37  424O :  0.36  472O :  0.36  415O :  0.36  283O :  0.34  409O :  0.34  301O :  0.34  358O :  0.32   49O :  0.32
  220O :  0.31  187O :  0.31  229O :  0.30  406O :  0.30  183H :  0.29  352O :  0.29   82O :  0.27   31O :  0.27   11H :  0.27   46O :  0.27  151O :  0.26   40O :  0.26
  258H :  0.26  391O :  0.26  348H :  0.26    3H :  0.25  388O :  0.25  382O :  0.25   70O :  0.25  421O :  0.25  115O :  0.24   94O :  0.24  394O :  0.24  247O :  0.23
  322O :  0.22  307O :  0.22  223O :  0.21  253O :  0.21  176H :  0.21  282H :  0.20  271O :  0.20  385O :  0.19   17H :  0.18  499O :  0.18  365H :  0.18  319O :  0.17
  331O :  0.17  460O :  0.17  124O :  0.17  105H :  0.16   35H :  0.16  167H :  0.16  441H :  0.16   43O :  0.16   77H :  0.15  295O :  0.14  292O :  0.14  469O :  0.14
  341H :  0.14  454O :  0.14  289O :  0.14  430O :  0.13   86H :  0.13  170H :  0.13  257H :  0.13   63H :  0.12  112O :  0.12    6H :  0.12  444H :  0.12  298O :  0.12
  211O :  0.11  418O :  0.11   13O :  0.11  436O :  0.11  278H :  0.11  402H :  0.11  370O :  0.11  527H :  0.10  312H :  0.10  313O :  0.10  268O :  0.10  416H :  0.10
  483H :  0.10  318H :  0.09  145O :  0.09  326H :  0.08   79O :  0.08  210H :  0.08  517O :  0.08  159H :  0.08  496O :  0.08  196O :  0.08  288H :  0.08  168H :  0.07
  138H :  0.07  237H :  0.07  161H :  0.07
   12 LP   *******   0.01   4.05463   9.69361   1.22887  178O :  3.33  184O :  2.84  355O :  2.34  373O :  2.25  397O :  2.08  250O :  1.94   25O :  1.91    1O :  1.87  166O :  1.84   73O :  1.79  400O :  1.65   16O :  1.62
  256O :  1.58  463O :  1.56  103O :  1.55  169O :  1.42   10O :  1.40  202O :  1.38  337O :  1.33  172O :  1.27  160O :  1.17  310O :  1.12  523O :  1.10  427O :  1.08
  241O :  1.07   55O :  1.05  481O :  1.05  274O :  1.04  502O :  1.03  121O :  1.03  199O :  1.02   85O :  1.01   22O :  1.00  364O :  1.00  340O :  1.00   97O :  0.99
   34O :  0.98  442O :  0.98  439O :  0.96  520O :  0.94    4O :  0.94  142O :  0.93  526O :  0.93  238O :  0.91  205O :  0.91  346O :  0.89  280O :  0.88  445O :  0.87
  466O :  0.87  193O :  0.87  367O :  0.85  529O :  0.83  487O :  0.82   61O :  0.80  214O :  0.80  484O :  0.79  208O :  0.78  316O :  0.78  448O :  0.78  265O :  0.77
   91O :  0.77  217O :  0.75  508O :  0.75   76O :  0.73  505O :  0.72  136O :  0.71  190O :  0.69  490O :  0.68  457O :  0.67  109O :  0.67  235O :  0.64   19O :  0.63
  226O :  0.62   67O :  0.60  451O :  0.59   37O :  0.59   52O :  0.58  157O :  0.58  154O :  0.58  130O :  0.55  181O :  0.55  277O :  0.55  325O :  0.53    7O :  0.53
  139O :  0.52  100O :  0.51   28O :  0.51  349O :  0.51  493O :  0.50  127O :  0.50  175O :  0.50  304O :  0.50   58O :  0.48  118O :  0.48  511O :  0.47  106O :  0.47
  412O :  0.47  478O :  0.46  286O :  0.44   88O :  0.44  232O :  0.44  475O :  0.43  122H :  0.40  148O :  0.40  163O :  0.40  133O :  0.38  262O :  0.37  379O :  0.37
  361O :  0.37  328O :  0.37  403O :  0.37  433O :  0.36  472O :  0.35  415O :  0.35  424O :  0.35  283O :  0.33  409O :  0.33  301O :  0.33  358O :  0.31   49O :  0.31
  220O :  0.31  187O :  0.30  229O :  0.29  406O :  0.29  183H :  0.28  352O :  0.28   82O :  0.27   31O :  0.27   11H :  0.26   46O :  0.26  151O :  0.26   40O :  0.26
  258H :  0.25  391O :  0.25  348H :  0.25    3H :  0.25  388O :  0.25  382O :  0.25   70O :  0.24  421O :  0.24  115O :  0.24   94O :  0.23  394O :  0.23  247O :  0.22
  322O :  0.22  307O :  0.21  223O :  0.21  253O :  0.21  176H :  0.20  282H :  0.20  271O :  0.20  385O :  0.19   17H :  0.18  499O :  0.18  365H :  0.18  319O :  0.17
  331O :  0.17  460O :  0.17  124O :  0.17  105H :  0.16   35H :  0.16  167H :  0.15  441H :  0.15   43O :  0.15   77H :  0.14  295O :  0.14  292O :  0.14  469O :  0.14
  341H :  0.14  454O :  0.13  289O :  0.13  430O :  0.13   86H :  0.13  170H :  0.13  257H :  0.13   63H :  0.12  112O :  0.12    6H :  0.12  444H :  0.12  211O :  0.11
  298O :  0.11  418O :  0.11   13O :  0.11  436O :  0.11  278H :  0.11  402H :  0.11  370O :  0.10  527H :  0.10  312H :  0.10  313O :  0.10  268O :  0.10  416H :  0.10
  483H :  0.10  318H :  0.09  145O :  0.09  326H :  0.08   79O :  0.08  210H :  0.08  517O :  0.08  159H :  0.08  496O :  0.08  288H :  0.07  168H :  0.07  138H :  0.07
   13 LP   *******   0.01  50.91094 -37.91867  -2.17784  184O :  2.82  121O :  2.61  355O :  2.32  373O :  2.23  397O :  2.06  250O :  1.92   25O :  1.89    1O :  1.86  166O :  1.82   73O :  1.77  400O :  1.63   16O :  1.61
  256O :  1.57  463O :  1.55  103O :  1.55  169O :  1.41  202O :  1.40   10O :  1.39  337O :  1.32  122H :  1.31  172O :  1.26  178O :  1.24  160O :  1.16  310O :  1.11
  523O :  1.09  427O :  1.07  241O :  1.06   55O :  1.04  481O :  1.04  502O :  1.02  274O :  1.02  199O :  1.01   85O :  1.01   22O :  0.99  364O :  0.99  340O :  0.99
   97O :  0.98   34O :  0.98  442O :  0.97  439O :  0.95  520O :  0.93    4O :  0.93  142O :  0.92  526O :  0.92  238O :  0.91  205O :  0.90  346O :  0.88  280O :  0.88
  466O :  0.86  193O :  0.86  445O :  0.85  367O :  0.84  529O :  0.82  487O :  0.81   61O :  0.80  214O :  0.79  208O :  0.77  316O :  0.77  448O :  0.77  265O :  0.77
   91O :  0.76  484O :  0.76  217O :  0.75  508O :  0.75   76O :  0.73  505O :  0.71  136O :  0.70  190O :  0.68  490O :  0.68  457O :  0.67  109O :  0.66  235O :  0.64
   19O :  0.63  226O :  0.62   67O :  0.59  451O :  0.59   37O :  0.58   52O :  0.58  157O :  0.58  154O :  0.57  130O :  0.55  181O :  0.55  277O :  0.55    7O :  0.54
  325O :  0.53  139O :  0.52  100O :  0.51  349O :  0.51   28O :  0.51  493O :  0.50  175O :  0.50  127O :  0.50  304O :  0.50  118O :  0.47  478O :  0.47  511O :  0.47
  106O :  0.47   58O :  0.47  412O :  0.46  286O :  0.44   88O :  0.44  232O :  0.43  475O :  0.43  148O :  0.40  163O :  0.40  133O :  0.37  262O :  0.37  379O :  0.37
  361O :  0.36  328O :  0.36  403O :  0.36  433O :  0.35  424O :  0.35  472O :  0.35  415O :  0.35  283O :  0.33  409O :  0.33  301O :  0.33  358O :  0.31   49O :  0.31
  220O :  0.31  187O :  0.30  229O :  0.29  406O :  0.29  183H :  0.28  352O :  0.28   82O :  0.27   31O :  0.27   11H :  0.26   46O :  0.26  151O :  0.26   40O :  0.25
  258H :  0.25  391O :  0.25  348H :  0.25    3H :  0.25  388O :  0.24  382O :  0.24   70O :  0.24  421O :  0.24  115O :  0.23   94O :  0.23  394O :  0.23  247O :  0.22
  322O :  0.22  307O :  0.21  223O :  0.21  253O :  0.20  176H :  0.20  282H :  0.20  271O :  0.19  385O :  0.19   17H :  0.18  499O :  0.18  365H :  0.17  319O :  0.17
  331O :  0.17  460O :  0.17  124O :  0.17  105H :  0.16   35H :  0.16  167H :  0.15  441H :  0.15   43O :  0.15   77H :  0.14  295O :  0.14  292O :  0.14  469O :  0.14
  341H :  0.13  454O :  0.13  289O :  0.13  430O :  0.13   86H :  0.13  170H :  0.13  257H :  0.13  418O :  0.13   63H :  0.12  112O :  0.12    6H :  0.12  444H :  0.12
  211O :  0.11  278H :  0.11  298O :  0.11   13O :  0.11  436O :  0.11  402H :  0.10  370O :  0.10  416H :  0.10  527H :  0.10  312H :  0.10  313O :  0.10  268O :  0.10
  483H :  0.10  318H :  0.09  145O :  0.09  326H :  0.08   79O :  0.08  210H :  0.08  517O :  0.08  159H :  0.08  496O :  0.08  196O :  0.07  288H :  0.07  168H :  0.07
   14 LP   *******   0.01   0.55512  11.44793   2.32870  202O :  3.37  184O :  2.81  355O :  2.31  373O :  2.23  397O :  2.06  250O :  1.92   25O :  1.89    1O :  1.85  166O :  1.82   73O :  1.77  400O :  1.63   16O :  1.60
  256O :  1.57  463O :  1.55  103O :  1.53  169O :  1.40   10O :  1.38  337O :  1.31  172O :  1.26  178O :  1.22  160O :  1.16  310O :  1.11  523O :  1.09  427O :  1.07
  241O :  1.05   55O :  1.04  481O :  1.04  274O :  1.03  502O :  1.02  121O :  1.01  199O :  1.01   85O :  1.00   22O :  0.99  364O :  0.99  340O :  0.98   97O :  0.97
   34O :  0.97  442O :  0.97  439O :  0.95  520O :  0.93    4O :  0.93  142O :  0.92  526O :  0.92  238O :  0.90  205O :  0.90  346O :  0.88  280O :  0.87  445O :  0.86
  466O :  0.86  193O :  0.86  367O :  0.84  529O :  0.82  487O :  0.81   61O :  0.79  214O :  0.79  208O :  0.77  316O :  0.77  265O :  0.76  484O :  0.76   91O :  0.76
  217O :  0.75  508O :  0.74  448O :  0.74   76O :  0.73  505O :  0.71  136O :  0.70  190O :  0.68  490O :  0.68  457O :  0.67  109O :  0.66  235O :  0.64   19O :  0.63
  226O :  0.61   67O :  0.59  451O :  0.59   37O :  0.58   52O :  0.58  157O :  0.57  154O :  0.57  130O :  0.55  181O :  0.55  277O :  0.54    7O :  0.54  325O :  0.53
  139O :  0.52  100O :  0.51  349O :  0.51   28O :  0.50  493O :  0.50  127O :  0.50  175O :  0.50  304O :  0.50   58O :  0.48  118O :  0.47  478O :  0.47  511O :  0.47
  106O :  0.47  412O :  0.46  286O :  0.44   88O :  0.44  232O :  0.43  475O :  0.43  122H :  0.40  148O :  0.40  163O :  0.39  133O :  0.37  262O :  0.37  379O :  0.37
  361O :  0.36  328O :  0.36  403O :  0.36  433O :  0.35  424O :  0.35  472O :  0.35  415O :  0.35  283O :  0.33  409O :  0.33  301O :  0.32  358O :  0.31   49O :  0.31
  220O :  0.30  187O :  0.30  229O :  0.29  406O :  0.29  183H :  0.28  352O :  0.28   82O :  0.27   31O :  0.26   11H :  0.26  151O :  0.25   40O :  0.25   46O :  0.25
  391O :  0.25  258H :  0.25  348H :  0.25    3H :  0.25  382O :  0.24  388O :  0.24   70O :  0.24  421O :  0.24  115O :  0.23   94O :  0.23  394O :  0.23  247O :  0.22
  322O :  0.22  307O :  0.21  223O :  0.21  253O :  0.20  176H :  0.20  282H :  0.20  271O :  0.19  385O :  0.19   17H :  0.18  499O :  0.18  365H :  0.17  319O :  0.17
  331O :  0.17  460O :  0.17  124O :  0.17  105H :  0.16   35H :  0.16  167H :  0.15  441H :  0.15   43O :  0.15   77H :  0.14  295O :  0.14  292O :  0.14  341H :  0.13
  469O :  0.13  289O :  0.13  454O :  0.13  430O :  0.13   86H :  0.13  170H :  0.13  257H :  0.13   63H :  0.12  112O :  0.12    6H :  0.12  444H :  0.12  211O :  0.11
  298O :  0.11  418O :  0.11   13O :  0.11  436O :  0.11  278H :  0.11  402H :  0.10  370O :  0.10  527H :  0.10  312H :  0.10  313O :  0.10  268O :  0.10  416H :  0.10
  483H :  0.10  318H :  0.09  145O :  0.09  326H :  0.08   79O :  0.08  210H :  0.08  517O :  0.08  159H :  0.08  496O :  0.07  138H :  0.07  288H :  0.07  196O :  0.07
   15 LP   *******   0.01   0.50341  -7.72440  -2.80917    1O :  3.31  184O :  2.79  355O :  2.30  373O :  2.21  397O :  2.04  250O :  1.91   25O :  1.88  166O :  1.80   73O :  1.76  400O :  1.62  256O :  1.56  463O :  1.54
   16O :  1.53  103O :  1.52  169O :  1.40  202O :  1.39   10O :  1.38  337O :  1.30  172O :  1.25  178O :  1.23  160O :  1.15  310O :  1.09  523O :  1.08  427O :  1.06
  241O :  1.05   55O :  1.04  481O :  1.03  274O :  1.02  502O :  1.01  121O :  1.01  199O :  1.00   85O :  1.00   22O :  0.98  364O :  0.98  340O :  0.98   97O :  0.97
   34O :  0.97  442O :  0.97    3H :  0.96  439O :  0.94  520O :  0.92  142O :  0.92    4O :  0.91  526O :  0.91  238O :  0.90  205O :  0.89  346O :  0.88  280O :  0.87
  445O :  0.86  193O :  0.85  466O :  0.85  367O :  0.84  529O :  0.81  487O :  0.80   61O :  0.79  214O :  0.78  208O :  0.77  316O :  0.77  448O :  0.76  265O :  0.76
   91O :  0.76  484O :  0.76  217O :  0.74  508O :  0.74   76O :  0.72  505O :  0.70  136O :  0.70  190O :  0.68  490O :  0.67  457O :  0.66  109O :  0.66  235O :  0.63
   19O :  0.62  226O :  0.61   52O :  0.59   67O :  0.59  451O :  0.58   37O :  0.57  157O :  0.57  154O :  0.57  130O :  0.55  181O :  0.54  277O :  0.54    7O :  0.53
  325O :  0.52  139O :  0.51  100O :  0.51  349O :  0.50   28O :  0.50  493O :  0.50  127O :  0.49  175O :  0.49  304O :  0.49   58O :  0.48  118O :  0.47  478O :  0.47
  511O :  0.47  106O :  0.47  412O :  0.46  286O :  0.43   88O :  0.43  232O :  0.43  475O :  0.43  122H :  0.40  148O :  0.40  163O :  0.39  133O :  0.37  262O :  0.37
  379O :  0.37  361O :  0.36  328O :  0.36  403O :  0.36  433O :  0.35  424O :  0.35  472O :  0.35  415O :  0.35  283O :  0.33  409O :  0.32  301O :  0.32  358O :  0.31
   49O :  0.30  220O :  0.30  187O :  0.30  229O :  0.29  406O :  0.29  183H :  0.28  352O :  0.27   31O :  0.26   82O :  0.26   11H :  0.26   46O :  0.26  151O :  0.25
   40O :  0.25  258H :  0.25  391O :  0.25  348H :  0.25  388O :  0.24  382O :  0.24   70O :  0.24  421O :  0.24  115O :  0.23   94O :  0.23  394O :  0.23  247O :  0.22
  322O :  0.22  307O :  0.21  223O :  0.21  253O :  0.20  176H :  0.20  282H :  0.19  271O :  0.19  385O :  0.19   17H :  0.18  499O :  0.17  365H :  0.17  319O :  0.17
  331O :  0.17  460O :  0.17  124O :  0.17  105H :  0.16   35H :  0.16  167H :  0.15  441H :  0.15   43O :  0.15   77H :  0.14  289O :  0.14  295O :  0.13  292O :  0.13
  469O :  0.13  341H :  0.13  454O :  0.13  430O :  0.13   86H :  0.13  170H :  0.13  257H :  0.12   63H :  0.12  112O :  0.12  444H :  0.12    6H :  0.11  211O :  0.11
  298O :  0.11  418O :  0.11   13O :  0.11  436O :  0.11  402H :  0.11  278H :  0.11  370O :  0.10  312H :  0.10  313O :  0.10  268O :  0.10  416H :  0.10  483H :  0.10
  527H :  0.10  318H :  0.09  145O :  0.09  326H :  0.08   79O :  0.08  210H :  0.08  517O :  0.08  159H :  0.08  496O :  0.07  196O :  0.07  288H :  0.07
   16 LP   *******   0.01 -16.43854  -1.22597  -3.49808  250O :  3.84  184O :  2.71  355O :  2.23  373O :  2.15  397O :  1.98   25O :  1.82    1O :  1.78  166O :  1.75   73O :  1.70  400O :  1.57   16O :  1.54  256O :  1.51
  463O :  1.49  103O :  1.48  169O :  1.35  202O :  1.35   10O :  1.33  337O :  1.26  172O :  1.21  178O :  1.19  160O :  1.12  310O :  1.07  523O :  1.05  427O :  1.03
  241O :  1.02   55O :  1.00  481O :  1.00  274O :  0.99  502O :  0.98  121O :  0.98  199O :  0.97   85O :  0.97   22O :  0.95  364O :  0.95  340O :  0.95   97O :  0.94
   34O :  0.94  442O :  0.94  439O :  0.91  520O :  0.89    4O :  0.89  142O :  0.89  526O :  0.88  238O :  0.87  205O :  0.86  346O :  0.85  280O :  0.84  445O :  0.83
  466O :  0.83  193O :  0.83  367O :  0.81  529O :  0.79  487O :  0.78  214O :  0.78   61O :  0.76  208O :  0.74  316O :  0.74  448O :  0.74  265O :  0.74   91O :  0.73
  484O :  0.73  217O :  0.72  508O :  0.70   76O :  0.70  505O :  0.68  136O :  0.67  190O :  0.66  490O :  0.65  457O :  0.64  109O :  0.64  235O :  0.61   19O :  0.60
  226O :  0.59   67O :  0.57  451O :  0.56  157O :  0.56   37O :  0.56   52O :  0.55  154O :  0.55  130O :  0.53  181O :  0.53  277O :  0.52    7O :  0.51  325O :  0.51
  139O :  0.50  100O :  0.49  349O :  0.49   28O :  0.49  493O :  0.48  127O :  0.48  175O :  0.48  304O :  0.48   58O :  0.46  118O :  0.46  478O :  0.45  511O :  0.45
  106O :  0.45  412O :  0.45  286O :  0.42   88O :  0.42  232O :  0.42  475O :  0.41  122H :  0.38  148O :  0.38  163O :  0.38  133O :  0.36  262O :  0.36  379O :  0.35
  361O :  0.35  403O :  0.35  433O :  0.34  328O :  0.34  424O :  0.34  472O :  0.34  415O :  0.33  283O :  0.32  409O :  0.31  301O :  0.31  358O :  0.30   49O :  0.29
  220O :  0.29  187O :  0.29  229O :  0.28  406O :  0.28  183H :  0.27  352O :  0.27   82O :  0.26   31O :  0.26   11H :  0.25   46O :  0.25  151O :  0.24   40O :  0.24
  258H :  0.24  391O :  0.24  348H :  0.24    3H :  0.24  388O :  0.23  382O :  0.23   70O :  0.23  421O :  0.23  115O :  0.22   94O :  0.22  394O :  0.22  247O :  0.21
  322O :  0.21  307O :  0.20  223O :  0.20  253O :  0.20  176H :  0.19  282H :  0.19  271O :  0.19  385O :  0.18   17H :  0.17  499O :  0.17  365H :  0.17  319O :  0.16
  331O :  0.16  460O :  0.16  124O :  0.16  105H :  0.15   35H :  0.15  167H :  0.15  441H :  0.15   43O :  0.14   77H :  0.14  295O :  0.13  292O :  0.13  469O :  0.13
  341H :  0.13  454O :  0.13  289O :  0.13   86H :  0.13  430O :  0.12  170H :  0.12  159H :  0.12  257H :  0.12   63H :  0.12  112O :  0.12    6H :  0.11  444H :  0.11
  211O :  0.11  298O :  0.11  418O :  0.10   13O :  0.10  436O :  0.10  278H :  0.10  402H :  0.10  370O :  0.10  527H :  0.10  312H :  0.10  268O :  0.10  313O :  0.10
  416H :  0.10  483H :  0.09  318H :  0.09  145O :  0.08  326H :  0.08   79O :  0.08  210H :  0.08  517O :  0.08  496O :  0.07  288H :  0.07  196O :  0.07
   17 LP   *******   0.01  -7.70212  -6.85929  -8.87428  463O :  3.44  184O :  2.60  355O :  2.13  373O :  2.06  397O :  1.89  250O :  1.77   25O :  1.74    1O :  1.71  166O :  1.68   73O :  1.63  400O :  1.51   16O :  1.48
  256O :  1.45  103O :  1.41  169O :  1.30  202O :  1.29   10O :  1.28  337O :  1.21  172O :  1.16  178O :  1.14  160O :  1.07  310O :  1.02  523O :  1.01  427O :  0.99
  241O :  0.97   55O :  0.96  481O :  0.96  274O :  0.95  502O :  0.94  121O :  0.94  199O :  0.93   85O :  0.93   22O :  0.91  340O :  0.91   97O :  0.90  364O :  0.90
   34O :  0.90  442O :  0.90  439O :  0.88  520O :  0.86    4O :  0.86  142O :  0.85  526O :  0.85  238O :  0.83  205O :  0.83  346O :  0.81  280O :  0.81  445O :  0.80
  466O :  0.79  193O :  0.79  367O :  0.78  529O :  0.76  487O :  0.75   61O :  0.73  214O :  0.73  208O :  0.71  316O :  0.71  448O :  0.71  265O :  0.71   91O :  0.70
  484O :  0.70  217O :  0.69  508O :  0.68   76O :  0.67  505O :  0.65  136O :  0.65  190O :  0.63  490O :  0.63  457O :  0.62  109O :  0.61  235O :  0.59   19O :  0.58
  226O :  0.57   67O :  0.54  451O :  0.54   37O :  0.53   52O :  0.53  157O :  0.53  154O :  0.53  130O :  0.51  181O :  0.51  277O :  0.50    7O :  0.49  325O :  0.49
  139O :  0.48  100O :  0.47  349O :  0.47   28O :  0.47  493O :  0.46  127O :  0.46  175O :  0.46  304O :  0.46   58O :  0.44  118O :  0.44  478O :  0.43  511O :  0.43
  106O :  0.43  412O :  0.43  286O :  0.40   88O :  0.40  232O :  0.40  475O :  0.40  122H :  0.37  148O :  0.37  163O :  0.36  133O :  0.34  262O :  0.34  379O :  0.34
  361O :  0.34  328O :  0.33  403O :  0.33  433O :  0.33  424O :  0.32  472O :  0.32  415O :  0.32  283O :  0.30  409O :  0.30  301O :  0.30  358O :  0.29   49O :  0.28
  220O :  0.28  187O :  0.28  229O :  0.27  406O :  0.27  183H :  0.26  352O :  0.26   82O :  0.25   31O :  0.24   11H :  0.24   46O :  0.24  151O :  0.23   40O :  0.23
  258H :  0.23  391O :  0.23  348H :  0.23    3H :  0.23  421O :  0.23  388O :  0.22  382O :  0.22   70O :  0.22  115O :  0.22   94O :  0.21  394O :  0.21  247O :  0.20
  322O :  0.20  307O :  0.20  223O :  0.19  253O :  0.19  176H :  0.18  282H :  0.18  271O :  0.18  385O :  0.17   17H :  0.16  499O :  0.16  319O :  0.16  331O :  0.16
  365H :  0.15  460O :  0.15  124O :  0.15  105H :  0.15   35H :  0.15  167H :  0.14  441H :  0.14   43O :  0.14   77H :  0.13  295O :  0.13  292O :  0.13  469O :  0.12
  341H :  0.12  289O :  0.12  454O :  0.12  430O :  0.12   86H :  0.12  170H :  0.12  257H :  0.12  112O :  0.11   63H :  0.11    6H :  0.11  444H :  0.11  211O :  0.10
  298O :  0.10  418O :  0.10   13O :  0.10  402H :  0.10  436O :  0.10  278H :  0.10  370O :  0.09  527H :  0.09  312H :  0.09  313O :  0.09  268O :  0.09  416H :  0.09
  483H :  0.09  318H :  0.08  145O :  0.08  326H :  0.08   79O :  0.07  210H :  0.07  517O :  0.07  159H :  0.07
   18 LP   *******   0.01  -1.27784  25.97472 -23.64273  184O :  2.58  346O :  2.43  355O :  2.12  373O :  2.04  397O :  1.88  250O :  1.76   25O :  1.73    1O :  1.70  166O :  1.66   73O :  1.62  400O :  1.49   16O :  1.47
  463O :  1.42  103O :  1.40  256O :  1.38  169O :  1.29  202O :  1.28   10O :  1.27  337O :  1.20  172O :  1.15  178O :  1.13  160O :  1.06  310O :  1.02  523O :  1.00
  348H :  1.00  427O :  0.98  241O :  0.97   55O :  0.95  481O :  0.95  274O :  0.94  502O :  0.93  121O :  0.93  199O :  0.93   85O :  0.92   22O :  0.90  364O :  0.90
  340O :  0.90   97O :  0.89   34O :  0.89  442O :  0.89  439O :  0.87  520O :  0.85    4O :  0.85  142O :  0.84  526O :  0.84  238O :  0.83  205O :  0.82  280O :  0.80
  445O :  0.79  466O :  0.79  193O :  0.79  367O :  0.77  529O :  0.75  487O :  0.74   61O :  0.73  214O :  0.72  208O :  0.71  316O :  0.70  448O :  0.70  265O :  0.70
   91O :  0.70  484O :  0.70  217O :  0.68  508O :  0.68   76O :  0.67  505O :  0.65  136O :  0.64  190O :  0.62  490O :  0.62  457O :  0.61  109O :  0.60  235O :  0.58
   19O :  0.57  226O :  0.56   67O :  0.54  451O :  0.54   37O :  0.53   52O :  0.53  157O :  0.53  154O :  0.52  130O :  0.50  181O :  0.50  277O :  0.50    7O :  0.49
  325O :  0.48  139O :  0.47  100O :  0.46  349O :  0.46   28O :  0.46  127O :  0.45  175O :  0.45  493O :  0.45  304O :  0.45   58O :  0.44  118O :  0.43  478O :  0.43
  511O :  0.43  106O :  0.43  412O :  0.42  286O :  0.40   88O :  0.40  232O :  0.39  475O :  0.39  122H :  0.37  148O :  0.37  163O :  0.36  133O :  0.34  262O :  0.34
  379O :  0.34  361O :  0.33  328O :  0.33  403O :  0.33  472O :  0.33  433O :  0.32  424O :  0.32  415O :  0.32  283O :  0.30  409O :  0.30  301O :  0.30  358O :  0.28
  187O :  0.28   49O :  0.28  220O :  0.28  229O :  0.27  406O :  0.26  183H :  0.25  352O :  0.25   82O :  0.24   31O :  0.24   11H :  0.24   46O :  0.24  258H :  0.24
  151O :  0.23   40O :  0.23  391O :  0.23    3H :  0.23  388O :  0.22  382O :  0.22   70O :  0.22  421O :  0.22  115O :  0.21   94O :  0.21  394O :  0.21  247O :  0.20
  322O :  0.20  307O :  0.19  223O :  0.19  253O :  0.19  176H :  0.18  282H :  0.18  271O :  0.18  385O :  0.17   17H :  0.16  499O :  0.16  365H :  0.16  319O :  0.15
  331O :  0.15  460O :  0.15  124O :  0.15  105H :  0.14   35H :  0.14  167H :  0.14  441H :  0.14   43O :  0.14   77H :  0.13  295O :  0.12  469O :  0.12  292O :  0.12
  341H :  0.12  454O :  0.12  289O :  0.12  257H :  0.12  430O :  0.12   86H :  0.12  170H :  0.12   63H :  0.11  112O :  0.11    6H :  0.11  444H :  0.11  211O :  0.10
  298O :  0.10  418O :  0.10   13O :  0.10  436O :  0.10  278H :  0.10  402H :  0.10  370O :  0.09  527H :  0.09  312H :  0.09  313O :  0.09  268O :  0.09  416H :  0.09
  483H :  0.09  318H :  0.08  145O :  0.08  326H :  0.07   79O :  0.07  210H :  0.07  189H :  0.07  517O :  0.07  159H :  0.07
   19 LP   *******   0.01  -0.92322  -6.85094   0.86974    1O :  3.22  184O :  2.60  355O :  2.14  373O :  2.06  397O :  1.90  250O :  1.77   25O :  1.75  166O :  1.68   73O :  1.64  400O :  1.51   16O :  1.48  256O :  1.45
  463O :  1.43  103O :  1.42  169O :  1.30  202O :  1.30   10O :  1.28  337O :  1.21  172O :  1.16  178O :  1.14  160O :  1.07  310O :  1.05  523O :  1.01  427O :  0.99
  241O :  0.98   55O :  0.96  481O :  0.96  274O :  0.95  502O :  0.95  121O :  0.94  199O :  0.94   85O :  0.93   22O :  0.91  364O :  0.91  340O :  0.91   97O :  0.90
   34O :  0.90  442O :  0.90  439O :  0.88    4O :  0.86  520O :  0.86  142O :  0.85  526O :  0.85  238O :  0.84  205O :  0.83  346O :  0.82  280O :  0.81  445O :  0.80
  466O :  0.80  193O :  0.79  367O :  0.78  529O :  0.76  487O :  0.75   61O :  0.73  214O :  0.73  208O :  0.71  316O :  0.71  448O :  0.71  265O :  0.71   91O :  0.71
  484O :  0.70  217O :  0.69  508O :  0.69   76O :  0.67  505O :  0.66  136O :  0.65  190O :  0.63  490O :  0.63  457O :  0.62  109O :  0.61  235O :  0.59   19O :  0.58
  226O :  0.57   67O :  0.55   52O :  0.54  451O :  0.54   37O :  0.54  157O :  0.53  154O :  0.53  130O :  0.51  181O :  0.51  277O :  0.50    7O :  0.49  325O :  0.49
  139O :  0.48  100O :  0.47  349O :  0.47   28O :  0.47  493O :  0.46  127O :  0.46  175O :  0.46  304O :  0.46   58O :  0.44  118O :  0.44  478O :  0.44  511O :  0.43
  106O :  0.43  412O :  0.43  286O :  0.41   88O :  0.40  232O :  0.40  475O :  0.40  122H :  0.37  148O :  0.37  163O :  0.37  133O :  0.34  262O :  0.34  379O :  0.34
  361O :  0.34  328O :  0.34  403O :  0.33  433O :  0.33  424O :  0.32  472O :  0.32  415O :  0.32  283O :  0.30  409O :  0.30  301O :  0.30  358O :  0.29   49O :  0.28
  220O :  0.28  187O :  0.28  229O :  0.27  406O :  0.27  183H :  0.26  352O :  0.26   31O :  0.25   82O :  0.25   11H :  0.24   46O :  0.24  151O :  0.24   40O :  0.23
  258H :  0.23  391O :  0.23  348H :  0.23  388O :  0.22  382O :  0.22   70O :  0.22  421O :  0.22  115O :  0.22   94O :  0.21  394O :  0.21  247O :  0.20  322O :  0.20
  307O :  0.20  223O :  0.19  253O :  0.19  176H :  0.18  282H :  0.18  271O :  0.18  385O :  0.17    3H :  0.17   17H :  0.16  499O :  0.16  365H :  0.16  319O :  0.16
  331O :  0.16  460O :  0.15  124O :  0.15  105H :  0.15   35H :  0.15  167H :  0.14  441H :  0.14   43O :  0.14    5H :  0.14   77H :  0.13  295O :  0.13  292O :  0.13
  469O :  0.13  289O :  0.12  341H :  0.12  454O :  0.12  430O :  0.12   86H :  0.12  170H :  0.12  257H :  0.12   63H :  0.11  112O :  0.11    6H :  0.11  444H :  0.11
  211O :  0.10  298O :  0.10  418O :  0.10   13O :  0.10  436O :  0.10  278H :  0.10  402H :  0.10  370O :  0.10  313O :  0.09  268O :  0.09  416H :  0.09  312H :  0.09
  483H :  0.09  527H :  0.09  318H :  0.08  145O :  0.08  326H :  0.08   79O :  0.07  210H :  0.07  517O :  0.07  159H :  0.07
   20 LP   *******   0.01 -13.78829  -1.36439  -1.97360  250O :  3.76  184O :  2.53  355O :  2.08  373O :  2.01  397O :  1.85   25O :  1.70    1O :  1.67  166O :  1.63   73O :  1.59  400O :  1.47   16O :  1.44  256O :  1.41
  463O :  1.39  103O :  1.38  169O :  1.26  202O :  1.26   10O :  1.25  337O :  1.18  172O :  1.13  178O :  1.11  160O :  1.04  310O :  1.00  523O :  0.98  427O :  0.96
  241O :  0.95   55O :  0.94  481O :  0.93  274O :  0.92  502O :  0.92  121O :  0.91  199O :  0.91   85O :  0.90   22O :  0.89  364O :  0.89  340O :  0.89   97O :  0.88
   34O :  0.88  442O :  0.87  439O :  0.85  520O :  0.84    4O :  0.83  142O :  0.83  526O :  0.83  238O :  0.81  205O :  0.81  346O :  0.79  280O :  0.79  445O :  0.78
  466O :  0.77  193O :  0.77  367O :  0.76  529O :  0.74  487O :  0.73  214O :  0.72   61O :  0.71  508O :  0.70  208O :  0.70  316O :  0.69  448O :  0.69  265O :  0.69
   91O :  0.69  484O :  0.69  217O :  0.67   76O :  0.65  505O :  0.64  136O :  0.63  190O :  0.61  490O :  0.61  457O :  0.60  109O :  0.59  235O :  0.57   19O :  0.57
  226O :  0.55   67O :  0.53  451O :  0.53   37O :  0.52   52O :  0.52  154O :  0.51  157O :  0.51  181O :  0.49  130O :  0.49  277O :  0.49    7O :  0.48  325O :  0.47
  139O :  0.47  100O :  0.46  349O :  0.45   28O :  0.45  493O :  0.45  127O :  0.45  175O :  0.45  304O :  0.45   58O :  0.43  118O :  0.43  478O :  0.42  511O :  0.42
  106O :  0.42  412O :  0.42  286O :  0.39   88O :  0.39  232O :  0.39  475O :  0.39  122H :  0.36  148O :  0.36  163O :  0.36  133O :  0.33  262O :  0.33  379O :  0.33
  361O :  0.33  403O :  0.33  328O :  0.32  433O :  0.32  424O :  0.32  472O :  0.32  415O :  0.31  283O :  0.30  409O :  0.29  301O :  0.29  358O :  0.28   49O :  0.28
  220O :  0.27  187O :  0.27  229O :  0.26  406O :  0.26  183H :  0.25  352O :  0.25   82O :  0.24   31O :  0.24   11H :  0.24   46O :  0.23  151O :  0.23   40O :  0.23
  258H :  0.23  391O :  0.22  348H :  0.22    3H :  0.22  388O :  0.22  382O :  0.22   70O :  0.22  421O :  0.22  115O :  0.21   94O :  0.21  394O :  0.21  247O :  0.20
  322O :  0.20  307O :  0.19  223O :  0.19  253O :  0.18  176H :  0.18  282H :  0.18  271O :  0.18  385O :  0.17   17H :  0.16  499O :  0.16  365H :  0.16  319O :  0.15
  331O :  0.15  460O :  0.15  124O :  0.15  105H :  0.14   35H :  0.14  167H :  0.14  441H :  0.14   43O :  0.14   77H :  0.13  295O :  0.12  292O :  0.12  469O :  0.12
  341H :  0.12  454O :  0.12  289O :  0.12  430O :  0.12  170H :  0.12   86H :  0.11  257H :  0.11   63H :  0.11  112O :  0.11    6H :  0.11  444H :  0.10  211O :  0.10
  298O :  0.10  418O :  0.10   13O :  0.10  436O :  0.10  278H :  0.10  402H :  0.09  370O :  0.09  527H :  0.09  312H :  0.09  268O :  0.09  416H :  0.09  313O :  0.09
  483H :  0.09  318H :  0.08  145O :  0.08  326H :  0.07   79O :  0.07  210H :  0.07  517O :  0.07
   21 LP   *******   0.01   4.08062  -7.24975   1.49655  199O :  2.56  184O :  2.52  355O :  2.07  373O :  2.00  397O :  1.84  250O :  1.72   25O :  1.69    1O :  1.66  166O :  1.63   73O :  1.59  400O :  1.46   16O :  1.44
  256O :  1.41  463O :  1.39  103O :  1.37  169O :  1.26  202O :  1.26   10O :  1.24  337O :  1.18  172O :  1.13  178O :  1.11  160O :  1.04  310O :  0.99  523O :  0.98
  427O :  0.96  241O :  0.95   55O :  0.93  481O :  0.93  274O :  0.92  502O :  0.92  121O :  0.91   85O :  0.90   22O :  0.89  364O :  0.88  340O :  0.88   97O :  0.87
   34O :  0.87  442O :  0.87  439O :  0.85  520O :  0.83    4O :  0.83  142O :  0.83  526O :  0.82  238O :  0.81  205O :  0.80  346O :  0.79  280O :  0.78  445O :  0.77
  466O :  0.77  193O :  0.77  367O :  0.75  529O :  0.73  487O :  0.73   61O :  0.71  214O :  0.71  208O :  0.69  316O :  0.69  448O :  0.69   91O :  0.69  265O :  0.68
  484O :  0.68  217O :  0.68  508O :  0.67   76O :  0.65  505O :  0.63  136O :  0.63  190O :  0.61  490O :  0.61  457O :  0.60  109O :  0.59  235O :  0.57   19O :  0.56
  226O :  0.55   67O :  0.53  451O :  0.53   37O :  0.52   52O :  0.52  157O :  0.52  154O :  0.51  130O :  0.49  181O :  0.49  277O :  0.49    7O :  0.48  325O :  0.47
  139O :  0.46  100O :  0.46  349O :  0.45   28O :  0.45  493O :  0.45  127O :  0.45  175O :  0.45  304O :  0.44   58O :  0.43  118O :  0.42  478O :  0.42  511O :  0.42
  106O :  0.42  412O :  0.42  286O :  0.39   88O :  0.39  232O :  0.39  475O :  0.39  122H :  0.36  148O :  0.36  163O :  0.35  133O :  0.33  262O :  0.33  379O :  0.33
  361O :  0.33  328O :  0.32  403O :  0.32  433O :  0.32  424O :  0.31  472O :  0.31  415O :  0.31  283O :  0.29  409O :  0.29  301O :  0.29  358O :  0.28   49O :  0.27
  220O :  0.27  187O :  0.27  229O :  0.26  406O :  0.26  183H :  0.25  352O :  0.25   82O :  0.24   31O :  0.24   11H :  0.23   46O :  0.23  151O :  0.23   40O :  0.23
  258H :  0.23  391O :  0.22  348H :  0.22  388O :  0.22  382O :  0.22    3H :  0.22   70O :  0.22  421O :  0.21  115O :  0.21   94O :  0.21  394O :  0.20  247O :  0.20
  322O :  0.19  307O :  0.19  223O :  0.19  253O :  0.18  176H :  0.18  282H :  0.18  271O :  0.17  385O :  0.17   17H :  0.16  499O :  0.16  365H :  0.16  319O :  0.15
  331O :  0.15  460O :  0.15  124O :  0.15  105H :  0.14   35H :  0.14  167H :  0.14  441H :  0.14   43O :  0.13   77H :  0.13  249H :  0.12  295O :  0.12  292O :  0.12
  469O :  0.12  341H :  0.12  454O :  0.12  289O :  0.12  430O :  0.12   86H :  0.12  170H :  0.11  257H :  0.11   63H :  0.11  112O :  0.11    6H :  0.11  444H :  0.10
  211O :  0.10  278H :  0.10  298O :  0.10   13O :  0.10  436O :  0.10  418O :  0.10  402H :  0.09  370O :  0.09  527H :  0.09  312H :  0.09  313O :  0.09  268O :  0.09
  416H :  0.09  483H :  0.09  318H :  0.08  145O :  0.08  326H :  0.07   79O :  0.07  210H :  0.07  159H :  0.07
   22 LP   *******   0.01  12.49361  -8.24993   8.99424   22O :  2.68  184O :  2.42  355O :  1.99  373O :  1.92  397O :  1.77  250O :  1.65   25O :  1.62    1O :  1.59  166O :  1.56   73O :  1.52  400O :  1.40   16O :  1.38
  256O :  1.35  463O :  1.33  103O :  1.32  169O :  1.21  202O :  1.20   10O :  1.19  337O :  1.13  172O :  1.08  178O :  1.06  160O :  1.00  310O :  0.95  523O :  0.94
  427O :  0.92  241O :  0.91  274O :  0.91   55O :  0.90  481O :  0.89  502O :  0.88  121O :  0.87  199O :  0.87   85O :  0.86  364O :  0.85  340O :  0.85   97O :  0.84
   34O :  0.84  442O :  0.84  439O :  0.82  520O :  0.80    4O :  0.80  142O :  0.79  526O :  0.79  238O :  0.78  205O :  0.77  346O :  0.76  280O :  0.75  466O :  0.74
  445O :  0.74  193O :  0.74  367O :  0.72  529O :  0.70  487O :  0.70   61O :  0.68  214O :  0.68  208O :  0.66  316O :  0.66  448O :  0.66  265O :  0.66   91O :  0.66
  484O :  0.66  217O :  0.64  508O :  0.64   76O :  0.63  505O :  0.61  136O :  0.60  190O :  0.59  490O :  0.58  457O :  0.57  109O :  0.57  235O :  0.55   19O :  0.54
  226O :  0.53   67O :  0.51  451O :  0.50   37O :  0.50   52O :  0.50  157O :  0.49  154O :  0.49  130O :  0.47  181O :  0.47  277O :  0.47    7O :  0.46  325O :  0.45
  139O :  0.44  100O :  0.44  349O :  0.43   28O :  0.43  493O :  0.43  175O :  0.43  127O :  0.43  304O :  0.43   58O :  0.41  118O :  0.41  478O :  0.40  511O :  0.40
  106O :  0.40  412O :  0.40  286O :  0.38   88O :  0.38  232O :  0.37  475O :  0.37  122H :  0.35  148O :  0.34  163O :  0.32  133O :  0.32  262O :  0.32  379O :  0.32
  361O :  0.31  328O :  0.31  403O :  0.31  433O :  0.30  424O :  0.30  472O :  0.30  415O :  0.29  283O :  0.28  409O :  0.28  301O :  0.28  358O :  0.27   49O :  0.26
  220O :  0.26  187O :  0.26  229O :  0.25  406O :  0.25  183H :  0.24  352O :  0.24   82O :  0.23   31O :  0.23   11H :  0.22   46O :  0.22  151O :  0.22   40O :  0.22
  258H :  0.22  391O :  0.21  348H :  0.21    3H :  0.21  388O :  0.21  382O :  0.21   70O :  0.21  421O :  0.21  115O :  0.20   94O :  0.20  394O :  0.20  247O :  0.19
[...]
   145   8 o    1.852 --   146 h    0.853   147 h    0.782
   146   1 h    0.885 --   145 o    0.853
   147   1 h    0.885 --   145 o    0.782
   148   8 o    1.840 --   149 h    0.874   150 h    0.789
   149   1 h    0.907 --   148 o    0.874
   150   1 h    0.878 --   148 o    0.789
   151   8 o    1.867 --   153 h    0.821   152 h    0.815
   152   1 h    0.889 --   151 o    0.815
   153   1 h    0.880 --   151 o    0.821
   154   8 o    1.840 --   156 h    0.875   155 h    0.850
   155   1 h    0.889 --   154 o    0.850
   156   1 h    0.899 --   154 o    0.875
   157   8 o    1.859 --   159 h    0.832   158 h    0.830
   158   1 h    0.889 --   157 o    0.830
   159   1 h    0.882 --   157 o    0.832
   160   8 o    1.863 --   162 h    0.831   161 h    0.820
   161   1 h    0.877 --   160 o    0.820
   162   1 h    0.880 --   160 o    0.831
   163   8 o    1.840 --   164 h    0.888   165 h    0.849
   164   1 h    0.905 --   163 o    0.888
   165   1 h    0.892 --   163 o    0.849
   166   8 o    1.863 --   168 h    0.816   167 h    0.809
   167   1 h    0.886 --   166 o    0.809
   168   1 h    0.885 --   166 o    0.816
   169   8 o    1.873 --   171 h    0.861   170 h    0.844
   170   1 h    0.894 --   169 o    0.844
   171   1 h    0.898 --   169 o    0.861
   172   8 o    1.849 --   173 h    0.876   174 h    0.827
   173   1 h    0.904 --   172 o    0.876
   174   1 h    0.883 --   172 o    0.827
   175   8 o    1.839 --   176 h    0.856   177 h    0.819
   176   1 h    0.897 --   175 o    0.856
   177   1 h    0.885 --   175 o    0.819
   178   8 o    1.875 --   179 h    0.823   180 h    0.795
   179   1 h    0.892 --   178 o    0.823
   180   1 h    0.874 --   178 o    0.795
   181   8 o    1.879 --   182 h    0.816   183 h    0.789
   182   1 h    0.880 --   181 o    0.816
   183   1 h    0.876 --   181 o    0.789
   184   8 o    1.861 --   185 h    0.890   186 h    0.796
   185   1 h    0.907 --   184 o    0.890
   186   1 h    0.884 --   184 o    0.796
   187   8 o    1.856 --   189 h    0.889   188 h    0.766
   188   1 h    0.876 --   187 o    0.766   493 o    0.105
   189   1 h    0.906 --   187 o    0.889
   190   8 o    1.859 --   192 h    0.820   191 h    0.814
   191   1 h    0.881 --   190 o    0.814
   192   1 h    0.887 --   190 o    0.820
   193   8 o    1.879 --   194 h    0.825   195 h    0.811
   194   1 h    0.886 --   193 o    0.825
   195   1 h    0.881 --   193 o    0.811
   196   8 o    1.852 --   197 h    0.863   198 h    0.814
   197   1 h    0.899 --   196 o    0.863
   198   1 h    0.882 --   196 o    0.814
   199   8 o    1.853 --   201 h    0.836   200 h    0.819
   200   1 h    0.872 --   199 o    0.819
   201   1 h    0.898 --   199 o    0.836
   202   8 o    1.859 --   203 h    0.837   204 h    0.796
   203   1 h    0.889 --   202 o    0.837
   204   1 h    0.876 --   202 o    0.796
   205   8 o    1.801 --   206 h    0.876   207 h    0.856
   206   1 h    0.906 --   205 o    0.876
   207   1 h    0.892 --   205 o    0.856
   208   8 o    1.876 --   209 h    0.827   210 h    0.817
   209   1 h    0.880 --   208 o    0.827
   210   1 h    0.879 --   208 o    0.817
   211   8 o    1.868 --   212 h    0.843   213 h    0.830
   212   1 h    0.893 --   211 o    0.843
   213   1 h    0.885 --   211 o    0.830
   214   8 o    1.840 --   216 h    0.858   215 h    0.812
   215   1 h    0.880 --   214 o    0.812
   216   1 h    0.894 --   214 o    0.858
   217   8 o    1.871 --   218 h    0.848   219 h    0.796
   218   1 h    0.887 --   217 o    0.848
   219   1 h    0.877 --   217 o    0.796
   220   8 o    1.859 --   221 h    0.889   222 h    0.806
   221   1 h    0.904 --   220 o    0.889
   222   1 h    0.880 --   220 o    0.806
   223   8 o    1.860 --   225 h    0.874   224 h    0.822
   224   1 h    0.875 --   223 o    0.822
   225   1 h    0.898 --   223 o    0.874
   226   8 o    1.869 --   227 h    0.795   228 h    0.788
   227   1 h    0.884 --   226 o    0.795
   228   1 h    0.884 --   226 o    0.788
   229   8 o    1.868 --   230 h    0.843   231 h    0.813
   230   1 h    0.893 --   229 o    0.843
   231   1 h    0.884 --   229 o    0.813
   232   8 o    1.858 --   234 h    0.900   233 h    0.821
   233   1 h    0.884 --   232 o    0.821
   234   1 h    0.909 --   232 o    0.900
   235   8 o    1.864 --   237 h    0.857   236 h    0.794
   236   1 h    0.869 --   235 o    0.794
   237   1 h    0.891 --   235 o    0.857
   238   8 o    1.833 --   240 h    0.810   239 h    0.806
   239   1 h    0.890 --   238 o    0.806
   240   1 h    0.878 --   238 o    0.810
   241   8 o    1.866 --   243 h    0.916   242 h    0.797
   242   1 h    0.874 --   241 o    0.797
   243   1 h    0.920 --   241 o    0.916
   244   8 o    1.860 --   246 h    0.854   245 h    0.828
   245   1 h    0.892 --   244 o    0.828
   246   1 h    0.887 --   244 o    0.854
   247   8 o    1.849 --   248 h    0.816   249 h    0.808
   248   1 h    0.878 --   247 o    0.816
   249   1 h    0.881 --   247 o    0.808
   250   8 o    1.881 --   251 h    0.795   252 h    0.794
   251   1 h    0.878 --   250 o    0.795
   252   1 h    0.878 --   250 o    0.794
   253   8 o    1.844 --   254 h    0.842   255 h    0.834
   254   1 h    0.891 --   253 o    0.842
   255   1 h    0.893 --   253 o    0.834
   256   8 o    1.863 --   257 h    0.917   258 h    0.795
   257   1 h    0.921 --   256 o    0.917
   258   1 h    0.880 --   256 o    0.795
   259   8 o    1.879 --   260 h    0.842   261 h    0.807
   260   1 h    0.891 --   259 o    0.842
   261   1 h    0.881 --   259 o    0.807
   262   8 o    1.826 --   263 h    0.900   264 h    0.802
   263   1 h    0.910 --   262 o    0.900
   264   1 h    0.881 --   262 o    0.802
   265   8 o    1.856 --   267 h    0.878   266 h    0.821
   266   1 h    0.881 --   265 o    0.821
   267   1 h    0.903 --   265 o    0.878
   268   8 o    1.871 --   270 h    0.826   269 h    0.811
   269   1 h    0.884 --   268 o    0.811
   270   1 h    0.890 --   268 o    0.826
   271   8 o    1.846 --   272 h    0.847   273 h    0.846
   272   1 h    0.889 --   271 o    0.847
   273   1 h    0.895 --   271 o    0.846
   274   8 o    1.842 --   275 h    0.849   276 h    0.815
   275   1 h    0.901 --   274 o    0.849
   276   1 h    0.883 --   274 o    0.815
   277   8 o    1.859 --   279 h    0.870   278 h    0.789
   278   1 h    0.873 --   277 o    0.789
   279   1 h    0.904 --   277 o    0.870
   280   8 o    1.839 --   282 h    0.872   281 h    0.860
   281   1 h    0.893 --   280 o    0.860
   282   1 h    0.903 --   280 o    0.872
   283   8 o    1.838 --   284 h    0.915   285 h    0.848
   284   1 h    0.918 --   283 o    0.915
   285   1 h    0.886 --   283 o    0.848
   286   8 o    1.819 --   287 h    0.876   288 h    0.820
   287   1 h    0.902 --   286 o    0.876
   288   1 h    0.889 --   286 o    0.820
   289   8 o    1.871 --   291 h    0.867   290 h    0.812
   290   1 h    0.885 --   289 o    0.812
   291   1 h    0.897 --   289 o    0.867
   292   8 o    1.858 --   294 h    0.913   293 h    0.808
   293   1 h    0.879 --   292 o    0.808
   294   1 h    0.919 --   292 o    0.913
   295   8 o    1.832 --   296 h    0.843   297 h    0.826
   296   1 h    0.894 --   295 o    0.843
   297   1 h    0.879 --   295 o    0.826
   298   8 o    1.836 --   300 h    0.868   299 h    0.814
   299   1 h    0.882 --   298 o    0.814
   300   1 h    0.902 --   298 o    0.868
   301   8 o    1.827 --   303 h    0.919   302 h    0.858
   302   1 h    0.892 --   301 o    0.858
   303   1 h    0.924 --   301 o    0.919
   304   8 o    1.845 --   305 h    0.918   306 h    0.789
   305   1 h    0.925 --   304 o    0.918
   306   1 h    0.878 --   304 o    0.789
   307   8 o    1.828 --   309 h    0.894   308 h    0.794
   308   1 h    0.870 --   307 o    0.794
   309   1 h    0.909 --   307 o    0.894
   310   8 o    1.851 --   311 h    0.827   312 h    0.794
   311   1 h    0.876 --   310 o    0.827
   312   1 h    0.875 --   310 o    0.794
   313   8 o    1.832 --   314 h    0.897   315 h    0.815
   314   1 h    0.909 --   313 o    0.897
   315   1 h    0.885 --   313 o    0.815
   316   8 o    1.829 --   317 h    0.874   318 h    0.833
   317   1 h    0.904 --   316 o    0.874
   318   1 h    0.885 --   316 o    0.833
   319   8 o    1.855 --   320 h    0.918   321 h    0.806
   320   1 h    0.922 --   319 o    0.918
   321   1 h    0.877 --   319 o    0.806
   322   8 o    1.870 --   324 h    0.837   323 h    0.807
   323   1 h    0.890 --   322 o    0.807
   324   1 h    0.883 --   322 o    0.837
   325   8 o    1.874 --   327 h    0.834   326 h    0.809
   326   1 h    0.876 --   325 o    0.809
   327   1 h    0.885 --   325 o    0.834
   328   8 o    1.848 --   330 h    0.882   329 h    0.799
   329   1 h    0.881 --   328 o    0.799
   330   1 h    0.901 --   328 o    0.882
   331   8 o    1.854 --   333 h    0.832   332 h    0.822
   332   1 h    0.890 --   331 o    0.822
   333   1 h    0.891 --   331 o    0.832
   334   8 o    1.840 --   335 h    0.865   336 h    0.851
   335   1 h    0.896 --   334 o    0.865
   336   1 h    0.899 --   334 o    0.851
   337   8 o    1.883 --   339 h    0.877   338 h    0.838
   338   1 h    0.891 --   337 o    0.838
   339   1 h    0.900 --   337 o    0.877
   340   8 o    1.852 --   341 h    0.856   342 h    0.837
   341   1 h    0.894 --   340 o    0.856
   342   1 h    0.893 --   340 o    0.837
   343   8 o    1.872 --   344 h    0.833   345 h    0.807
   344   1 h    0.892 --   343 o    0.833
   345   1 h    0.881 --   343 o    0.807
   346   8 o    1.847 --   348 h    0.855   347 h    0.827
   347   1 h    0.882 --   346 o    0.827
   348   1 h    0.900 --   346 o    0.855
   349   8 o    1.843 --   351 h    0.837   350 h    0.765
   350   1 h    0.866 --   349 o    0.765
   351   1 h    0.881 --   349 o    0.837
   352   8 o    1.836 --   354 h    0.847   353 h    0.815
   353   1 h    0.885 --   352 o    0.815
   354   1 h    0.899 --   352 o    0.847
   355   8 o    1.823 --   356 h    0.845   357 h    0.801
   356   1 h    0.893 --   355 o    0.845
   357   1 h    0.881 --   355 o    0.801
   358   8 o    1.832 --   360 h    0.865   359 h    0.858
   359   1 h    0.898 --   358 o    0.858
   360   1 h    0.900 --   358 o    0.865
   361   8 o    1.872 --   362 h    0.853   363 h    0.846
   362   1 h    0.893 --   361 o    0.853
   363   1 h    0.892 --   361 o    0.846
   364   8 o    1.865 --   366 h    0.839   365 h    0.802
   365   1 h    0.876 --   364 o    0.802
   366   1 h    0.891 --   364 o    0.839
   367   8 o    1.854 --   369 h    0.888   368 h    0.820
   368   1 h    0.883 --   367 o    0.820
   369   1 h    0.906 --   367 o    0.888
   370   8 o    1.843 --   371 h    0.875   372 h    0.830
   371   1 h    0.899 --   370 o    0.875
   372   1 h    0.889 --   370 o    0.830
   373   8 o    1.841 --   375 h    0.856   374 h    0.802
   374   1 h    0.877 --   373 o    0.802
   375   1 h    0.897 --   373 o    0.856
   376   8 o    1.868 --   378 h    0.910   377 h    0.837
   377   1 h    0.881 --   376 o    0.837
   378   1 h    0.915 --   376 o    0.910
   379   8 o    1.853 --   381 h    0.876   380 h    0.820
   380   1 h    0.877 --   379 o    0.820
   381   1 h    0.904 --   379 o    0.876
   382   8 o    1.860 --   383 h    0.860   384 h    0.851
   383   1 h    0.895 --   382 o    0.860
   384   1 h    0.891 --   382 o    0.851
   385   8 o    1.826 --   387 h    0.817   386 h    0.798
   386   1 h    0.876 --   385 o    0.798
   387   1 h    0.873 --   385 o    0.817
   388   8 o    1.834 --   390 h    0.849   389 h    0.822
   389   1 h    0.884 --   388 o    0.822
   390   1 h    0.897 --   388 o    0.849
   391   8 o    1.836 --   392 h    0.872   393 h    0.820
   392   1 h    0.900 --   391 o    0.872
   393   1 h    0.885 --   391 o    0.820
   394   8 o    1.851 --   395 h    0.830   396 h    0.810
   395   1 h    0.887 --   394 o    0.830
   396   1 h    0.875 --   394 o    0.810
   397   8 o    1.844 --   398 h    0.872   399 h    0.814
   398   1 h    0.905 --   397 o    0.872
   399   1 h    0.883 --   397 o    0.814
   400   8 o    1.852 --   401 h    0.797   402 h    0.789
   401   1 h    0.886 --   400 o    0.797
   402   1 h    0.877 --   400 o    0.789
   403   8 o    1.868 --   404 h    0.844   405 h    0.822
   404   1 h    0.891 --   403 o    0.844
   405   1 h    0.890 --   403 o    0.822
   406   8 o    1.861 --   408 h    0.820   407 h    0.796
   407   1 h    0.876 --   406 o    0.796
   408   1 h    0.892 --   406 o    0.820
   409   8 o    1.848 --   411 h    0.853   410 h    0.808
   410   1 h    0.885 --   409 o    0.808
   411   1 h    0.900 --   409 o    0.853
   412   8 o    1.822 --   413 h    0.862   414 h    0.825
   413   1 h    0.898 --   412 o    0.862
   414   1 h    0.884 --   412 o    0.825
   415   8 o    1.873 --   416 h    0.857   417 h    0.838
   416   1 h    0.894 --   415 o    0.857
   417   1 h    0.890 --   415 o    0.838
   418   8 o    1.859 --   419 h    0.861   420 h    0.824
   419   1 h    0.895 --   418 o    0.861
   420   1 h    0.887 --   418 o    0.824
   421   8 o    1.848 --   423 h    0.868   422 h    0.843
   422   1 h    0.889 --   421 o    0.843
   423   1 h    0.897 --   421 o    0.868
   424   8 o    1.835 --   426 h    0.867   425 h    0.854
   425   1 h    0.896 --   424 o    0.854
   426   1 h    0.899 --   424 o    0.867
   427   8 o    1.867 --   428 h    0.884   429 h    0.805
   428   1 h    0.905 --   427 o    0.884
   429   1 h    0.881 --   427 o    0.805
   430   8 o    1.859 --   431 h    0.829   432 h    0.819
   431   1 h    0.893 --   430 o    0.829
   432   1 h    0.886 --   430 o    0.819
   433   8 o    1.845 --   434 h    0.851   435 h    0.848
   434   1 h    0.897 --   433 o    0.851
   435   1 h    0.890 --   433 o    0.848
   436   8 o    1.907 --   438 h    0.873   437 h    0.838
   437   1 h    0.886 --   436 o    0.838
   438   1 h    0.895 --   436 o    0.873
   439   8 o    1.869 --   441 h    0.838   440 h    0.830
   440   1 h    0.891 --   439 o    0.830
   441   1 h    0.891 --   439 o    0.838
   442   8 o    1.866 --   443 h    0.878   444 h    0.856
   443   1 h    0.901 --   442 o    0.878
   444   1 h    0.890 --   442 o    0.856
   445   8 o    1.879 --   447 h    0.834   446 h    0.814
   446   1 h    0.873 --   445 o    0.814
   447   1 h    0.884 --   445 o    0.834
   448   8 o    1.861 --   449 h    0.865   450 h    0.801
   449   1 h    0.894 --   448 o    0.865
   450   1 h    0.878 --   448 o    0.801
   451   8 o    1.853 --   452 h    0.843   453 h    0.807
   452   1 h    0.870 --   451 o    0.843
   453   1 h    0.887 --   451 o    0.807
   454   8 o    1.834 --   455 h    0.832   456 h    0.821
   455   1 h    0.896 --   454 o    0.832
   456   1 h    0.881 --   454 o    0.821
   457   8 o    1.870 --   459 h    0.831   458 h    0.795
   458   1 h    0.880 --   457 o    0.795
   459   1 h    0.891 --   457 o    0.831
   460   8 o    1.838 --   462 h    0.901   461 h    0.792
   461   1 h    0.876 --   460 o    0.792
   462   1 h    0.912 --   460 o    0.901
   463   8 o    1.871 --   465 h    0.832   464 h    0.813
   464   1 h    0.889 --   463 o    0.813
   465   1 h    0.887 --   463 o    0.832
   466   8 o    1.869 --   468 h    0.867   467 h    0.861
   467   1 h    0.893 --   466 o    0.861
   468   1 h    0.893 --   466 o    0.867
   469   8 o    1.859 --   470 h    0.916   471 h    0.802
   470   1 h    0.921 --   469 o    0.916
   471   1 h    0.879 --   469 o    0.802
   472   8 o    1.838 --   473 h    0.812   474 h    0.799
   473   1 h    0.892 --   472 o    0.812
   474   1 h    0.881 --   472 o    0.799
   475   8 o    1.875 --   477 h    0.846   476 h    0.794
   476   1 h    0.875 --   475 o    0.794
   477   1 h    0.896 --   475 o    0.846
   478   8 o    1.843 --   480 h    0.875   479 h    0.812
   479   1 h    0.883 --   478 o    0.812
   480   1 h    0.905 --   478 o    0.875
   481   8 o    1.868 --   483 h    0.870   482 h    0.792
   482   1 h    0.872 --   481 o    0.792
   483   1 h    0.899 --   481 o    0.870
   484   8 o    1.883 --   485 h    0.819   486 h    0.772
   485   1 h    0.886 --   484 o    0.819
   486   1 h    0.868 --   484 o    0.772
   487   8 o    1.867 --   489 h    0.869   488 h    0.823
   488   1 h    0.885 --   487 o    0.823
   489   1 h    0.899 --   487 o    0.869
   490   8 o    1.857 --   491 h    0.823   492 h    0.815
   491   1 h    0.878 --   490 o    0.823
   492   1 h    0.884 --   490 o    0.815
   493   8 o    1.872 --   494 h    0.843   495 h    0.827   188 h    0.105
   494   1 h    0.889 --   493 o    0.843
   495   1 h    0.889 --   493 o    0.827
   496   8 o    1.860 --   498 h    0.851   497 h    0.845
   497   1 h    0.889 --   496 o    0.845
   498   1 h    0.894 --   496 o    0.851
   499   8 o    1.887 --   501 h    0.820   500 h    0.812
   500   1 h    0.877 --   499 o    0.812
   501   1 h    0.890 --   499 o    0.820
   502   8 o    1.866 --   503 h    0.853   504 h    0.821
   503   1 h    0.890 --   502 o    0.853
   504   1 h    0.880 --   502 o    0.821
   505   8 o    1.858 --   507 h    0.853   506 h    0.830
   506   1 h    0.878 --   505 o    0.830
   507   1 h    0.899 --   505 o    0.853
   508   8 o    1.878 --   509 h    0.893   510 h    0.825
   509   1 h    0.906 --   508 o    0.893
   510   1 h    0.891 --   508 o    0.825
   511   8 o    1.851 --   512 h    0.839   513 h    0.833
   512   1 h    0.893 --   511 o    0.839
   513   1 h    0.892 --   511 o    0.833
   514   8 o    1.859 --   515 h    0.850   516 h    0.816
   515   1 h    0.898 --   514 o    0.850
   516   1 h    0.887 --   514 o    0.816
   517   8 o    1.869 --   518 h    0.862   519 h    0.832
   518   1 h    0.899 --   517 o    0.862
   519   1 h    0.882 --   517 o    0.832
   520   8 o    1.859 --   521 h    0.827   522 h    0.823
   521   1 h    0.875 --   520 o    0.827
   522   1 h    0.893 --   520 o    0.823
   523   8 o    1.846 --   525 h    0.896   524 h    0.803
   524   1 h    0.877 --   523 o    0.803
   525   1 h    0.910 --   523 o    0.896
   526   8 o    1.786 --   527 h    0.902   528 h    0.818
   527   1 h    0.909 --   526 o    0.902
   528   1 h    0.886 --   526 o    0.818
   529   8 o    1.861 --   530 h    0.878   531 h    0.856
   530   1 h    0.889 --   529 o    0.878
   531   1 h    0.890 --   529 o    0.856
 ---------------------------------------------------------------------------

Topologies differ in total number of bonds
Writing topology from bond orders to xtbtopo.mol

molecular dipole:
                 x           y           z       tot (Debye)
 q only:        2.674      -0.624       0.848
   full:        3.942      -0.893       0.961      10.559
molecular quadrupole (traceless):
                xx          xy          yy          xz          yz          zz
 q only:       66.677      -5.008      -9.136      43.566      36.632     -57.541
  q+dip:       85.800      -6.539     -14.572      52.505      40.584     -71.229
   full:       87.340      -7.286     -16.750      52.348      40.047     -70.590


           -------------------------------------------------
          | TOTAL ENERGY             -901.232803258364 Eh   |
          | GRADIENT NORM               0.100040700691 Eh/α |
          | HOMO-LUMO GAP               6.723715498713 eV   |
           -------------------------------------------------

------------------------------------------------------------------------
 * finished run on 2022/11/17 at 06:55:19.689     
------------------------------------------------------------------------
 total:
 * wall-time:     0 d,  0 h,  0 min, 19.953 sec
 *  cpu-time:     0 d,  0 h,  0 min, 25.950 sec
 * ratio c/w:     1.301 speedup
 SCF:
 * wall-time:     0 d,  0 h,  0 min, 19.358 sec
 *  cpu-time:     0 d,  0 h,  0 min, 24.939 sec
 * ratio c/w:     1.288 speedup

