      -----------------------------------------------------------      
     |                   =====================                   |     
     |                           x T B                           |     
     |                   =====================                   |     
     |                         S. Grimme                         |     
     |          Mulliken Center for Theoretical Chemistry        |     
     |                    University of Bonn                     |     
      -----------------------------------------------------------      

   * xtb version 6.5.1 (579679a) compiled by 'ehlert@majestix' on 2022-07-11

   xtb is free software: you can redistribute it and/or modify it under
   the terms of the GNU Lesser General Public License as published by
   the Free Software Foundation, either version 3 of the License, or
   (at your option) any later version.
   
   xtb is distributed in the hope that it will be useful,
   but WITHOUT ANY WARRANTY; without even the implied warranty of
   MERCHANTABILITY or FITNESS FOR A PARTICULAR PURPOSE.  See the
   GNU Lesser General Public License for more details.
   
   Cite this work as:
   * C. Bannwarth, E. Caldeweyher, S. Ehlert, A. Hansen, P. Pracht,
     J. Seibert, S. Spicher, S. Grimme, WIREs Comput. Mol. Sci., 2020, 11,
     e01493. DOI: 10.1002/wcms.1493
   
   for GFN2-xTB:
   * C. Bannwarth, S. Ehlert and S. Grimme., J. Chem. Theory Comput., 2019,
     15, 1652-1671. DOI: 10.1021/acs.jctc.8b01176
   for GFN1-xTB:
   * S. Grimme, C. Bannwarth, P. Shushkov, J. Chem. Theory Comput., 2017,
     13, 1989-2009. DOI: 10.1021/acs.jctc.7b00118
   for GFN0-xTB:
   * P. Pracht, E. Caldeweyher, S. Ehlert, S. Grimme, ChemRxiv, 2019, preprint.
     DOI: 10.26434/chemrxiv.8326202.v1
   for GFN-FF:
   * S. Spicher and S. Grimme, Angew. Chem. Int. Ed., 2020, 59, 15665-15673.
     DOI: 10.1002/anie.202004239
   
   for ALPB and GBSA implicit solvation:
   * S. Ehlert, M. Stahn, S. Spicher, S. Grimme, J. Chem. Theory Comput.,
     2021, 17, 4250-4261. DOI: 10.1021/acs.jctc.1c00471
   
   for DFT-D4:
   * E. Caldeweyher, C. Bannwarth and S. Grimme, J. Chem. Phys., 2017,
     147, 034112. DOI: 10.1063/1.4993215
   * E. Caldeweyher, S. Ehlert, A. Hansen, H. Neugebauer, S. Spicher,
     C. Bannwarth and S. Grimme, J. Chem. Phys., 2019, 150, 154122.
     DOI: 10.1063/1.5090222
   * E. Caldeweyher, J.-M. Mewes, S. Ehlert and S. Grimme, Phys. Chem. Chem. Phys.
     2020, 22, 8499-8512. DOI: 10.1039/D0CP00502A
   
   for sTDA-xTB:
   * S. Grimme and C. Bannwarth, J. Chem. Phys., 2016, 145, 054103.
     DOI: 10.1063/1.4959605
   
   in the mass-spec context:
   * V. Asgeirsson, C. Bauer and S. Grimme, Chem. Sci., 2017, 8, 4879.
     DOI: 10.1039/c7sc00601b
   * J. Koopman and S. Grimme, ACS Omega 2019, 4, 12, 15120-15133.
     DOI: 10.1021/acsomega.9b02011
   
   for metadynamics refer to:
   * S. Grimme, J. Chem. Theory Comput., 2019, 155, 2847-2862
     DOI: 10.1021/acs.jctc.9b00143
   
   for SPH calculations refer to:
   * S. Spicher and S. Grimme, J. Chem. Theory Comput., 2021, 17, 1701-1714
     DOI: 10.1021/acs.jctc.0c01306
   
   with help from (in alphabetical order)
   P. Atkinson, C. Bannwarth, F. Bohle, G. Brandenburg, E. Caldeweyher
   M. Checinski, S. Dohm, S. Ehlert, S. Ehrlich, I. Gerasimov, C. Hölzer
   A. Katbashev, J. Koopman, C. Lavigne, S. Lehtola, F. März, M. Müller,
   F. Musil, H. Neugebauer, J. Pisarek, C. Plett, P. Pracht, F. Pultar,
   J. Seibert, P. Shushkov, S. Spicher, M. Stahn, M. Steiner, T. Strunk,
   J. Stückrath, T. Rose, and J. Unsleber
   
 * started run on 2022/11/17 at 06:54:49.176     

           -------------------------------------------------
          |                Calculation Setup                |
           -------------------------------------------------

          program call               : xtb xtbopt.coord --gfn2 --sp --gbsa water
          hostname                   : cn0363
          coordinate file            : xtbopt.coord
          omp threads                :                     2

   ID    Z sym.   atoms
    1    8 o      1, 4, 7, 10, 13, 16, 19, 22, 25, 28, 31, 34, 37, 40, 43,
                  46, 49, 52, 55, 58, 61, 64, 67, 70, 73, 76, 79, 82, 85, 88,
                  91, 94, 97, 100, 103, 106, 109, 112, 115, 118, 121, 124,
                  127, 130, 133, 136, 139, 142, 145, 148, 151, 154, 157, 160,
                  163, 166, 169, 172, 175, 178, 181, 184, 187, 190, 193, 196,
                  199, 202, 205, 208, 211, 214, 217, 220, 223, 226, 229, 232,
                  235, 238, 241, 244, 247, 250, 253, 256, 259, 262, 265, 268,
                  271, 274, 277, 280, 283, 286, 289, 292, 295, 298, 301, 304,
                  307, 310, 313, 316, 319, 322, 325, 328, 331, 334, 337, 340,
                  343, 346, 349, 352, 355, 358, 361, 364, 367, 370, 373, 376,
                  379, 382, 385, 388, 391, 394, 397, 400, 403, 406, 409, 412,
                  415, 418, 421, 424, 427, 430, 433, 436, 439, 442, 445, 448,
                  451, 454, 457, 460, 463, 466, 469, 472, 475, 478, 481, 484,
                  487, 490, 493, 496, 499, 502, 505, 508, 511, 514, 517, 520,
                  523, 526, 529
    2    1 h      2, 3, 5, 6, 8, 9, 11, 12, 14, 15, 17, 18, 20, 21, 23, 24,
                  26, 27, 29, 30, 32, 33, 35, 36, 38, 39, 41, 42, 44, 45, 47,
                  48, 50, 51, 53, 54, 56, 57, 59, 60, 62, 63, 65, 66, 68, 69,
                  71, 72, 74, 75, 77, 78, 80, 81, 83, 84, 86, 87, 89, 90, 92,
                  93, 95, 96, 98, 99, 101, 102, 104, 105, 107, 108, 110, 111,
                  113, 114, 116, 117, 119, 120, 122, 123, 125, 126, 128, 129,
                  131, 132, 134, 135, 137, 138, 140, 141, 143, 144, 146, 147,
                  149, 150, 152, 153, 155, 156, 158, 159, 161, 162, 164, 165,
                  167, 168, 170, 171, 173, 174, 176, 177, 179, 180, 182, 183,
                  185, 186, 188, 189, 191, 192, 194, 195, 197, 198, 200, 201,
                  203, 204, 206, 207, 209, 210, 212, 213, 215, 216, 218, 219,
                  221, 222, 224, 225, 227, 228, 230, 231, 233, 234, 236, 237,
                  239, 240, 242, 243, 245, 246, 248, 249, 251, 252, 254, 255,
                  257, 258, 260, 261, 263, 264, 266, 267, 269, 270, 272, 273,
                  275, 276, 278, 279, 281, 282, 284, 285, 287, 288, 290, 291,
                  293, 294, 296, 297, 299, 300, 302, 303, 305, 306, 308, 309,
                  311, 312, 314, 315, 317, 318, 320, 321, 323, 324, 326, 327,
                  329, 330, 332, 333, 335, 336, 338, 339, 341, 342, 344, 345,
                  347, 348, 350, 351, 353, 354, 356, 357, 359, 360, 362, 363,
                  365, 366, 368, 369, 371, 372, 374, 375, 377, 378, 380, 381,
                  383, 384, 386, 387, 389, 390, 392, 393, 395, 396, 398, 399,
                  401, 402, 404, 405, 407, 408, 410, 411, 413, 414, 416, 417,
                  419, 420, 422, 423, 425, 426, 428, 429, 431, 432, 434, 435,
                  437, 438, 440, 441, 443, 444, 446, 447, 449, 450, 452, 453,
                  455, 456, 458, 459, 461, 462, 464, 465, 467, 468, 470, 471,
                  473, 474, 476, 477, 479, 480, 482, 483, 485, 486, 488, 489,
                  491, 492, 494, 495, 497, 498, 500, 501, 503, 504, 506, 507,
                  509, 510, 512, 513, 515, 516, 518, 519, 521, 522, 524, 525,
                  527, 528, 530, 531

molecular fragmentation (1/2 indicates fragments):
111222222222222222222222222222222222222222222222222222222222222222222222
222222222222222222222222222222222222222222222222222222222222222222222222
222222222222222222222222222222222222222222222222222222222222222222222222
222222222222222222222222222222222222222222222222222222222222222222222222
222222222222222222222222222222222222222222222222222222222222222222222222
222222222222222222222222222222222222222222222222222222222222222222222222
222222222222222222222222222222222222222222222222222222222222222222222222
222222222222222222222222222
# atoms in fragment 1/2:     3   528
 fragment masses (1/2) :       18.02     3170.69
CMA distance (Bohr)    :   5.910
constraining FC (au)   :  0.0500

           -------------------------------------------------
          |                 G F N 2 - x T B                 |
           -------------------------------------------------

        Reference                      10.1021/acs.jctc.8b01176
      * Hamiltonian:
        H0-scaling (s, p, d)           1.850000    2.230000    2.230000
        zeta-weighting                 0.500000
      * Dispersion:
        s8                             2.700000
        a1                             0.520000
        a2                             5.000000
        s9                             5.000000
      * Repulsion:
        kExp                           1.500000    1.000000
        rExp                           1.000000
      * Coulomb:
        alpha                          2.000000
        third order                    shell-resolved
        anisotropic                    true
        a3                             3.000000
        a5                             4.000000
        cn-shift                       1.200000
        cn-exp                         4.000000
        max-rad                        5.000000

      * Solvation model:               GBSA
        Solvent                        water
        Parameter file                 internal GFN2-xTB/GBSA
        Dielectric constant                8.0200E+01
        Reference state                gsolv [1 M gas/solution]
        Free energy shift                  1.8574E-03 Eh       1.1656E+00 kcal/mol
        Temperature                        2.9815E+02 K
        Density                            1.0000E+00 kg/L
        Solvent mass                       1.8000E+01 g/mol
        Interaction kernel             Still
        Born radius scaling (c1)           1.5524E+00
        Born radii integrator          GBOBC
        Born offset                        2.4628E-02 a0       4.6540E-02 AA
        H-bond correction              true
        Ion screening                  false
        Surface tension                    1.0000E-05 Eh       1.5569E+01 dyn/cm
        Grid points                               230 per atom

          ...................................................
          :                      SETUP                      :
          :.................................................:
          :  # basis functions                1062          :
          :  # atomic orbitals                1062          :
          :  # shells                          708          :
          :  # electrons                      1416          :
          :  max. iterations                   250          :
          :  Hamiltonian                  GFN2-xTB          :
          :  restarted?                      false          :
          :  GBSA solvation                   true          :
          :  PC potential                    false          :
          :  electronic temp.          300.0000000     K    :
          :  accuracy                    1.0000000          :
          :  -> integral cutoff          0.2500000E+02      :
          :  -> integral neglect         0.1000000E-07      :
          :  -> SCF convergence          0.1000000E-05 Eh   :
          :  -> wf. convergence          0.1000000E-03 e    :
          :  Broyden damping             0.4000000          :
          ...................................................

 iter      E             dE          RMSdq      gap      omega  full diag
   1   -906.7924639 -0.906792E+03  0.408E+00    8.55       0.0  T
   2   -906.8550844 -0.626205E-01  0.241E+00    8.22       1.0  T
   3   -906.8804377 -0.253533E-01  0.229E-01    7.25       1.0  T
   4   -906.8844569 -0.401922E-02  0.499E-02    7.52       1.0  T
   5   -906.8845936 -0.136708E-03  0.314E-02    7.46       1.0  T
   6   -906.8846269 -0.332721E-04  0.371E-03    7.47       1.2  T
   7   -906.8846281 -0.114675E-05  0.823E-04    7.47       5.3  T
   8   -906.8846281 -0.344063E-07  0.455E-04    7.47       9.5  T
   9   -906.8846281 -0.190486E-07  0.108E-04    7.47      40.3  T

   *** convergence criteria satisfied after 9 iterations ***

         #    Occupation            Energy/Eh            Energy/eV
      -------------------------------------------------------------
         1        2.0000           -0.6563680             -17.8607
       ...           ...                  ...                  ...
       702        2.0000           -0.3450931              -9.3905
       703        2.0000           -0.3443538              -9.3703
       704        2.0000           -0.3431257              -9.3369
       705        2.0000           -0.3381635              -9.2019
       706        2.0000           -0.3352752              -9.1233
       707        2.0000           -0.3313501              -9.0165
       708        2.0000           -0.3282885              -8.9332 (HOMO)
       709                         -0.0538015              -1.4640 (LUMO)
       710                         -0.0446882              -1.2160
       711                         -0.0302464              -0.8230
       712                         -0.0282400              -0.7684
       713                         -0.0197603              -0.5377
       ...                                ...                  ...
      1062                          0.4745430              12.9130
      -------------------------------------------------------------
                  HL-Gap            0.2744871 Eh            7.4692 eV
             Fermi-level           -0.1910450 Eh           -5.1986 eV

 SCC (total)                   0 d,  0 h,  0 min,  9.206 sec
 SCC setup                      ...        0 min,  0.090 sec (  0.981%)
 Dispersion                     ...        0 min,  0.065 sec (  0.703%)
 classical contributions        ...        0 min,  0.021 sec (  0.230%)
 integral evaluation            ...        0 min,  0.406 sec (  4.405%)
 iterations                     ...        0 min,  3.818 sec ( 41.473%)
 molecular gradient             ...        0 min,  4.779 sec ( 51.917%)
 printout                       ...        0 min,  0.027 sec (  0.291%)

         :::::::::::::::::::::::::::::::::::::::::::::::::::::
         ::                     SUMMARY                     ::
         :::::::::::::::::::::::::::::::::::::::::::::::::::::
         :: total energy            -901.445941506087 Eh    ::
         :: total w/o Gsasa/hb      -901.255004362683 Eh    ::
         :: gradient norm              0.112809188514 Eh/a0 ::
         :: HOMO-LUMO gap              7.469173909338 eV    ::
         ::.................................................::
         :: SCC energy              -906.884628115104 Eh    ::
         :: -> isotropic ES            5.257011673053 Eh    ::
         :: -> anisotropic ES         -1.135044395148 Eh    ::
         :: -> anisotropic XC         -0.086446771464 Eh    ::
         :: -> dispersion             -0.537851320077 Eh    ::
         :: -> Gsolv                  -0.225632649919 Eh    ::
         ::    -> Gelec               -0.034695506515 Eh    ::
         ::    -> Gsasa                0.003590345234 Eh    ::
         ::    -> Ghb                 -0.196384931764 Eh    ::
         ::    -> Gshift               0.001857443127 Eh    ::
         :: repulsion energy           5.342174032160 Eh    ::
         :: add. restraining           0.000000000000 Eh    ::
         :: total charge              -0.000000000000 e     ::
         :::::::::::::::::::::::::::::::::::::::::::::::::::::

           -------------------------------------------------
          |                Property Printout                |
           -------------------------------------------------

    * Orbital Energies and Occupations

         #    Occupation            Energy/Eh            Energy/eV
      -------------------------------------------------------------
         1        2.0000           -0.6563680             -17.8607
       ...           ...                  ...                  ...
       696        2.0000           -0.3596088              -9.7855
       697        2.0000           -0.3578870              -9.7386
       698        2.0000           -0.3577824              -9.7358
       699        2.0000           -0.3494896              -9.5101
       700        2.0000           -0.3480450              -9.4708
       701        2.0000           -0.3477931              -9.4639
       702        2.0000           -0.3450931              -9.3905
       703        2.0000           -0.3443538              -9.3703
       704        2.0000           -0.3431257              -9.3369
       705        2.0000           -0.3381635              -9.2019
       706        2.0000           -0.3352752              -9.1233
       707        2.0000           -0.3313501              -9.0165
       708        2.0000           -0.3282885              -8.9332 (HOMO)
       709                         -0.0538015              -1.4640 (LUMO)
       710                         -0.0446882              -1.2160
       711                         -0.0302464              -0.8230
       712                         -0.0282400              -0.7684
       713                         -0.0197603              -0.5377
       714                         -0.0128705              -0.3502
       715                         -0.0099908              -0.2719
       716                          0.0008814               0.0240
       717                          0.0029323               0.0798
       718                          0.0083894               0.2283
       719                          0.0130737               0.3558
       ...                                ...                  ...
      1062                          0.4745430              12.9130
      -------------------------------------------------------------
                  HL-Gap            0.2744871 Eh            7.4692 eV
             Fermi-level           -0.1910450 Eh           -5.1986 eV

     #   Z          covCN         q      C6AA      α(0)
     1   8 o        1.606    -0.696    27.597     7.090
     2   1 h        0.802     0.340     0.611     1.228
     3   1 h        0.804     0.331     0.634     1.251
     4   8 o        1.607    -0.691    27.462     7.073
     5   1 h        0.803     0.350     0.588     1.205
     6   1 h        0.803     0.328     0.643     1.259
     7   8 o        1.608    -0.684    27.276     7.049
     8   1 h        0.803     0.350     0.587     1.204
     9   1 h        0.804     0.340     0.612     1.229
    10   8 o        1.609    -0.683    27.251     7.045
    11   1 h        0.805     0.326     0.648     1.264
    12   1 h        0.804     0.332     0.632     1.249
    13   8 o        1.608    -0.687    27.371     7.061
    14   1 h        0.804     0.339     0.615     1.232
    15   1 h        0.804     0.337     0.618     1.235
    16   8 o        1.607    -0.660    26.678     6.971
    17   1 h        0.803     0.339     0.614     1.231
    18   1 h        0.804     0.326     0.647     1.264
    19   8 o        1.609    -0.669    26.888     6.998
    20   1 h        0.805     0.317     0.672     1.287
    21   1 h        0.804     0.345     0.600     1.216
    22   8 o        1.607    -0.700    27.700     7.103
    23   1 h        0.802     0.353     0.582     1.198
    24   1 h        0.804     0.332     0.631     1.248
    25   8 o        1.607    -0.660    26.665     6.969
    26   1 h        0.805     0.337     0.619     1.236
    27   1 h        0.803     0.331     0.635     1.252
    28   8 o        1.607    -0.668    26.885     6.998
    29   1 h        0.804     0.338     0.618     1.235
    30   1 h        0.803     0.333     0.630     1.247
    31   8 o        1.609    -0.663    26.756     6.981
    32   1 h        0.805     0.339     0.614     1.231
    33   1 h        0.803     0.361     0.563     1.179
    34   8 o        1.608    -0.661    26.694     6.973
    35   1 h        0.804     0.336     0.621     1.238
    36   1 h        0.804     0.352     0.583     1.200
    37   8 o        1.607    -0.705    27.851     7.123
    38   1 h        0.804     0.342     0.608     1.225
    39   1 h        0.803     0.349     0.591     1.207
    40   8 o        1.607    -0.678    27.122     7.029
    41   1 h        0.803     0.342     0.608     1.224
    42   1 h        0.804     0.353     0.582     1.199
    43   8 o        1.609    -0.680    27.176     7.036
    44   1 h        0.804     0.343     0.604     1.221
    45   1 h        0.804     0.345     0.600     1.217
    46   8 o        1.608    -0.678    27.127     7.029
    47   1 h        0.803     0.365     0.555     1.170
    48   1 h        0.804     0.323     0.656     1.272
    49   8 o        1.605    -0.718    28.207     7.168
    50   1 h        0.802     0.365     0.554     1.169
    51   1 h        0.803     0.350     0.588     1.205
    52   8 o        1.610    -0.660    26.677     6.971
    53   1 h        0.804     0.336     0.622     1.239
    54   1 h        0.805     0.343     0.605     1.222
    55   8 o        1.609    -0.666    26.810     6.988
    56   1 h        0.804     0.333     0.630     1.247
    57   1 h        0.804     0.342     0.607     1.224
    58   8 o        1.605    -0.697    27.636     7.095
    59   1 h        0.802     0.362     0.562     1.178
    60   1 h        0.804     0.347     0.594     1.211
    61   8 o        1.609    -0.680    27.188     7.037
    62   1 h        0.804     0.346     0.598     1.215
    63   1 h        0.805     0.320     0.664     1.280
    64   8 o        1.607    -0.675    27.052     7.020
    65   1 h        0.803     0.348     0.592     1.209
    66   1 h        0.803     0.347     0.595     1.212
    67   8 o        1.607    -0.676    27.089     7.024
    68   1 h        0.803     0.331     0.634     1.251
    69   1 h        0.804     0.334     0.628     1.245
    70   8 o        1.607    -0.669    26.892     6.999
    71   1 h        0.804     0.358     0.570     1.186
    72   1 h        0.803     0.340     0.613     1.230
    73   8 o        1.608    -0.687    27.374     7.061
    74   1 h        0.804     0.343     0.605     1.222
    75   1 h        0.803     0.354     0.578     1.195
    76   8 o        1.608    -0.676    27.078     7.023
    77   1 h        0.803     0.336     0.623     1.240
    78   1 h        0.805     0.321     0.660     1.276
    79   8 o        1.607    -0.665    26.792     6.986
    80   1 h        0.802     0.365     0.555     1.170
    81   1 h        0.805     0.310     0.690     1.305
    82   8 o        1.608    -0.663    26.756     6.981
    83   1 h        0.805     0.312     0.686     1.301
    84   1 h        0.803     0.366     0.552     1.167
    85   8 o        1.608    -0.669    26.897     7.000
    86   1 h        0.804     0.351     0.586     1.203
    87   1 h        0.804     0.333     0.629     1.246
    88   8 o        1.605    -0.666    26.829     6.991
    89   1 h        0.806     0.313     0.682     1.297
    90   1 h        0.801     0.348     0.594     1.211
    91   8 o        1.607    -0.678    27.146     7.032
    92   1 h        0.805     0.348     0.592     1.208
    93   1 h        0.802     0.342     0.609     1.226
    94   8 o        1.607    -0.676    27.086     7.024
    95   1 h        0.803     0.332     0.632     1.249
    96   1 h        0.803     0.341     0.610     1.227
    97   8 o        1.607    -0.698    27.650     7.097
    98   1 h        0.803     0.338     0.616     1.233
    99   1 h        0.803     0.335     0.626     1.243
   100   8 o        1.609    -0.662    26.724     6.977
   101   1 h        0.804     0.342     0.608     1.225
   102   1 h        0.805     0.331     0.635     1.252
   103   8 o        1.607    -0.713    28.051     7.148
   104   1 h        0.804     0.334     0.627     1.244
   105   1 h        0.803     0.332     0.632     1.249
   106   8 o        1.606    -0.692    27.494     7.077
   107   1 h        0.804     0.324     0.652     1.269
   108   1 h        0.803     0.352     0.583     1.200
   109   8 o        1.608    -0.688    27.398     7.064
   110   1 h        0.804     0.346     0.599     1.216
   111   1 h        0.804     0.345     0.600     1.216
   112   8 o        1.607    -0.687    27.380     7.062
   113   1 h        0.804     0.350     0.588     1.205
   114   1 h        0.803     0.352     0.585     1.201
   115   8 o        1.609    -0.673    26.995     7.012
   116   1 h        0.805     0.320     0.665     1.281
   117   1 h        0.803     0.351     0.585     1.202
   118   8 o        1.607    -0.676    27.091     7.025
   119   1 h        0.804     0.337     0.620     1.236
   120   1 h        0.803     0.350     0.588     1.204
   121   8 o        1.608    -0.670    26.919     7.002
   122   1 h        0.804     0.327     0.646     1.262
   123   1 h        0.804     0.354     0.580     1.196
   124   8 o        1.608    -0.638    26.125     6.898
   125   1 h        0.805     0.313     0.682     1.297
   126   1 h        0.803     0.349     0.591     1.207
   127   8 o        1.609    -0.661    26.684     6.972
   128   1 h        0.804     0.335     0.625     1.241
   129   1 h        0.805     0.347     0.596     1.212
   130   8 o        1.608    -0.666    26.830     6.991
   131   1 h        0.805     0.341     0.610     1.227
   132   1 h        0.803     0.350     0.588     1.205
   133   8 o        1.607    -0.682    27.232     7.043
   134   1 h        0.803     0.363     0.559     1.174
   135   1 h        0.805     0.321     0.662     1.278
   136   8 o        1.609    -0.679    27.155     7.033
   137   1 h        0.804     0.339     0.616     1.233
   138   1 h        0.805     0.338     0.617     1.234
   139   8 o        1.608    -0.675    27.061     7.021
   140   1 h        0.804     0.343     0.606     1.223
   141   1 h        0.804     0.339     0.615     1.232
   142   8 o        1.606    -0.689    27.423     7.068
   143   1 h        0.803     0.348     0.593     1.210
   144   1 h        0.803     0.340     0.611     1.228
   145   8 o        1.605    -0.689    27.418     7.067
   146   1 h        0.805     0.346     0.597     1.214
   147   1 h        0.801     0.338     0.618     1.235
   148   8 o        1.606    -0.705    27.857     7.123
   149   1 h        0.805     0.318     0.669     1.285
   150   1 h        0.802     0.359     0.568     1.184
   151   8 o        1.608    -0.670    26.924     7.003
   152   1 h        0.803     0.329     0.639     1.256
   153   1 h        0.804     0.349     0.592     1.208
   154   8 o        1.609    -0.663    26.753     6.981
   155   1 h        0.804     0.341     0.610     1.227
   156   1 h        0.805     0.326     0.647     1.264
   157   8 o        1.609    -0.665    26.792     6.986
   158   1 h        0.804     0.329     0.640     1.256
   159   1 h        0.805     0.348     0.592     1.209
   160   8 o        1.608    -0.673    27.012     7.015
   161   1 h        0.804     0.354     0.579     1.196
   162   1 h        0.804     0.341     0.611     1.228
   163   8 o        1.609    -0.667    26.840     6.992
   164   1 h        0.805     0.325     0.651     1.268
   165   1 h        0.804     0.338     0.618     1.235
   166   8 o        1.606    -0.679    27.172     7.035
   167   1 h        0.803     0.337     0.619     1.236
   168   1 h        0.803     0.338     0.617     1.234
   169   8 o        1.609    -0.681    27.201     7.039
   170   1 h        0.804     0.343     0.605     1.222
   171   1 h        0.804     0.335     0.624     1.241
   172   8 o        1.608    -0.677    27.111     7.027
   173   1 h        0.805     0.323     0.657     1.273
   174   1 h        0.803     0.351     0.587     1.203
   175   8 o        1.607    -0.701    27.747     7.109
   176   1 h        0.804     0.329     0.639     1.256
   177   1 h        0.803     0.350     0.588     1.204
   178   8 o        1.606    -0.683    27.262     7.047
   179   1 h        0.803     0.326     0.648     1.265
   180   1 h        0.803     0.356     0.573     1.190
   181   8 o        1.606    -0.691    27.485     7.076
   182   1 h        0.803     0.347     0.595     1.212
   183   1 h        0.803     0.354     0.578     1.194
   184   8 o        1.606    -0.652    26.461     6.943
   185   1 h        0.805     0.314     0.681     1.296
   186   1 h        0.802     0.337     0.620     1.237
   187   8 o        1.604    -0.673    26.998     7.013
   188   1 h        0.802     0.351     0.586     1.202
   189   1 h        0.805     0.314     0.680     1.295
   190   8 o        1.607    -0.680    27.178     7.036
   191   1 h        0.804     0.350     0.588     1.205
   192   1 h        0.803     0.332     0.633     1.250
   193   8 o        1.607    -0.677    27.102     7.026
   194   1 h        0.803     0.341     0.609     1.226
   195   1 h        0.803     0.345     0.601     1.218
   196   8 o        1.607    -0.687    27.372     7.061
   197   1 h        0.805     0.330     0.638     1.255
   198   1 h        0.803     0.352     0.583     1.199
   199   8 o        1.608    -0.675    27.058     7.021
   200   1 h        0.804     0.350     0.588     1.205
   201   1 h        0.804     0.325     0.650     1.267
   202   8 o        1.606    -0.679    27.172     7.035
   203   1 h        0.804     0.332     0.632     1.249
   204   1 h        0.803     0.352     0.584     1.200
   205   8 o        1.609    -0.679    27.163     7.034
   206   1 h        0.805     0.315     0.677     1.292
   207   1 h        0.804     0.340     0.613     1.230
   208   8 o        1.608    -0.676    27.070     7.022
   209   1 h        0.803     0.349     0.591     1.207
   210   1 h        0.804     0.347     0.596     1.213
   211   8 o        1.607    -0.683    27.274     7.048
   212   1 h        0.803     0.330     0.639     1.255
   213   1 h        0.803     0.352     0.585     1.201
   214   8 o        1.610    -0.663    26.742     6.980
   215   1 h        0.804     0.350     0.589     1.206
   216   1 h        0.805     0.318     0.669     1.285
   217   8 o        1.607    -0.679    27.148     7.032
   218   1 h        0.805     0.338     0.618     1.234
   219   1 h        0.803     0.350     0.589     1.205
   220   8 o        1.608    -0.672    26.974     7.010
   221   1 h        0.805     0.318     0.670     1.286
   222   1 h        0.802     0.356     0.575     1.191
   223   8 o        1.608    -0.671    26.958     7.008
   224   1 h        0.803     0.364     0.556     1.171
   225   1 h        0.805     0.324     0.652     1.269
   226   8 o        1.603    -0.700    27.723     7.106
   227   1 h        0.803     0.350     0.588     1.204
   228   1 h        0.802     0.333     0.631     1.248
   229   8 o        1.608    -0.672    26.974     7.010
   230   1 h        0.805     0.328     0.644     1.260
   231   1 h        0.803     0.346     0.598     1.214
   232   8 o        1.608    -0.665    26.809     6.988
   233   1 h        0.803     0.349     0.590     1.206
   234   1 h        0.805     0.320     0.664     1.280
   235   8 o        1.608    -0.670    26.916     7.002
   236   1 h        0.802     0.358     0.570     1.186
   237   1 h        0.805     0.331     0.636     1.252
   238   8 o        1.606    -0.697    27.621     7.093
   239   1 h        0.803     0.335     0.624     1.241
   240   1 h        0.804     0.346     0.598     1.215
   241   8 o        1.607    -0.660    26.659     6.968
   242   1 h        0.802     0.353     0.582     1.199
   243   1 h        0.806     0.315     0.678     1.293
   244   8 o        1.608    -0.678    27.128     7.030
   245   1 h        0.803     0.336     0.622     1.239
   246   1 h        0.805     0.347     0.594     1.211
   247   8 o        1.607    -0.688    27.387     7.063
   248   1 h        0.804     0.342     0.608     1.225
   249   1 h        0.803     0.342     0.607     1.224
   250   8 o        1.603    -0.687    27.378     7.062
   251   1 h        0.802     0.345     0.600     1.217
   252   1 h        0.802     0.350     0.589     1.206
   253   8 o        1.607    -0.674    27.023     7.016
   254   1 h        0.804     0.334     0.628     1.245
   255   1 h        0.803     0.331     0.634     1.251
   256   8 o        1.607    -0.647    26.344     6.927
   257   1 h        0.806     0.303     0.713     1.326
   258   1 h        0.802     0.346     0.598     1.215
   259   8 o        1.607    -0.668    26.872     6.996
   260   1 h        0.804     0.334     0.626     1.243
   261   1 h        0.803     0.341     0.611     1.228
   262   8 o        1.607    -0.682    27.229     7.043
   263   1 h        0.805     0.311     0.690     1.305
   264   1 h        0.802     0.354     0.579     1.196
   265   8 o        1.608    -0.661    26.685     6.972
   266   1 h        0.803     0.343     0.604     1.221
   267   1 h        0.805     0.322     0.658     1.275
   268   8 o        1.607    -0.665    26.797     6.987
   269   1 h        0.803     0.337     0.619     1.236
   270   1 h        0.804     0.331     0.636     1.252
   271   8 o        1.608    -0.674    27.020     7.016
   272   1 h        0.804     0.339     0.616     1.233
   273   1 h        0.804     0.332     0.633     1.250
   274   8 o        1.608    -0.675    27.065     7.021
   275   1 h        0.804     0.315     0.677     1.292
   276   1 h        0.804     0.345     0.600     1.216
   277   8 o        1.606    -0.683    27.268     7.048
   278   1 h        0.802     0.360     0.567     1.183
   279   1 h        0.805     0.319     0.667     1.282
   280   8 o        1.609    -0.673    27.000     7.013
   281   1 h        0.804     0.340     0.613     1.230
   282   1 h        0.805     0.329     0.641     1.257
   283   8 o        1.610    -0.645    26.281     6.919
   284   1 h        0.806     0.311     0.689     1.304
   285   1 h        0.804     0.341     0.610     1.227
   286   8 o        1.608    -0.689    27.426     7.068
   287   1 h        0.805     0.322     0.659     1.276
   288   1 h        0.803     0.343     0.605     1.222
   289   8 o        1.608    -0.652    26.471     6.944
   290   1 h        0.803     0.341     0.610     1.227
   291   1 h        0.805     0.321     0.660     1.276
   292   8 o        1.608    -0.669    26.898     7.000
   293   1 h        0.802     0.352     0.584     1.201
   294   1 h        0.806     0.319     0.667     1.283
   295   8 o        1.607    -0.698    27.668     7.099
   296   1 h        0.804     0.330     0.637     1.253
   297   1 h        0.804     0.359     0.567     1.183
   298   8 o        1.608    -0.678    27.132     7.030
   299   1 h        0.803     0.347     0.596     1.212
   300   1 h        0.805     0.321     0.661     1.277
   301   8 o        1.610    -0.661    26.685     6.972
   302   1 h        0.804     0.339     0.614     1.231
   303   1 h        0.806     0.315     0.677     1.292
   304   8 o        1.607    -0.677    27.106     7.027
   305   1 h        0.806     0.311     0.688     1.303
   306   1 h        0.801     0.351     0.586     1.203
   307   8 o        1.607    -0.681    27.207     7.040
   308   1 h        0.802     0.366     0.552     1.167
   309   1 h        0.805     0.308     0.698     1.312
   310   8 o        1.606    -0.693    27.528     7.081
   311   1 h        0.804     0.346     0.597     1.214
   312   1 h        0.803     0.352     0.583     1.200
   313   8 o        1.609    -0.669    26.909     7.001
   314   1 h        0.805     0.313     0.684     1.299
   315   1 h        0.803     0.346     0.597     1.214
   316   8 o        1.608    -0.679    27.151     7.033
   317   1 h        0.805     0.323     0.656     1.272
   318   1 h        0.804     0.347     0.596     1.213
   319   8 o        1.608    -0.663    26.751     6.981
   320   1 h        0.806     0.313     0.683     1.298
   321   1 h        0.802     0.351     0.586     1.202
   322   8 o        1.606    -0.671    26.963     7.008
   323   1 h        0.802     0.328     0.642     1.258
   324   1 h        0.804     0.345     0.600     1.216
   325   8 o        1.607    -0.677    27.112     7.028
   326   1 h        0.803     0.350     0.587     1.204
   327   1 h        0.804     0.340     0.612     1.228
   328   8 o        1.607    -0.680    27.180     7.036
   329   1 h        0.802     0.354     0.579     1.196
   330   1 h        0.805     0.323     0.655     1.271
   331   8 o        1.605    -0.683    27.275     7.049
   332   1 h        0.802     0.340     0.613     1.230
   333   1 h        0.803     0.332     0.632     1.249
   334   8 o        1.608    -0.683    27.262     7.047
   335   1 h        0.804     0.336     0.621     1.238
   336   1 h        0.804     0.332     0.632     1.249
   337   8 o        1.609    -0.666    26.831     6.991
   338   1 h        0.803     0.340     0.611     1.228
   339   1 h        0.805     0.335     0.625     1.241
   340   8 o        1.608    -0.677    27.096     7.025
   341   1 h        0.804     0.336     0.621     1.238
   342   1 h        0.803     0.332     0.631     1.248
   343   8 o        1.607    -0.673    26.994     7.012
   344   1 h        0.803     0.329     0.641     1.258
   345   1 h        0.803     0.344     0.603     1.219
   346   8 o        1.608    -0.686    27.330     7.056
   347   1 h        0.803     0.350     0.589     1.205
   348   1 h        0.804     0.322     0.658     1.274
   349   8 o        1.605    -0.702    27.772     7.112
   350   1 h        0.802     0.364     0.557     1.172
   351   1 h        0.805     0.346     0.599     1.215
   352   8 o        1.606    -0.696    27.612     7.092
   353   1 h        0.803     0.348     0.592     1.209
   354   1 h        0.804     0.327     0.646     1.262
   355   8 o        1.607    -0.697    27.641     7.096
   356   1 h        0.804     0.329     0.640     1.257
   357   1 h        0.803     0.350     0.588     1.205
   358   8 o        1.609    -0.681    27.219     7.041
   359   1 h        0.804     0.331     0.634     1.251
   360   1 h        0.805     0.334     0.628     1.244
   361   8 o        1.608    -0.659    26.655     6.968
   362   1 h        0.804     0.333     0.630     1.247
   363   1 h        0.804     0.333     0.629     1.246
   364   8 o        1.606    -0.693    27.539     7.083
   365   1 h        0.803     0.361     0.563     1.179
   366   1 h        0.804     0.330     0.636     1.253
   367   8 o        1.608    -0.652    26.454     6.942
   368   1 h        0.803     0.341     0.611     1.228
   369   1 h        0.805     0.317     0.671     1.286
   370   8 o        1.608    -0.668    26.885     6.998
   371   1 h        0.805     0.330     0.638     1.255
   372   1 h        0.803     0.336     0.621     1.238
   373   8 o        1.607    -0.694    27.558     7.085
   374   1 h        0.803     0.358     0.570     1.186
   375   1 h        0.805     0.326     0.647     1.263
   376   8 o        1.609    -0.650    26.413     6.936
   377   1 h        0.804     0.349     0.590     1.207
   378   1 h        0.806     0.322     0.657     1.274
   379   8 o        1.608    -0.679    27.150     7.032
   380   1 h        0.803     0.360     0.566     1.181
   381   1 h        0.805     0.321     0.660     1.276
   382   8 o        1.609    -0.656    26.558     6.955
   383   1 h        0.804     0.331     0.635     1.252
   384   1 h        0.804     0.335     0.625     1.242
   385   8 o        1.606    -0.700    27.715     7.105
   386   1 h        0.802     0.348     0.593     1.210
   387   1 h        0.804     0.357     0.572     1.188
   388   8 o        1.608    -0.685    27.309     7.053
   389   1 h        0.803     0.345     0.601     1.218
   390   1 h        0.804     0.328     0.641     1.258
   391   8 o        1.608    -0.686    27.337     7.057
   392   1 h        0.805     0.326     0.648     1.264
   393   1 h        0.803     0.351     0.586     1.203
   394   8 o        1.608    -0.687    27.371     7.061
   395   1 h        0.804     0.340     0.611     1.228
   396   1 h        0.803     0.354     0.579     1.196
   397   8 o        1.607    -0.692    27.498     7.077
   398   1 h        0.805     0.318     0.670     1.286
   399   1 h        0.803     0.353     0.580     1.197
   400   8 o        1.605    -0.698    27.647     7.096
   401   1 h        0.802     0.337     0.620     1.237
   402   1 h        0.803     0.350     0.588     1.204
   403   8 o        1.607    -0.664    26.768     6.983
   404   1 h        0.804     0.334     0.628     1.244
   405   1 h        0.803     0.331     0.636     1.252
   406   8 o        1.606    -0.698    27.647     7.096
   407   1 h        0.802     0.356     0.575     1.191
   408   1 h        0.803     0.329     0.640     1.257
   409   8 o        1.606    -0.685    27.328     7.055
   410   1 h        0.802     0.341     0.610     1.227
   411   1 h        0.804     0.326     0.649     1.266
   412   8 o        1.609    -0.675    27.048     7.019
   413   1 h        0.805     0.318     0.670     1.286
   414   1 h        0.804     0.345     0.600     1.217
   415   8 o        1.609    -0.680    27.173     7.035
   416   1 h        0.804     0.340     0.611     1.228
   417   1 h        0.803     0.342     0.608     1.225
   418   8 o        1.608    -0.671    26.961     7.008
   419   1 h        0.805     0.334     0.627     1.243
   420   1 h        0.803     0.339     0.614     1.231
   421   8 o        1.609    -0.670    26.924     7.003
   422   1 h        0.804     0.342     0.608     1.225
   423   1 h        0.805     0.331     0.634     1.250
   424   8 o        1.610    -0.665    26.796     6.986
   425   1 h        0.805     0.331     0.636     1.252
   426   1 h        0.805     0.329     0.640     1.257
   427   8 o        1.607    -0.647    26.347     6.928
   428   1 h        0.805     0.312     0.687     1.301
   429   1 h        0.802     0.341     0.610     1.227
   430   8 o        1.607    -0.680    27.198     7.039
   431   1 h        0.804     0.330     0.637     1.253
   432   1 h        0.803     0.342     0.607     1.224
   433   8 o        1.609    -0.654    26.511     6.949
   434   1 h        0.804     0.323     0.655     1.271
   435   1 h        0.805     0.333     0.630     1.246
   436   8 o        1.609    -0.634    26.010     6.883
   437   1 h        0.804     0.341     0.611     1.228
   438   1 h        0.805     0.333     0.630     1.246
   439   8 o        1.608    -0.683    27.265     7.047
   440   1 h        0.803     0.342     0.607     1.224
   441   1 h        0.803     0.330     0.638     1.255
   442   8 o        1.609    -0.661    26.694     6.973
   443   1 h        0.805     0.332     0.632     1.249
   444   1 h        0.804     0.343     0.606     1.223
   445   8 o        1.608    -0.680    27.180     7.036
   446   1 h        0.803     0.358     0.570     1.186
   447   1 h        0.804     0.340     0.612     1.229
   448   8 o        1.607    -0.678    27.142     7.031
   449   1 h        0.805     0.331     0.636     1.252
   450   1 h        0.802     0.353     0.581     1.197
   451   8 o        1.605    -0.676    27.083     7.024
   452   1 h        0.803     0.355     0.576     1.192
   453   1 h        0.803     0.339     0.616     1.233
   454   8 o        1.606    -0.708    27.938     7.134
   455   1 h        0.803     0.327     0.646     1.263
   456   1 h        0.803     0.357     0.573     1.189
   457   8 o        1.605    -0.685    27.320     7.054
   458   1 h        0.802     0.352     0.584     1.200
   459   1 h        0.803     0.328     0.643     1.259
   460   8 o        1.607    -0.681    27.206     7.040
   461   1 h        0.802     0.359     0.569     1.185
   462   1 h        0.805     0.313     0.684     1.299
   463   8 o        1.606    -0.685    27.320     7.054
   464   1 h        0.803     0.338     0.617     1.234
   465   1 h        0.803     0.341     0.609     1.226
   466   8 o        1.609    -0.652    26.460     6.943
   467   1 h        0.804     0.336     0.621     1.238
   468   1 h        0.805     0.338     0.616     1.233
   469   8 o        1.607    -0.648    26.376     6.931
   470   1 h        0.806     0.300     0.720     1.333
   471   1 h        0.802     0.347     0.596     1.213
   472   8 o        1.604    -0.724    28.349     7.186
   473   1 h        0.802     0.331     0.636     1.253
   474   1 h        0.803     0.356     0.575     1.191
   475   8 o        1.605    -0.690    27.452     7.071
   476   1 h        0.802     0.361     0.565     1.181
   477   1 h        0.804     0.326     0.647     1.264
   478   8 o        1.608    -0.685    27.307     7.053
   479   1 h        0.803     0.353     0.583     1.199
   480   1 h        0.805     0.319     0.665     1.281
   481   8 o        1.607    -0.680    27.197     7.039
   482   1 h        0.802     0.363     0.559     1.175
   483   1 h        0.805     0.326     0.648     1.265
   484   8 o        1.607    -0.689    27.432     7.069
   485   1 h        0.804     0.340     0.613     1.230
   486   1 h        0.802     0.359     0.568     1.184
   487   8 o        1.608    -0.666    26.812     6.989
   488   1 h        0.803     0.347     0.595     1.212
   489   1 h        0.805     0.324     0.652     1.269
   490   8 o        1.607    -0.688    27.400     7.065
   491   1 h        0.804     0.347     0.595     1.211
   492   1 h        0.804     0.344     0.603     1.220
   493   8 o        1.611    -0.688    27.401     7.065
   494   1 h        0.804     0.335     0.624     1.241
   495   1 h        0.803     0.350     0.588     1.204
   496   8 o        1.608    -0.675    27.052     7.020
   497   1 h        0.804     0.343     0.604     1.220
   498   1 h        0.804     0.337     0.619     1.236
   499   8 o        1.607    -0.675    27.047     7.019
   500   1 h        0.804     0.353     0.582     1.198
   501   1 h        0.803     0.329     0.641     1.257
   502   8 o        1.607    -0.690    27.457     7.072
   503   1 h        0.804     0.345     0.600     1.217
   504   1 h        0.803     0.351     0.586     1.202
   505   8 o        1.608    -0.669    26.898     7.000
   506   1 h        0.804     0.350     0.589     1.206
   507   1 h        0.804     0.325     0.649     1.266
   508   8 o        1.609    -0.633    25.994     6.881
   509   1 h        0.806     0.312     0.687     1.302
   510   1 h        0.803     0.332     0.632     1.249
   511   8 o        1.607    -0.667    26.846     6.993
   512   1 h        0.804     0.327     0.645     1.261
   513   1 h        0.803     0.327     0.644     1.261
   514   8 o        1.607    -0.669    26.888     6.998
   515   1 h        0.804     0.325     0.650     1.267
   516   1 h        0.803     0.337     0.620     1.237
   517   8 o        1.608    -0.667    26.853     6.994
   518   1 h        0.805     0.333     0.630     1.247
   519   1 h        0.804     0.350     0.589     1.206
   520   8 o        1.607    -0.676    27.073     7.022
   521   1 h        0.804     0.350     0.588     1.205
   522   1 h        0.803     0.331     0.634     1.251
   523   8 o        1.608    -0.668    26.875     6.997
   524   1 h        0.803     0.353     0.582     1.198
   525   1 h        0.805     0.313     0.682     1.298
   526   8 o        1.609    -0.665    26.796     6.986
   527   1 h        0.806     0.296     0.732     1.344
   528   1 h        0.803     0.332     0.632     1.249
   529   8 o        1.611    -0.638    26.123     6.898
   530   1 h        0.805     0.324     0.654     1.270
   531   1 h        0.805     0.337     0.618     1.235

 Mol. C6AA /au·bohr⁶  :    1429148.593432
 Mol. C8AA /au·bohr⁸  :   25920659.841009
 Mol. α(0) /au        :       1680.361054


Wiberg/Mayer (AO) data.
largest (>0.10) Wiberg bond orders for each atom

 ---------------------------------------------------------------------------
     #   Z sym  total        # sym  WBO       # sym  WBO       # sym  WBO
 ---------------------------------------------------------------------------
     1   8 o    1.825 --     3 h    0.843     2 h    0.807
     2   1 h    0.884 --     1 o    0.807
     3   1 h    0.890 --     1 o    0.843
     4   8 o    1.846 --     6 h    0.829     5 h    0.799
     5   1 h    0.877 --     4 o    0.799
     6   1 h    0.892 --     4 o    0.829
     7   8 o    1.862 --     9 h    0.826     8 h    0.811
     8   1 h    0.877 --     7 o    0.811
     9   1 h    0.884 --     7 o    0.826
    10   8 o    1.808 --    11 h    0.855    12 h    0.832
    11   1 h    0.894 --    10 o    0.855
    12   1 h    0.890 --    10 o    0.832
    13   8 o    1.830 --    14 h    0.849    15 h    0.834
    14   1 h    0.885 --    13 o    0.849
    15   1 h    0.886 --    13 o    0.834
    16   8 o    1.869 --    18 h    0.844    17 h    0.825
    17   1 h    0.885 --    16 o    0.825
    18   1 h    0.894 --    16 o    0.844
    19   8 o    1.812 --    20 h    0.878    21 h    0.832
    20   1 h    0.899 --    19 o    0.878
    21   1 h    0.881 --    19 o    0.832
    22   8 o    1.827 --    24 h    0.843    23 h    0.801
    23   1 h    0.876 --    22 o    0.801
    24   1 h    0.889 --    22 o    0.843
    25   8 o    1.871 --    26 h    0.845    27 h    0.823
    26   1 h    0.886 --    25 o    0.845
    27   1 h    0.890 --    25 o    0.823
    28   8 o    1.875 --    29 h    0.833    30 h    0.822
    29   1 h    0.886 --    28 o    0.833
    30   1 h    0.889 --    28 o    0.822
    31   8 o    1.876 --    32 h    0.860    33 h    0.806
    32   1 h    0.885 --    31 o    0.860
    33   1 h    0.870 --    31 o    0.806
    34   8 o    1.893 --    35 h    0.831    36 h    0.826
    35   1 h    0.887 --    34 o    0.831
    36   1 h    0.876 --    34 o    0.826
    37   8 o    1.851 --    38 h    0.805    39 h    0.793
    38   1 h    0.883 --    37 o    0.805
    39   1 h    0.878 --    37 o    0.793
    40   8 o    1.884 --    41 h    0.821    42 h    0.812
    41   1 h    0.883 --    40 o    0.821
    42   1 h    0.876 --    40 o    0.812
    43   8 o    1.854 --    45 h    0.835    44 h    0.823
    44   1 h    0.882 --    43 o    0.823
    45   1 h    0.881 --    43 o    0.835
    46   8 o    1.864 --    48 h    0.853    47 h    0.796
    47   1 h    0.867 --    46 o    0.796
    48   1 h    0.896 --    46 o    0.853
    49   8 o    1.852 --    51 h    0.805    50 h    0.769
    50   1 h    0.866 --    49 o    0.769
    51   1 h    0.877 --    49 o    0.805
    52   8 o    1.853 --    54 h    0.855    53 h    0.834
    53   1 h    0.887 --    52 o    0.834
    54   1 h    0.882 --    52 o    0.855
    55   8 o    1.863 --    56 h    0.843    57 h    0.836
    56   1 h    0.889 --    55 o    0.843
    57   1 h    0.883 --    55 o    0.836
    58   8 o    1.871 --    60 h    0.813    59 h    0.777
    59   1 h    0.869 --    58 o    0.777
    60   1 h    0.879 --    58 o    0.813
    61   8 o    1.801 --    63 h    0.877    62 h    0.828
    62   1 h    0.880 --    61 o    0.828
    63   1 h    0.898 --    61 o    0.877
    64   8 o    1.877 --    66 h    0.829    65 h    0.807
    65   1 h    0.878 --    64 o    0.807
    66   1 h    0.879 --    64 o    0.829
    67   8 o    1.837 --    68 h    0.833    69 h    0.830
    68   1 h    0.890 --    67 o    0.833
    69   1 h    0.889 --    67 o    0.830
    70   8 o    1.910 --    71 h    0.818    72 h    0.809
    71   1 h    0.872 --    70 o    0.818
    72   1 h    0.884 --    70 o    0.809
    73   8 o    1.878 --    74 h    0.827    75 h    0.788
    74   1 h    0.882 --    73 o    0.827
    75   1 h    0.874 --    73 o    0.788
    76   8 o    1.828 --    78 h    0.860    77 h    0.824
    77   1 h    0.887 --    76 o    0.824
    78   1 h    0.897 --    76 o    0.860
    79   8 o    1.861 --    81 h    0.890    80 h    0.781
    80   1 h    0.867 --    79 o    0.781
    81   1 h    0.904 --    79 o    0.890
    82   8 o    1.852 --    83 h    0.893    84 h    0.798
    83   1 h    0.903 --    82 o    0.893
    84   1 h    0.866 --    82 o    0.798
    85   8 o    1.881 --    87 h    0.829    86 h    0.821
    86   1 h    0.877 --    85 o    0.821
    87   1 h    0.889 --    85 o    0.829
    88   8 o    1.840 --    89 h    0.892    90 h    0.789
    89   1 h    0.902 --    88 o    0.892
    90   1 h    0.879 --    88 o    0.789
    91   8 o    1.862 --    92 h    0.845    93 h    0.800
    92   1 h    0.878 --    91 o    0.845
    93   1 h    0.883 --    91 o    0.800
    94   8 o    1.848 --    95 h    0.835    96 h    0.822
    95   1 h    0.890 --    94 o    0.835
    96   1 h    0.884 --    94 o    0.822
    97   8 o    1.823 --    99 h    0.831    98 h    0.820
    98   1 h    0.885 --    97 o    0.820
    99   1 h    0.888 --    97 o    0.831
   100   8 o    1.829 --   102 h    0.860   101 h    0.851
   101   1 h    0.883 --   100 o    0.851
   102   1 h    0.891 --   100 o    0.860
   103   8 o    1.788 --   104 h    0.825   105 h    0.811
   104   1 h    0.888 --   103 o    0.825
   105   1 h    0.890 --   103 o    0.811
   106   8 o    1.838 --   107 h    0.840   108 h    0.796
   107   1 h    0.895 --   106 o    0.840
   108   1 h    0.876 --   106 o    0.796
   109   8 o    1.832 --   111 h    0.831   110 h    0.825
   110   1 h    0.881 --   109 o    0.825
   111   1 h    0.881 --   109 o    0.831
   112   8 o    1.869 --   113 h    0.826   114 h    0.803
   113   1 h    0.878 --   112 o    0.826
   114   1 h    0.876 --   112 o    0.803
   115   8 o    1.828 --   116 h    0.870   117 h    0.814
   116   1 h    0.898 --   115 o    0.870
   117   1 h    0.876 --   115 o    0.814
   118   8 o    1.865 --   119 h    0.841   120 h    0.811
   119   1 h    0.886 --   118 o    0.841
   120   1 h    0.877 --   118 o    0.811
   121   8 o    1.866 --   122 h    0.828   123 h    0.825
   122   1 h    0.893 --   121 o    0.828
   123   1 h    0.875 --   121 o    0.825
   124   8 o    1.873 --   125 h    0.894   126 h    0.817
   125   1 h    0.902 --   124 o    0.894
   126   1 h    0.878 --   124 o    0.817
   127   8 o    1.853 --   129 h    0.858   128 h    0.851
   128   1 h    0.888 --   127 o    0.851
   129   1 h    0.880 --   127 o    0.858
   130   8 o    1.874 --   131 h    0.844   132 h    0.816
   131   1 h    0.884 --   130 o    0.844
   132   1 h    0.877 --   130 o    0.816
   133   8 o    1.852 --   135 h    0.858   134 h    0.792
   134   1 h    0.868 --   133 o    0.792
   135   1 h    0.897 --   133 o    0.858
   136   8 o    1.836 --   138 h    0.850   137 h    0.835
   137   1 h    0.885 --   136 o    0.835
   138   1 h    0.886 --   136 o    0.850
   139   8 o    1.865 --   140 h    0.829   141 h    0.823
   140   1 h    0.883 --   139 o    0.829
   141   1 h    0.885 --   139 o    0.823
   142   8 o    1.863 --   144 h    0.808   143 h    0.807
   143   1 h    0.879 --   142 o    0.807
   144   1 h    0.884 --   142 o    0.808
   145   8 o    1.850 --   146 h    0.848   147 h    0.790
   146   1 h    0.880 --   145 o    0.848
   147   1 h    0.886 --   145 o    0.790
   148   8 o    1.820 --   149 h    0.865   150 h    0.779
   149   1 h    0.899 --   148 o    0.865
   150   1 h    0.871 --   148 o    0.779
   151   8 o    1.872 --   152 h    0.821   153 h    0.820
   152   1 h    0.891 --   151 o    0.821
   153   1 h    0.878 --   151 o    0.820
   154   8 o    1.827 --   156 h    0.871   155 h    0.844
   155   1 h    0.884 --   154 o    0.844
   156   1 h    0.894 --   154 o    0.871
   157   8 o    1.863 --   158 h    0.835   159 h    0.829
   158   1 h    0.892 --   157 o    0.835
   159   1 h    0.879 --   157 o    0.829
   160   8 o    1.866 --   162 h    0.836   161 h    0.817
   161   1 h    0.875 --   160 o    0.817
   162   1 h    0.884 --   160 o    0.836
   163   8 o    1.818 --   164 h    0.877   165 h    0.843
   164   1 h    0.895 --   163 o    0.877
   165   1 h    0.886 --   163 o    0.843
   166   8 o    1.869 --   168 h    0.818   167 h    0.811
   167   1 h    0.886 --   166 o    0.811
   168   1 h    0.886 --   166 o    0.818
   169   8 o    1.841 --   171 h    0.850   170 h    0.830
   170   1 h    0.882 --   169 o    0.830
   171   1 h    0.888 --   169 o    0.850
   172   8 o    1.829 --   173 h    0.868   174 h    0.820
   173   1 h    0.896 --   172 o    0.868
   174   1 h    0.877 --   172 o    0.820
   175   8 o    1.819 --   176 h    0.849   177 h    0.810
   176   1 h    0.892 --   175 o    0.849
   177   1 h    0.877 --   175 o    0.810
   178   8 o    1.877 --   179 h    0.826   180 h    0.793
   179   1 h    0.894 --   178 o    0.826
   180   1 h    0.873 --   178 o    0.793
   181   8 o    1.880 --   182 h    0.817   183 h    0.787
   182   1 h    0.879 --   181 o    0.817
   183   1 h    0.874 --   181 o    0.787
   184   8 o    1.859 --   185 h    0.885   186 h    0.802
   185   1 h    0.902 --   184 o    0.885
   186   1 h    0.886 --   184 o    0.802
   187   8 o    1.848 --   189 h    0.884   188 h    0.772
   188   1 h    0.877 --   187 o    0.772
   189   1 h    0.901 --   187 o    0.884
   190   8 o    1.862 --   192 h    0.826   191 h    0.809
   191   1 h    0.877 --   190 o    0.809
   192   1 h    0.890 --   190 o    0.826
   193   8 o    1.881 --   194 h    0.822   195 h    0.812
   194   1 h    0.884 --   193 o    0.822
   195   1 h    0.881 --   193 o    0.812
   196   8 o    1.833 --   197 h    0.855   198 h    0.807
   197   1 h    0.891 --   196 o    0.855
   198   1 h    0.876 --   196 o    0.807
   199   8 o    1.856 --   201 h    0.832   200 h    0.824
   200   1 h    0.877 --   199 o    0.824
   201   1 h    0.894 --   199 o    0.832
   202   8 o    1.862 --   203 h    0.838   204 h    0.796
   203   1 h    0.890 --   202 o    0.838
   204   1 h    0.876 --   202 o    0.796
   205   8 o    1.785 --   206 h    0.871   207 h    0.846
   206   1 h    0.901 --   205 o    0.871
   207   1 h    0.885 --   205 o    0.846
   208   8 o    1.871 --   209 h    0.824   210 h    0.817
   209   1 h    0.878 --   208 o    0.824
   210   1 h    0.880 --   208 o    0.817
   211   8 o    1.855 --   212 h    0.842   213 h    0.819
   212   1 h    0.891 --   211 o    0.842
   213   1 h    0.876 --   211 o    0.819
   214   8 o    1.843 --   216 h    0.864   215 h    0.810
   215   1 h    0.878 --   214 o    0.810
   216   1 h    0.899 --   214 o    0.864
   217   8 o    1.866 --   218 h    0.845   219 h    0.795
   218   1 h    0.886 --   217 o    0.845
   219   1 h    0.878 --   217 o    0.795
   220   8 o    1.846 --   221 h    0.884   222 h    0.797
   221   1 h    0.899 --   220 o    0.884
   222   1 h    0.873 --   220 o    0.797
   223   8 o    1.848 --   225 h    0.871   224 h    0.813
   224   1 h    0.867 --   223 o    0.813
   225   1 h    0.895 --   223 o    0.871
   226   8 o    1.873 --   228 h    0.799   227 h    0.787
   227   1 h    0.877 --   226 o    0.787
   228   1 h    0.889 --   226 o    0.799
   229   8 o    1.869 --   230 h    0.844   231 h    0.809
   230   1 h    0.893 --   229 o    0.844
   231   1 h    0.880 --   229 o    0.809
   232   8 o    1.837 --   234 h    0.889   233 h    0.815
   233   1 h    0.878 --   232 o    0.815
   234   1 h    0.898 --   232 o    0.889
   235   8 o    1.868 --   237 h    0.856   236 h    0.795
   236   1 h    0.872 --   235 o    0.795
   237   1 h    0.891 --   235 o    0.856
   238   8 o    1.837 --   240 h    0.813   239 h    0.804
   239   1 h    0.887 --   238 o    0.804
   240   1 h    0.880 --   238 o    0.813
   241   8 o    1.850 --   243 h    0.897   242 h    0.800
   242   1 h    0.875 --   241 o    0.800
   243   1 h    0.901 --   241 o    0.897
   244   8 o    1.849 --   246 h    0.846   245 h    0.824
   245   1 h    0.887 --   244 o    0.824
   246   1 h    0.879 --   244 o    0.846
   247   8 o    1.853 --   248 h    0.821   249 h    0.808
   248   1 h    0.883 --   247 o    0.821
   249   1 h    0.883 --   247 o    0.808
   250   8 o    1.889 --   251 h    0.802   252 h    0.796
   251   1 h    0.881 --   250 o    0.802
   252   1 h    0.878 --   250 o    0.796
   253   8 o    1.835 --   254 h    0.841   255 h    0.833
   254   1 h    0.888 --   253 o    0.841
   255   1 h    0.890 --   253 o    0.833
   256   8 o    1.855 --   257 h    0.905   258 h    0.798
   257   1 h    0.908 --   256 o    0.905
   258   1 h    0.880 --   256 o    0.798
   259   8 o    1.883 --   260 h    0.838   261 h    0.813
   260   1 h    0.888 --   259 o    0.838
   261   1 h    0.884 --   259 o    0.813
   262   8 o    1.808 --   263 h    0.893   264 h    0.793
   263   1 h    0.903 --   262 o    0.893
   264   1 h    0.875 --   262 o    0.793
   265   8 o    1.848 --   267 h    0.871   266 h    0.823
   266   1 h    0.882 --   265 o    0.823
   267   1 h    0.896 --   265 o    0.871
   268   8 o    1.876 --   270 h    0.828   269 h    0.816
   269   1 h    0.886 --   268 o    0.816
   270   1 h    0.891 --   268 o    0.828
   271   8 o    1.833 --   272 h    0.842   273 h    0.841
   272   1 h    0.885 --   271 o    0.842
   273   1 h    0.890 --   271 o    0.841
   274   8 o    1.843 --   275 h    0.850   276 h    0.812
   275   1 h    0.900 --   274 o    0.850
   276   1 h    0.881 --   274 o    0.812
   277   8 o    1.848 --   279 h    0.864   278 h    0.788
   278   1 h    0.871 --   277 o    0.788
   279   1 h    0.898 --   277 o    0.864
   280   8 o    1.814 --   282 h    0.860   281 h    0.851
   281   1 h    0.885 --   280 o    0.851
   282   1 h    0.892 --   280 o    0.860
   283   8 o    1.822 --   284 h    0.900   285 h    0.846
   284   1 h    0.903 --   283 o    0.900
   285   1 h    0.884 --   283 o    0.846
   286   8 o    1.801 --   287 h    0.870   288 h    0.811
   287   1 h    0.897 --   286 o    0.870
   288   1 h    0.882 --   286 o    0.811
   289   8 o    1.871 --   291 h    0.868   290 h    0.812
   290   1 h    0.884 --   289 o    0.812
   291   1 h    0.897 --   289 o    0.868
   292   8 o    1.835 --   294 h    0.891   293 h    0.805
   293   1 h    0.876 --   292 o    0.805
   294   1 h    0.898 --   292 o    0.891
   295   8 o    1.821 --   296 h    0.840   297 h    0.817
   296   1 h    0.891 --   295 o    0.840
   297   1 h    0.871 --   295 o    0.817
   298   8 o    1.825 --   300 h    0.862   299 h    0.813
   299   1 h    0.880 --   298 o    0.813
   300   1 h    0.897 --   298 o    0.862
   301   8 o    1.795 --   303 h    0.896   302 h    0.850
   302   1 h    0.885 --   301 o    0.850
   303   1 h    0.901 --   301 o    0.896
   304   8 o    1.822 --   305 h    0.896   306 h    0.789
   305   1 h    0.903 --   304 o    0.896
   306   1 h    0.877 --   304 o    0.789
   307   8 o    1.818 --   309 h    0.891   308 h    0.788
   308   1 h    0.866 --   307 o    0.788
   309   1 h    0.905 --   307 o    0.891
   310   8 o    1.859 --   311 h    0.831   312 h    0.795
   311   1 h    0.880 --   310 o    0.831
   312   1 h    0.876 --   310 o    0.795
   313   8 o    1.818 --   314 h    0.890   315 h    0.809
   314   1 h    0.902 --   313 o    0.890
   315   1 h    0.880 --   313 o    0.809
   316   8 o    1.813 --   317 h    0.865   318 h    0.828
   317   1 h    0.896 --   316 o    0.865
   318   1 h    0.880 --   316 o    0.828
   319   8 o    1.836 --   320 h    0.898   321 h    0.808
   320   1 h    0.902 --   319 o    0.898
   321   1 h    0.877 --   319 o    0.808
   322   8 o    1.869 --   324 h    0.834   323 h    0.814
   323   1 h    0.892 --   322 o    0.814
   324   1 h    0.881 --   322 o    0.834
   325   8 o    1.877 --   327 h    0.833   326 h    0.811
   326   1 h    0.877 --   325 o    0.811
   327   1 h    0.884 --   325 o    0.833
   328   8 o    1.835 --   330 h    0.876   329 h    0.791
   329   1 h    0.875 --   328 o    0.791
   330   1 h    0.895 --   328 o    0.876
   331   8 o    1.842 --   333 h    0.832   332 h    0.818
   332   1 h    0.885 --   331 o    0.818
   333   1 h    0.890 --   331 o    0.832
   334   8 o    1.814 --   335 h    0.855   336 h    0.840
   335   1 h    0.887 --   334 o    0.855
   336   1 h    0.890 --   334 o    0.840
   337   8 o    1.854 --   339 h    0.864   338 h    0.831
   338   1 h    0.884 --   337 o    0.831
   339   1 h    0.888 --   337 o    0.864
   340   8 o    1.836 --   341 h    0.848   342 h    0.835
   341   1 h    0.887 --   340 o    0.848
   342   1 h    0.889 --   340 o    0.835
   343   8 o    1.875 --   344 h    0.835   345 h    0.810
   344   1 h    0.892 --   343 o    0.835
   345   1 h    0.882 --   343 o    0.810
   346   8 o    1.832 --   348 h    0.849   347 h    0.820
   347   1 h    0.878 --   346 o    0.820
   348   1 h    0.896 --   346 o    0.849
   349   8 o    1.848 --   351 h    0.837   350 h    0.768
   350   1 h    0.867 --   349 o    0.768
   351   1 h    0.880 --   349 o    0.837
   352   8 o    1.818 --   354 h    0.842   353 h    0.808
   353   1 h    0.879 --   352 o    0.808
   354   1 h    0.893 --   352 o    0.842
   355   8 o    1.815 --   356 h    0.844   357 h    0.798
   356   1 h    0.892 --   355 o    0.844
   357   1 h    0.877 --   355 o    0.798
   358   8 o    1.807 --   360 h    0.851   359 h    0.849
   359   1 h    0.890 --   358 o    0.849
   360   1 h    0.889 --   358 o    0.851
   361   8 o    1.860 --   362 h    0.849   363 h    0.844
   362   1 h    0.889 --   361 o    0.849
   363   1 h    0.889 --   361 o    0.844
   364   8 o    1.858 --   366 h    0.839   365 h    0.793
   365   1 h    0.869 --   364 o    0.793
   366   1 h    0.891 --   364 o    0.839
   367   8 o    1.850 --   369 h    0.881   368 h    0.823
   368   1 h    0.884 --   367 o    0.823
   369   1 h    0.899 --   367 o    0.881
   370   8 o    1.830 --   371 h    0.867   372 h    0.829
   371   1 h    0.891 --   370 o    0.867
   372   1 h    0.887 --   370 o    0.829
   373   8 o    1.832 --   375 h    0.852   374 h    0.795
   374   1 h    0.872 --   373 o    0.795
   375   1 h    0.893 --   373 o    0.852
   376   8 o    1.847 --   378 h    0.890   377 h    0.834
   377   1 h    0.878 --   376 o    0.834
   378   1 h    0.896 --   376 o    0.890
   379   8 o    1.836 --   381 h    0.868   380 h    0.813
   380   1 h    0.870 --   379 o    0.813
   381   1 h    0.897 --   379 o    0.868
   382   8 o    1.849 --   383 h    0.857   384 h    0.848
   383   1 h    0.890 --   382 o    0.857
   384   1 h    0.888 --   382 o    0.848
   385   8 o    1.832 --   387 h    0.818   386 h    0.802
   386   1 h    0.879 --   385 o    0.802
   387   1 h    0.872 --   385 o    0.818
   388   8 o    1.825 --   390 h    0.843   389 h    0.820
   389   1 h    0.881 --   388 o    0.820
   390   1 h    0.892 --   388 o    0.843
   391   8 o    1.819 --   392 h    0.866   393 h    0.810
   392   1 h    0.894 --   391 o    0.866
   393   1 h    0.877 --   391 o    0.810
   394   8 o    1.855 --   395 h    0.828   396 h    0.810
   395   1 h    0.884 --   394 o    0.828
   396   1 h    0.875 --   394 o    0.810
   397   8 o    1.825 --   398 h    0.865   399 h    0.803
   398   1 h    0.899 --   397 o    0.865
   399   1 h    0.875 --   397 o    0.803
   400   8 o    1.858 --   401 h    0.802   402 h    0.791
   401   1 h    0.886 --   400 o    0.802
   402   1 h    0.877 --   400 o    0.791
   403   8 o    1.866 --   404 h    0.840   405 h    0.824
   404   1 h    0.889 --   403 o    0.840
   405   1 h    0.891 --   403 o    0.824
   406   8 o    1.854 --   408 h    0.822   407 h    0.794
   407   1 h    0.873 --   406 o    0.794
   408   1 h    0.892 --   406 o    0.822
   409   8 o    1.838 --   411 h    0.846   410 h    0.808
   410   1 h    0.884 --   409 o    0.808
   411   1 h    0.894 --   409 o    0.846
   412   8 o    1.822 --   413 h    0.864   414 h    0.821
   413   1 h    0.899 --   412 o    0.864
   414   1 h    0.881 --   412 o    0.821
   415   8 o    1.845 --   416 h    0.846   417 h    0.830
   416   1 h    0.884 --   415 o    0.846
   417   1 h    0.883 --   415 o    0.830
   418   8 o    1.850 --   419 h    0.853   420 h    0.824
   419   1 h    0.888 --   418 o    0.853
   420   1 h    0.885 --   418 o    0.824
   421   8 o    1.830 --   423 h    0.861   422 h    0.837
   422   1 h    0.883 --   421 o    0.837
   423   1 h    0.890 --   421 o    0.861
   424   8 o    1.819 --   426 h    0.859   425 h    0.848
   425   1 h    0.891 --   424 o    0.848
   426   1 h    0.892 --   424 o    0.859
   427   8 o    1.868 --   428 h    0.882   429 h    0.811
   428   1 h    0.903 --   427 o    0.882
   429   1 h    0.884 --   427 o    0.811
   430   8 o    1.854 --   431 h    0.827   432 h    0.816
   431   1 h    0.891 --   430 o    0.827
   432   1 h    0.883 --   430 o    0.816
   433   8 o    1.845 --   434 h    0.850   435 h    0.848
   434   1 h    0.895 --   433 o    0.850
   435   1 h    0.889 --   433 o    0.848
   436   8 o    1.902 --   438 h    0.868   437 h    0.838
   437   1 h    0.884 --   436 o    0.838
   438   1 h    0.889 --   436 o    0.868
   439   8 o    1.849 --   441 h    0.840   440 h    0.819
   440   1 h    0.883 --   439 o    0.819
   441   1 h    0.891 --   439 o    0.840
   442   8 o    1.842 --   443 h    0.866   444 h    0.848
   443   1 h    0.890 --   442 o    0.866
   444   1 h    0.883 --   442 o    0.848
   445   8 o    1.875 --   447 h    0.835   446 h    0.812
   446   1 h    0.872 --   445 o    0.812
   447   1 h    0.884 --   445 o    0.835
   448   8 o    1.852 --   449 h    0.862   450 h    0.797
   449   1 h    0.891 --   448 o    0.862
   450   1 h    0.875 --   448 o    0.797
   451   8 o    1.858 --   452 h    0.848   453 h    0.806
   452   1 h    0.874 --   451 o    0.848
   453   1 h    0.885 --   451 o    0.806
   454   8 o    1.819 --   455 h    0.830   456 h    0.811
   455   1 h    0.893 --   454 o    0.830
   456   1 h    0.873 --   454 o    0.811
   457   8 o    1.862 --   459 h    0.834   458 h    0.790
   458   1 h    0.876 --   457 o    0.790
   459   1 h    0.892 --   457 o    0.834
   460   8 o    1.826 --   462 h    0.891   461 h    0.786
   461   1 h    0.871 --   460 o    0.786
   462   1 h    0.902 --   460 o    0.891
   463   8 o    1.858 --   465 h    0.828   464 h    0.811
   464   1 h    0.886 --   463 o    0.811
   465   1 h    0.883 --   463 o    0.828
   466   8 o    1.853 --   468 h    0.860   467 h    0.856
   467   1 h    0.887 --   466 o    0.856
   468   1 h    0.886 --   466 o    0.860
   469   8 o    1.850 --   470 h    0.904   471 h    0.805
   470   1 h    0.910 --   469 o    0.904
   471   1 h    0.880 --   469 o    0.805
   472   8 o    1.823 --   473 h    0.812   474 h    0.789
   473   1 h    0.891 --   472 o    0.812
   474   1 h    0.873 --   472 o    0.789
   475   8 o    1.864 --   477 h    0.844   476 h    0.787
   476   1 h    0.870 --   475 o    0.787
   477   1 h    0.894 --   475 o    0.844
   478   8 o    1.822 --   480 h    0.867   479 h    0.803
   479   1 h    0.876 --   478 o    0.803
   480   1 h    0.898 --   478 o    0.867
   481   8 o    1.859 --   483 h    0.865   482 h    0.788
   482   1 h    0.868 --   481 o    0.788
   483   1 h    0.894 --   481 o    0.865
   484   8 o    1.887 --   485 h    0.817   486 h    0.780
   485   1 h    0.885 --   484 o    0.817
   486   1 h    0.871 --   484 o    0.780
   487   8 o    1.852 --   489 h    0.865   488 h    0.817
   488   1 h    0.880 --   487 o    0.817
   489   1 h    0.895 --   487 o    0.865
   490   8 o    1.858 --   491 h    0.824   492 h    0.811
   491   1 h    0.879 --   490 o    0.824
   492   1 h    0.882 --   490 o    0.811
   493   8 o    1.848 --   494 h    0.842   495 h    0.810
   494   1 h    0.888 --   493 o    0.842
   495   1 h    0.877 --   493 o    0.810
   496   8 o    1.841 --   498 h    0.843   497 h    0.838
   497   1 h    0.882 --   496 o    0.838
   498   1 h    0.886 --   496 o    0.843
   499   8 o    1.891 --   501 h    0.824   500 h    0.811
   500   1 h    0.876 --   499 o    0.811
   501   1 h    0.892 --   499 o    0.824
   502   8 o    1.850 --   503 h    0.843   504 h    0.817
   503   1 h    0.881 --   502 o    0.843
   504   1 h    0.877 --   502 o    0.817
   505   8 o    1.852 --   507 h    0.848   506 h    0.830
   506   1 h    0.878 --   505 o    0.830
   507   1 h    0.894 --   505 o    0.848
   508   8 o    1.872 --   509 h    0.891   510 h    0.826
   509   1 h    0.903 --   508 o    0.891
   510   1 h    0.890 --   508 o    0.826
   511   8 o    1.851 --   512 h    0.837   513 h    0.834
   512   1 h    0.893 --   511 o    0.837
   513   1 h    0.893 --   511 o    0.834
   514   8 o    1.852 --   515 h    0.847   516 h    0.818
   515   1 h    0.894 --   514 o    0.847
   516   1 h    0.887 --   514 o    0.818
   517   8 o    1.856 --   518 h    0.852   519 h    0.828
   518   1 h    0.889 --   517 o    0.852
   519   1 h    0.878 --   517 o    0.828
   520   8 o    1.861 --   521 h    0.830   522 h    0.821
   521   1 h    0.877 --   520 o    0.830
   522   1 h    0.890 --   520 o    0.821
   523   8 o    1.833 --   525 h    0.889   524 h    0.802
   524   1 h    0.875 --   523 o    0.802
   525   1 h    0.902 --   523 o    0.889
   526   8 o    1.789 --   527 h    0.904   528 h    0.821
   527   1 h    0.912 --   526 o    0.904
   528   1 h    0.890 --   526 o    0.821
   529   8 o    1.862 --   530 h    0.883   531 h    0.849
   530   1 h    0.895 --   529 o    0.883
   531   1 h    0.886 --   529 o    0.849
 ---------------------------------------------------------------------------

Topologies differ in total number of bonds
Writing topology from bond orders to xtbtopo.mol

molecular dipole:
                 x           y           z       tot (Debye)
 q only:        3.017      -0.650       0.920
   full:        4.176      -0.910       1.013      11.164
molecular quadrupole (traceless):
                xx          xy          yy          xz          yz          zz
 q only:       73.639      -5.060     -11.490      50.182      39.952     -62.149
  q+dip:       91.211      -6.623     -16.199      57.041      43.050     -75.012
   full:       92.729      -7.345     -18.369      56.879      42.517     -74.359


           -------------------------------------------------
          | TOTAL ENERGY             -901.445941506087 Eh   |
          | GRADIENT NORM               0.112809188514 Eh/α |
          | HOMO-LUMO GAP               7.469173909338 eV   |
           -------------------------------------------------

------------------------------------------------------------------------
 * finished run on 2022/11/17 at 06:54:58.931     
------------------------------------------------------------------------
 total:
 * wall-time:     0 d,  0 h,  0 min,  9.755 sec
 *  cpu-time:     0 d,  0 h,  0 min, 14.328 sec
 * ratio c/w:     1.469 speedup
 SCF:
 * wall-time:     0 d,  0 h,  0 min,  9.215 sec
 *  cpu-time:     0 d,  0 h,  0 min, 13.314 sec
 * ratio c/w:     1.445 speedup

