531
 energy: -901.221237293596 gnorm: 0.024765146033 xtb: 6.5.1 (579679a)
o           -0.26961009088623       -3.05689377589055       -0.32154077406854
h           -1.10894754371505       -2.65434338513761       -0.64384735306571
h            0.04919710423576       -3.67882636618909       -0.99581517471108
o           -0.75617313054452       -5.10636370134649        1.34260977463684
h           -0.54084797032178       -4.34156466460233        0.77293507268910
h           -0.05126659294370       -5.76452248638462        1.18833188315002
o            1.73153603095328        2.98783966259717       -0.03929528975418
h            2.05497458704551        2.14021669403673       -0.39999095238990
h            1.58936498024350        2.85508234141372        0.91285578420814
o            3.97307199538982       -1.17057735289726       -0.01484683262271
h            4.31069943006591       -0.64152705318105       -0.74729953636781
h            4.64464589048316       -1.85256121492481        0.15465676565153
o           -5.25527110313125        0.80631393219271        7.04610666868270
h           -4.52517603036767        1.38783728364065        6.78556149625572
h           -4.95066534319203       -0.10113317661700        6.86299827527119
o            0.11255211185786       -5.17556709312596       -1.88517635389866
h            0.13905178849913       -5.09446803935023       -2.85760745467951
h           -0.07555633769030       -6.10037919482457       -1.65169862156026
o           -4.51856272278083       -5.96571367591870        3.04861280495878
h           -3.98683470631293       -6.04181691395796        3.84849629524793
h           -4.94877577856704       -5.09556782754806        3.12679570160507
o            6.36985658862325       -3.43024520035197        4.90694836334788
h            6.50858431725253       -2.97170691889384        4.04839172260192
h            5.42576646281344       -3.35840049241723        5.11111446430576
o           -2.65356599780997       -3.70851954783427        2.70961055461011
h           -1.80877705458696       -4.06085729984568        2.39814220020758
h           -2.83410621976013       -4.18672967616729        3.54701097331885
o            0.79538039110715        2.63316878390219        2.46729044929221
h           -0.13782039201332        2.83227033943028        2.66534845461675
h            1.36135951559685        3.20482746476526        3.02605960615090
o           -1.11813615716267        0.33785031445508       -1.98600295204460
h           -0.53849049864058       -0.03476045217515       -2.65804043279493
h           -1.55885355307435        1.12029056046268       -2.37012863490661
o            2.51402526955604        3.66547364442838        4.16180532067982
h            2.00846300806067        3.39075347931595        4.94666703296254
h            3.30980980802563        3.10732772471112        4.11350829716096
o           -0.72937267583092        2.95651695940287       -0.94259040404904
h            0.09825734568404        3.03901599064917       -0.43142489547354
h           -1.39066817057781        2.50293385218507       -0.38223998063692
o           -4.35040626058193        3.50567758885358        1.56042397482824
h           -4.73364514222647        3.40568812913017        2.45393833563073
h           -5.00756392521306        3.14868458167403        0.93352605459023
o           -0.72285791493535        0.54826509973349       -4.88999680762049
h           -1.58325845031006        0.32512464313600       -4.49514119165399
h           -0.31772179232247        1.24822429759327       -4.35747627812624
o           -0.95507927529049        5.25409034794089       -2.29568564121288
h           -1.08784310517319        4.46387036025514       -1.73511111472123
h           -1.24282287069441        6.02037489354712       -1.77705531433001
o           -3.15513066967604       -0.31866852663475       -3.94964245656398
h           -3.28406185521434        0.11390966383197       -3.07231446005972
h           -3.04197409037440       -1.27806343662477       -3.77929614876784
o           -0.26816437772049       -2.06852066908856       -3.27455323089683
h           -0.20958342745542       -2.85288045771809       -3.84959896334563
h           -1.13527596257257       -2.12084933143367       -2.86320587246036
o            3.23674650850400        1.11154508187418        1.43185591755656
h            3.74414019432955        1.33300234752798        2.23017360919085
h            3.60077484973052        0.30445950095311        1.03419176905095
o            4.95706140939841       -0.85482465149200        2.66825838424696
h            5.39300701765287       -0.49414144575503        1.85918618711041
h            5.04226603229335       -1.82473163270661        2.60197388489647
o           -3.10502096622522        5.54267041966717       -4.09882564032275
h           -2.32587559331213        5.42650879754424       -3.53062235023929
h           -3.05002496192757        4.89815003386384       -4.81102594164700
o            2.09636323220578        0.07189589272958       -4.49664910621413
h            1.79677283350093        0.96568515410641       -4.75935730364074
h            1.40352506038499       -0.53779218340548       -4.81590301459473
o            4.75916261855902        2.33464232589849        3.33627208227029
h            5.06835942657233        3.23484366198082        3.11950440308171
h            5.55737993060257        1.83108592921739        3.57194056370563
o            7.43793906402979       -1.61496081106884       -1.51645006290823
h            7.68581081393327       -0.72939201082900       -1.19226309608517
h            8.28279560364644       -2.08343450840517       -1.69568946917883
o           -5.81292029389409       -0.01843639498978       -0.21328777211193
h           -6.55098518561862       -0.54606381153791       -0.55777359185142
h           -5.21301053895238       -0.62672806795423        0.27352502072321
o            2.42912840573234        0.79277907674844       -1.49761117795598
h            1.87826296884048        1.12970325698958       -2.23339289829245
h            3.35802069205270        0.92310629045697       -1.72849618393515
o           -5.85261306381178       -3.58872381674891        3.55369986349839
h           -5.70728013909542       -2.63210209740104        3.35421597820590
h           -6.16147984255583       -3.60491313124661        4.46329430700869
o           -1.84192313851200       -2.67458787515951       -6.22995361410302
h           -1.90265323337749       -3.54677533144080       -6.62351787468939
h           -2.10829120499894       -2.78781801605465       -5.29208172531597
o           -5.23349515385168        2.26643060852707       -3.51770686873749
h           -6.07514698616546        1.95861976028479       -3.13658933699640
h           -5.23664996945873        2.00606906288255       -4.45517294396192
o            9.40958136030664       -4.00679951696113        2.78402857840615
h            9.96528764995003       -3.78021810178224        3.53040352325975
h            8.76674799874691       -4.69429742457668        3.11418642287491
o            5.14388597906557       -3.78459309667663       -2.75848702057554
h            4.93215931730851       -2.84577524617708       -2.68133276903378
h            4.32533481300827       -4.19040721902625       -3.13395478194097
o           -9.25083596103443       -3.10246046106261       -0.02830664057404
h           -8.98900537322669       -3.84071935786927       -0.61016282179069
h           -8.91996700813175       -3.36106634566992        0.85477214969679
o           -2.61432121955095        1.71629728646707        0.46390173456065
h           -3.08309068745992        1.36329489811729       -0.32089235952845
h           -3.21630603560068        2.35293580000175        0.89371830318334
o           -0.91600627201557       -7.54314209396934       -0.93387722655761
h           -1.65996408089350       -7.40561693372836       -0.32717763284517
h           -0.16482789860756       -7.72401840298828       -0.35372623758232
o            2.32245082852972       -1.44016771988567        2.74124401317544
h            3.26817975228790       -1.22796156057327        2.65758306733718
h            1.92874659225663       -0.71605039806696        3.27358096728674
o            5.56119370724888       -5.50233728530925       -0.77898495852814
h            6.47598194607751       -5.80134808486810       -0.92645362154616
h            5.37703992143407       -4.87821739001337       -1.51675105988054
o            3.95926960567039        0.06146350789765        5.08188721671765
h            3.03374808003752        0.23841426168064        4.84218754715628
h            4.38805454308916       -0.21283874495347        4.25765459148745
o           -5.04702968415153       -2.43773689793396       -1.87286946804044
h           -4.11654525957907       -2.28345456314772       -1.64581209810638
h           -5.53227143303204       -2.57326099996035       -1.03125496362306
o            5.21193144745207        0.75891927218980       -1.63940180760122
h            5.77876056796346        0.47996186457081       -2.36258481820626
h            5.73333189297848        0.67035472560630       -0.81678909942097
o           -2.14139545772739        2.53539338547343       -3.33172811189219
h           -1.41529951139253        3.10793315185535       -3.62930818268364
h           -2.64122702375483        3.06238792958073       -2.67420616809487
o            4.36160557984321       -3.41254204249426        2.40494133557677
h            4.88070389078286       -4.23790672681923        2.38706204103520
h            3.85480263686259       -3.41740175304350        1.57608013427566
o            1.72854128333125       -1.57484222519057        6.10618503938588
h            1.35601429399283       -1.98851586211137        6.88779843707052
h            1.88635809098950       -0.64464006679205        6.37212519111287
o            6.50698590230094        0.05542342805788        6.42553851095744
h            6.61647418314299        0.99261001950838        6.64794804292304
h            5.55948957340692       -0.10518033524192        6.32281134698812
o           -3.05911234838441       -1.30776168106972        3.84852232844521
h           -2.14992145843675       -1.22340311119600        4.16493447268971
h           -3.03549083047584       -2.12110600740998        3.30928127717453
o            0.72467470246677        2.14075931458668       -3.03869580257846
h            0.10383423236656        2.29702162488909       -2.29441671563061
h            1.12017708127318        3.00735065398668       -3.19664909072436
o           -1.35770987523567        8.20291858395750        1.59566107585915
h           -2.12502461324631        7.78487837144169        2.02840295321096
h           -0.58957589990072        7.85466536686702        2.06955824349231
o           -4.04020067136210       -4.16201004206085        0.43496926464468
h           -3.44251934761321       -4.35730584244204       -0.30558248984889
h           -3.52130405730383       -4.14631462971692        1.26007705849400
o           -5.71718995237578       -0.98788209014730        3.07288383300693
h           -6.45815697223123       -0.90544271839586        2.43689091011267
h           -5.92254284262380       -0.31154216239628        3.75282595522376
o            6.94576825069206        3.03431308758548       -2.61865273754891
h            6.00021991051716        2.85443283257431       -2.54097534245575
h            7.24742967260498        2.63201469810923       -3.47985645224903
o           -1.64884639472497        1.23515259770609       -7.24733972401307
h           -2.36520197476327        0.59349311013746       -7.34956006182938
h           -1.19752875229660        0.97887215448299       -6.40404036755205
o           -7.86892390124454       -0.94903606675132        1.50857185343913
h           -8.47940625400543       -1.18629619403884        2.23373868096036
h           -8.19021278363587       -0.11035276316185        1.13672588393805
o            1.70282236811714        0.91689517193293        7.20479762946001
h            1.35648038034975        1.69564249758340        6.74203095139408
h            0.93434490551409        0.52921004830151        7.64414456719881
o           -7.33153030600228        1.38351235054187       -2.07947594827228
h           -8.07779516806596        1.97515331655093       -1.88717324891367
h           -7.61082878098950        0.47869392538810       -1.88816512272151
o           -3.88302075514453        1.26864509869891        3.17823058953335
h           -4.76091119019644        1.30394040232413        2.75614065729346
h           -3.64425794899629        0.33404124750870        3.29616280049157
o            8.55008213724847       -1.85326463425933        5.58044396296268
h            8.10226664839557       -1.18212867642537        6.10752492116188
h            7.87436236733976       -2.53800909423122        5.44410242611233
o            8.12667648653085        1.00171133596420       -1.31561034524162
h            7.67261549665733        1.75359678380622       -1.74769849925388
h            8.69726265359332        1.39022081351956       -0.62154997343433
o           -8.08656121575254        3.98895007471680        3.92869914080707
h           -8.09171755937400        4.16699612089854        2.97145652501674
h           -8.55365634741681        3.14509737980722        4.03500889654395
o            1.05354633415511        0.53182205655905       -7.66270427207670
h            0.16341491683882        0.74692282930284       -7.96876578828142
h            1.26235867608230        1.24503813818924       -7.02689665306507
o           -2.32653354335092       -2.82880336235215        6.62862694721541
h           -3.19688371390241       -2.41076543783615        6.52515322101539
h           -1.76693339266909       -2.50984477394397        5.89260102150178
o            3.10867857248570        5.33093850331111        0.78250707880117
h            3.24104350890538        5.62217811129057        1.70665805266135
h            3.64784465386357        4.52311370765898        0.64620083654729
o           -3.88207073753266        0.86109850600961       -1.72411127994190
h           -4.24590434447720        1.56530274657558       -2.29633864155241
h           -4.66096816336924        0.49164681768667       -1.24776708783586
o           -5.49735727497156        3.54112034946549        4.01513200238790
h           -5.03078859895821        4.21742512571961        4.50961574101097
h           -6.45685481635216        3.78997251447774        4.02028818570942
o           -7.03297893000100        5.17715778467848       -1.53243202022550
h           -6.58687253208933        5.13117441454464       -2.42884793245841
h           -6.75880504283782        6.02350927705637       -1.17374182300385
o           -5.76331378889654        2.98566099919915       -0.61703659235340
h           -6.24253856063583        2.24291579000863       -1.02361765623181
h           -6.25573821071105        3.79418571708645       -0.86700163566193
o            6.40617910475336        0.24011480912301        0.75736225743424
h            7.26173814147712       -0.22995833266489        0.77902891002403
h            6.62004792711150        1.15640036451257        1.03205218194924
o            3.27180771475118        6.07321119964521        3.36064869210906
h            4.23592082070347        6.01093445732328        3.40439826674999
h            2.96104359358311        5.23046734003282        3.75535331558925
o            2.86800972401468       -3.83385710220584        0.10138879359330
h            2.63297223972038       -3.19844354445806       -0.59316324246782
h            2.86722280138731       -4.71429345242150       -0.31793156510321
o            0.51644892878539        5.61972486871822        0.38254632890848
h            0.51008465897597        6.28650524285634       -0.32854547421876
h            1.45630129298856        5.35149596360383        0.47956108700779
o           -0.64044238078155       -0.59042065612238        7.37360595409862
h           -1.25536795723057       -1.32732035465499        7.47601746339703
h           -0.91960777668142       -0.11481581224770        6.57566341312917
o           -4.03682357877558       -1.50024515021161        1.05676498995647
h           -4.34374856709975       -2.41336706539474        0.89699440157947
h           -4.38375476458786       -1.25956256184164        1.93340611002446
o            4.46246549748566       -2.60916016402976       -5.85100166486125
h            4.27898479210850       -1.80757898019803       -6.37735841732758
h            4.29073612131789       -2.32756595345553       -4.93242343308407
o           -6.35934551849875       -2.84793820487663        0.38587638169974
h           -7.00282129259868       -2.24157475463319        0.78922830077748
h           -6.66206705621305       -3.74491084255842        0.55223432356506
o            2.00978799593768       -2.42266090403261       -2.03349717613807
h            2.70506031333230       -1.85588157171686       -2.39326176866046
h            1.16687634204078       -2.17109280147252       -2.47249743230885
o            3.68236239576128       -0.15846544639803       -6.68628791246607
h            3.08865069344391       -0.00503555863256       -7.42695876044841
h            3.12716936317052       -0.03615359504580       -5.88454182694941
o           -7.69825910937806        0.94730825081151       -4.94456849865732
h           -7.11147658361829        0.47859240479763       -4.32116470069500
h           -7.11460425542797        1.32919337698129       -5.61060733136425
o            6.58321505212864       -0.64737802633793       -3.79166350502042
h            6.95672603607546       -1.08465974216856       -2.99160787944734
h            6.83494086507444       -1.24230340314289       -4.54723572922079
o            6.00776959551655       -2.94604548417470        0.26874602246662
h            5.86911571588062       -3.86993226955883        0.01855647447857
h            6.56996214745811       -2.52839762382270       -0.41564468423791
o           -8.92268606937933       -1.44286623883535       -5.26442911378185
h           -8.58561324065187       -0.52260865811408       -5.20963077386590
h           -8.51078788349415       -1.81168285961736       -6.04996992170139
o            1.45905273563321        0.61832762343363        4.11169614352907
h            1.28036204281188        1.30908634334665        3.43540990437275
h            0.64862023882280        0.53417508504083        4.62573409823804
o            4.06355056669567       -1.32190916675703       -3.43636671668404
h            4.94535169998460       -0.92385870478700       -3.60279119784380
h            3.40224090114982       -0.70223961384803       -3.80034953591461
o           -0.33992418196262        5.54824476405008        5.15405339372195
h           -0.03647849631589        5.86978920171828        4.26919799461650
h           -0.05941384468797        6.21128511123513        5.78422211505673
o            3.84641025454148        3.55114262223520       -4.98836162489439
h            3.65266581441658        4.50117764329393       -4.85416425234500
h            4.04519759809819        3.20917430186243       -4.10575892367968
o            1.48317425009561       -3.92980116580470        2.32680398832617
h            1.73956470450832       -3.06346798398036        2.68529175746630
h            1.79517671374860       -3.90886219384708        1.40110313420989
o           -8.01157414880946       -1.21929233437771       -1.42849948956820
h           -8.46505483773687       -1.80539282270083       -0.77669732804049
h           -7.69496598138352       -1.83541697861517       -2.13346960116286
o           -9.03960059683255        3.36962558657592       -1.26700950525035
h           -8.46097422151554        4.11397692391722       -1.50626526575311
h           -9.53667101111582        3.14016066016491       -2.07739558456519
o           -1.87282790354441        7.47909289081176       -0.89839274324950
h           -1.89017949783461        8.28257415086735       -1.41665321006699
h           -1.64551980553350        7.73608964226830        0.02955582805800
o            8.88587895649414       -0.90952972521625        0.80227604296708
h            8.77598302828988       -1.86250858350171        0.65733394361445
h            9.07509891623874       -0.78903374979561        1.76018379949533
o            9.85719209457846       -0.05144233242715       -3.06062686194418
h            9.75153364578123        0.37531294057939       -3.91302272446132
h            9.18762170469927        0.36686549476329       -2.47071708217390
o            5.69055717074658        4.87202398978806        2.94211840693884
h            5.83110816250702        5.18988388249798        2.02631968220427
h            6.56916635233182        4.71039541228329        3.30308717154911
o            6.99077886171596        2.75555151724798        1.29485188366726
h            7.32642279667579        2.94106860343655        2.19539861831739
h            7.52348727489313        3.29269205941352        0.67948214085938
o            1.17006526264493       -6.94431761662647        0.79272346975353
h            1.75645560374135       -6.71775381744632        0.05293134518902
h            1.73241930677100       -6.92214211818412        1.58486167886130
o            7.19502466066660       -2.37457881449371        2.60666614426119
h            8.03970694459947       -2.84568956698533        2.67294254491218
h            6.77922520324321       -2.66143763927970        1.77164040363227
o            2.80263151167991       -6.19387532445049        2.85470215314906
h            2.39400114829162       -5.31203789826488        2.68199298777275
h            2.70942561822729       -6.30742400241572        3.80983936843444
o          -11.07643865416062       -1.63922381901779        1.52684049244412
h          -10.60956840207517       -2.24722441830927        0.93472376747915
h          -11.32129066184398       -0.88741561066836        0.97255889296876
o           -7.41807659327280       -2.12387384875316        5.40196416662143
h           -7.75490484322296       -1.86444729432191        6.25979921003419
h           -8.07468938625423       -1.81259332893278        4.75706996115302
o           -7.99576193207673       -5.10842760145519       -1.35809185770000
h           -7.66379084217607       -5.51486071114735       -0.54783159017391
h           -7.20264841565962       -5.03701336828047       -1.92810776721565
o           -0.21199146663195       -4.51699339722653       -4.45306747495762
h           -1.04142533167936       -4.88509962857458       -4.82876635720100
h            0.47566394006938       -4.59521088867000       -5.12356116285088
o            8.19970655575515       -5.80121209518067       -1.16732984459855
h            8.45956443014667       -4.99846389115736       -0.65687477025716
h            8.75997602437493       -6.51784419199365       -0.87128927276417
o           -3.63166328566497       -0.65257236525620       -6.59386594994064
h           -3.04456708633405       -1.41774773276531       -6.72543324823416
h           -3.48897146250347       -0.42007456622660       -5.65694164056558
o           -4.58626419279977       -6.92163254793134       -1.11318906502154
h           -3.90833295709633       -6.81821218922605       -0.41269230491145
h           -5.42268150119967       -6.90820848137667       -0.62962808138506
o           12.54186599600267        1.03686880300210        1.67897918702916
h           12.18069369441104        0.53538595252855        0.93169285256012
h           13.49394819507126        0.95877004624832        1.63052723252470
o            2.29099719464775       -5.49003762325019        5.46716718187251
h            2.48477132047011       -5.79959411963058        6.35040014682834
h            2.81070440523112       -4.65571747355619        5.33257249405970
o           -6.21875978464149       -5.71508843927065        0.73169540391559
h           -5.40688839736458       -5.16573764513824        0.63163774169855
h           -6.16995464986963       -6.07904113480431        1.61757183092654
o           -2.44487245097169       -1.73763676878708       -1.08651332389628
h           -2.90384578858970       -1.54467346408956       -0.25119236259505
h           -2.05945313702994       -0.87980536267441       -1.38019429574953
o           -8.31191079114539       -3.79468187484062        2.41730702072953
h           -8.86668972717432       -3.36120466355715        3.06887122167918
h           -7.40027665262385       -3.78389764984130        2.77252350987334
o            7.76063927209062       -4.22763133377258       -3.47945611298603
h            7.99270761736001       -4.97510472692457       -2.91462047818981
h            6.83448162751684       -4.02102818054083       -3.25641460927943
o            6.70736597331047        2.79901877611519        6.16137980016528
h            6.98113339971090        3.52774397290612        6.71731631008733
h            5.72235835289623        2.81653820348970        6.13745211118544
o           -6.44145426128081        1.00069528195829        4.69601571541771
h           -6.18230985242349        0.93426537132179        5.64358966750437
h           -6.06413048768784        1.83893773418886        4.38291888806563
o           -2.02804609994359        4.77948330087361        0.83277955883691
h           -1.94964337931773        4.08773489435171        1.52073274621062
h           -1.12600118243292        5.06751914355019        0.61919039535320
o          -10.20244364094741       -0.47678937696486       -2.76619800366042
h           -9.37999810805138       -0.74275271068971       -2.29177247787632
h          -10.19172246864204       -0.95003191995909       -3.60340984878627
o           -9.45304231017444       -1.29356096018728        3.64052040064313
h           -9.42463231521034       -0.31906419379798        3.77179174026428
h          -10.22407948033985       -1.45537622547468        3.05943968265414
o           -9.82274384367487        2.14482420350943       -3.50538784678044
h           -9.08652058377924        1.99234850365590       -4.11558424266803
h          -10.11492434356710        1.25168082497250       -3.25475420933357
o            7.16105222121859       -2.44400769565201       -5.58525298301675
h            6.25205020515289       -2.66691061897197       -5.86380360587366
h            7.50320522147457       -3.20790687887992       -5.10612458406854
o           -2.72583819830486       -5.02771057414381        5.04287692333675
h           -1.78866513135278       -5.22178137113862        4.88357812121617
h           -2.71838448919617       -4.36373321184587        5.76020251818519
o           -2.52315744720875       -4.67270012488057       -1.80360131316731
h           -2.78708812582239       -5.49647452105328       -2.25683441021730
h           -1.55598676444005       -4.76471617824381       -1.69704530065336
o           -4.43105452920002        6.47651743692765       -1.22086805973135
h           -4.16216688744661        5.61309247053379       -1.58721820884253
h           -3.59135893500448        6.94299746564930       -1.09167943711704
o            4.11746553199386        3.32600490952329       -2.24907457933760
h            4.28755911781311        3.12839479795646       -1.29095717072864
h            3.21619257791112        3.67792556727287       -2.26768795881082
o            2.09199092471140       -3.91930021907889       -5.88436420326594
h            1.59593966343337       -3.07754399177453       -5.99267375771745
h            3.01021554832109       -3.67699713735907       -6.09577470525191
o           -2.85311726819617       -6.70602340253476        0.93820464625587
h           -3.47130250154295       -6.59371577095422        1.68139649880492
h           -2.12685452487686       -6.07070709907775        1.11440396350872
o            5.59752145577846        1.88239142015750       -6.36320499494032
h            5.04427194550724        1.11231727440250       -6.56527117629329
h            4.99617690936952        2.56778572766814       -6.04027749050072
o            9.73034720894714       -2.67767600657282       -2.32501887869147
h            9.24372306129469       -3.22617782278452       -2.96320116298266
h            9.95451790784886       -1.84187278671670       -2.77059722325192
o           -5.63818742880534       -4.91865108176187       -2.68197739987427
h           -5.38949550437825       -4.02165303308301       -2.36606544828344
h           -5.14467332299209       -5.56652070475441       -2.15201715474237
o           -7.59286591645599        4.14098614621140        1.27753457617405
h           -6.93651647315021        4.86625650112290        1.21233011902354
h           -8.22113331916730        4.26550860765870        0.56388157498485
o           -5.23277125191892        1.68773727221694       -6.16940375722099
h           -4.84638680546658        0.90146800106453       -6.56962339028972
h           -4.55324905716284        2.38842550870886       -6.24528359398082
o           -4.68475512956204       -1.60763613204807        5.93179116726582
h           -4.22153579253836       -1.42717460459076        5.08483982294366
h           -5.60481134610200       -1.80513343412509        5.70612247360279
o          -11.33791686360129        0.38262950540054       -0.43166290425172
h          -11.05121365210083        0.00224925069121       -1.28191088656805
h          -12.05289684466779        0.98842063849711       -0.62716986971276
o            3.22268347760880        5.96321861895009       -3.99513895694298
h            2.66837639693572        5.59109199687502       -3.28115476778435
h            4.03461634418023        6.26341775889844       -3.57187268651204
o            7.97299954268835        3.40028124413193        3.70809043267444
h            8.86059444773995        3.03004873758100        3.59381012867675