612
 energy: -1033.480902668253 gnorm: 0.000687279760 xtb: 6.5.1 (579679a)
H           -1.40487776220000       -0.13011763440000       -0.53293480070000
C           -0.94677825540000        0.34153425850000       -1.39882871820000
H           -1.56510326100000        0.16739143840000       -2.27383945480000
C            0.43681020220000       -0.24414167260000       -1.58769513530000
H            1.06162006390000        0.43434481250000       -2.15993123600000
H            0.36884590240000       -1.19475562240000       -2.10242428170000
O           -0.91062209980000        1.74374111540000       -1.20521331130000
H           -0.35175517030000        1.94020027020000       -0.41869824350000
N            1.06504680200000       -0.44429314420000       -0.27266689700000
H            1.02656090680000        0.42053529680000        0.28699580220000
H            2.05572806890000       -0.74103224480000       -0.44995419690000
H            0.55335522080000       -1.19981445240000        0.21982460920000
O            2.93772683790000        5.93644094510000        3.41667110810000
H            3.17982989000000        6.07908179400000        4.33251928010000
H            3.77384150550000        5.74619259230000        2.93547135320000
O            2.90054550280000        3.16367128000000       -3.63831996230000
H            2.55613307330000        2.76920612300000       -2.81101874240000
H            2.59861065790000        4.08221968660000       -3.66841218840000
O            8.35830948700000        4.63002523860000        0.28893850910000
H            8.12098349170000        5.34791903220000       -0.30596431120000
H            7.53097670900000        4.10351574200000        0.38723588820000
O           -2.74108643030000        0.22179457100000        4.00384635400000
H           -2.81225392620000        0.68145567510000        4.85012736260000
H           -3.55157363080000        0.48600910600000        3.51971102970000
O           -3.85456263050000        4.96257305400000       -0.32167436870000
H           -4.34561099350000        4.48413103260000        0.36343100310000
H           -4.40653122150000        4.96205970100000       -1.13049818300000
O           -1.34366182660000       -4.36927494960000       -4.59241466580000
H           -0.64041892540000       -4.20343192060000       -5.24154331660000
H           -2.18492860980000       -4.20188133180000       -5.06154694960000
O            3.21063911980000        1.15604324540000        0.93689962240000
H            3.04213172860000        0.29755293980000        1.35107335720000
H            3.42615081550000        1.78006665460000        1.64450676070000
O            4.66422343110000        6.92552053290000       -0.02246540320000
H            4.91077424600000        7.83389957060000        0.14981527420000
H            4.83796571420000        6.42755701380000        0.80906268830000
O            2.87523159690000       -1.45700731980000        1.69378455950000
H            2.66876403620000       -2.29840634380000        2.12580059860000
H            3.72272499340000       -1.60440041380000        1.24879893460000
O            0.99414108580000       -2.35836912940000       -3.85172427200000
H            1.96987020930000       -2.31579536660000       -3.76577058210000
H            0.81284196250000       -2.80140718440000       -4.70160346060000
O            4.32405773050000        3.96607737970000       -1.27583699670000
H            4.51180996780000        4.45256233590000       -2.09005619790000
H            4.33951006200000        3.01089133260000       -1.49766370420000
O            7.26824283820000        3.12049293740000       -2.05234113040000
H            7.15020984460000        4.06967244700000       -1.88710163520000
H            6.52525109820000        2.85104226860000       -2.63242426740000
O           -2.65123922520000       -0.51899313990000        1.34630828520000
H           -2.88145676720000        0.39403560910000        1.07077437960000
H           -3.41518181620000       -0.86636992310000        1.84301663770000
O            0.40051960200000        1.58832069920000        5.66259472530000
H            0.95923677040000        1.52952700280000        4.85663012230000
H           -0.04714969540000        0.71607391230000        5.68526194710000
O           -1.57527597600000        2.28466848270000        2.63113988200000
H           -1.85152505710000        1.43291663810000        3.01104818890000
H           -1.40952486420000        2.86877827990000        3.39084342820000
O            3.23786659300000        0.42022650490000       -3.47985430150000
H            3.67079536550000        0.88434942300000       -4.21911490200000
H            3.65929419650000        0.71294986670000       -2.64731285840000
O           -1.65362162070000       -5.15369237860000        4.77224911660000
H           -2.21001223880000       -5.35771993370000        5.52862163680000
H           -1.89109424370000       -4.24407028130000        4.51380244640000
O            0.69803899630000       -4.88234723290000        1.03635541780000
H            1.26121844230000       -4.40334494920000        0.39551384770000
H            1.27395294330000       -5.55620643710000        1.43928807430000
O            2.09106891990000       -1.52573385120000        4.49608480090000
H            1.51573574900000       -2.13790558630000        4.00500016070000
H            3.00747449230000       -1.83238860160000        4.37331262270000
O           -0.55785912190000       -0.83401139160000        5.22754191450000
H           -0.16273847750000       -1.70702915110000        5.40339012560000
H           -0.53394492670000       -0.69199477550000        4.25591481330000
O            3.92472546510000        3.06945725300000        2.84281066220000
H            4.88745781390000        2.91001127730000        2.87149205110000
H            3.78082168080000        3.46913869990000        3.72456923230000
O           -1.78584062500000        5.64480038100000       -2.62419529990000
H           -2.10782461100000        4.77847900090000       -2.33216870170000
H           -1.24682831420000        6.03418641480000       -1.90959449900000
O           -4.76429659270000        3.64114370360000        1.89830612640000
H           -4.17517019430000        4.18035756500000        2.46561657500000
H           -4.87944355420000        2.77692423120000        2.36618794730000
O           -3.16423246270000       -2.04099547010000       -0.74119044330000
H           -2.77504070120000       -1.58806314480000        0.03261121940000
H           -2.44813219610000       -2.22099195780000       -1.37303994580000
O            3.31322693590000       -1.42810769600000       -1.21916385970000
H            4.15288238450000       -1.40078878500000       -0.74519803900000
H            2.99259615530000       -2.34515925250000       -1.16004270380000
O            9.17116955900000       -0.67618404400000       -2.99295406940000
H            9.15448280450000       -1.04209888950000       -3.90181001160000
H            9.18735324060000        0.29515996090000       -3.10689063200000
O           -3.14314164450000        1.89872172670000        0.37804631120000
H           -3.80250467900000        2.39775877740000        0.87634280770000
H           -2.32972921200000        2.42604539480000        0.44371734270000
O            1.96762798400000        2.22327933210000       -1.36436679540000
H            1.50383251860000        3.06831518440000       -1.21542294940000
H            2.39034632620000        1.97212418190000       -0.53532514670000
O            1.89812465080000       -1.36050404810000        7.17917560610000
H            1.88720695860000       -1.37959380760000        6.19479298160000
H            1.21299336470000       -1.97486196520000        7.44928570130000
O           -2.17803072910000       -4.46038455050000        1.11425478010000
H           -3.09995497630000       -4.15546521390000        1.23395670700000
H           -2.08363700500000       -5.28386291680000        1.62808114130000
O           -0.15580571840000       -1.14849083280000       -7.17309642880000
H           -0.57525374090000       -0.94913730000000       -6.30354045970000
H           -0.49995926830000       -0.43862386470000       -7.74490922470000
O            2.29728431550000        6.73505807910000       -1.45147077450000
H            3.12154840060000        6.75386496770000       -0.93392941090000
H            1.69726964400000        7.39233761700000       -1.09053820570000
O           -2.54442214900000        4.06669582140000       -6.86149114630000
H           -3.06375164940000        3.28990775400000       -7.11529264940000
H           -1.61892803670000        3.78576406070000       -6.85473550510000
O            6.76196742110000       -5.00927640290000       -4.13296250070000
H            6.53482002100000       -4.12737650540000       -4.49092989350000
H            7.72731214500000       -5.01729610510000       -4.07940071090000
O           -2.45865551720000       -4.70566057360000       -1.54473672850000
H           -2.38392738450000       -4.68369728190000       -0.56419803360000
H           -1.57969361350000       -4.42412634300000       -1.86464503990000
O          -11.06356995550000       -1.75678622970000        2.84802638060000
H          -11.69708376690000       -1.33457739020000        2.24035052800000
H          -10.67418195050000       -2.49386412410000        2.34085106140000
O           -9.96933434730000       -3.64990119770000        1.22442550440000
H           -9.11061563290000       -3.18411032170000        1.05704458880000
H           -9.73208451920000       -4.55955593380000        1.41304564900000
O            0.27435188360000       -3.02843047050000        2.98014105280000
H            0.35601572660000       -3.69317117850000        2.26847213040000
H           -0.66778527140000       -2.99556470540000        3.22004475310000
O           -0.30287002590000        3.14857784410000       -3.40328700150000
H            0.16437479190000        3.85131594270000       -2.92561743420000
H           -0.60433679430000        2.56708844690000       -2.68361457830000
O           -0.39667692610000        5.52516527850000       -4.89377582750000
H           -0.89337097180000        6.03651880950000       -5.53271215650000
H           -0.94087732470000        5.50537024000000       -4.06943566350000
O           -7.12967074140000       -0.60472235620000        3.16191612040000
H           -7.80195001360000       -1.05349135300000        3.69540411730000
H           -7.39694796770000        0.32423677410000        3.06444916150000
O            7.81508060630000        2.00751442130000        5.67462667400000
H            8.68246377410000        1.74177865990000        5.32223683520000
H            7.42286374660000        1.20578542000000        6.04619698580000
O           -5.33465403610000       -5.87400584550000       -0.61094501710000
H           -4.56789142530000       -6.42499160050000       -0.33296567240000
H           -5.27922688960000       -5.79393704470000       -1.56617511720000
O            2.50941684200000        4.11741447730000        0.78797382560000
H            3.08844732340000        4.17419731490000        0.00843489110000
H            3.08308839220000        3.86072434220000        1.53358056030000
O            6.10146719570000       -0.10671565190000       -3.86134073810000
H            5.71073475780000        0.79048591620000       -3.85005040490000
H            6.45539418600000       -0.23784878230000       -2.96535249230000
O            0.96517230610000       -5.51639588520000        4.03398318910000
H            1.37002301400000       -6.36611265730000        4.20866003350000
H            0.01531684940000       -5.60793627980000        4.18773527350000
O           -4.17304553080000       -4.59318165520000        6.01536483870000
H           -4.21022779050000       -4.52643427660000        5.03859300170000
H           -5.06600350240000       -4.39511095570000        6.30644863880000
O            5.01672367840000       -3.51701638340000       -2.06267252710000
H            5.01336087640000       -3.69420248170000       -1.11493033160000
H            5.91004163760000       -3.18860192940000       -2.27935022450000
O            2.73590446200000        4.07436560250000       -6.40163384930000
H            2.62274939140000        4.71250189500000       -5.68841971280000
H            1.83053066800000        3.81103427360000       -6.65200024610000
O            6.02974431460000        3.43770012870000        0.69888272930000
H            5.46077084180000        3.62702095260000       -0.07461414700000
H            5.92284481280000        2.49302367500000        0.92639650980000
O            2.32170606700000       -0.73054869690000       -6.34179788710000
H            1.44032615510000       -0.83680812230000       -6.76979785950000
H            2.19311639220000       -0.95938465130000       -5.41556161000000
O           -1.77628669810000       -2.19052829930000       -3.04488170330000
H           -2.63180250020000       -1.89107532790000       -3.41602832240000
H           -1.56174789590000       -3.01732003520000       -3.51350229100000
O            0.66002084620000       -3.58729842980000       -6.23792421390000
H            0.39530272990000       -2.85805127220000       -6.81903555410000
H            1.62955611010000       -3.71568493560000       -6.33775875970000
O            1.54772612810000        4.36363069100000        6.21956969530000
H            1.31627872660000        3.65758209530000        6.82521977500000
H            1.10188266220000        4.17074758570000        5.37292587630000
O           -1.27603465840000        1.14584201290000       -8.03193648710000
H           -0.78179071220000        1.88240739050000       -7.65722789710000
H           -2.19796788360000        1.24257765190000       -7.73910160320000
O            4.64826077060000        1.30898287940000       -1.34129634060000
H            4.22333775770000        1.12481178320000       -0.48507673110000
H            5.50253223600000        0.83889706130000       -1.33987480830000
O           -3.69473146760000        1.51076652310000        6.31876978750000
H           -4.62012022860000        1.33095399420000        6.07903089290000
H           -3.36523479160000        0.70675815120000        6.77283219300000
O            4.02956122480000        4.05718903680000        5.32950309200000
H            3.16588779650000        4.24347605420000        5.75880501060000
H            4.35649230560000        3.23254206710000        5.73178568290000
O            0.97463922590000        1.28446629070000       -4.65204000390000
H            1.78539435190000        1.00169489200000       -4.19073687500000
H            0.59639668330000        2.01914376770000       -4.10994149610000
O           -3.64843832380000       -3.66643015910000       -5.81980774930000
H           -4.16711211990000       -4.44365316540000       -5.48216549090000
H           -3.68885194700000       -3.71555531450000       -6.77417511890000
O           -1.02639179660000       -0.34024340050000       -4.80308092350000
H           -0.22194101230000        0.22322737420000       -4.70015625040000
H           -0.98750666440000       -1.04473104640000       -4.12864574000000
O           -0.65596296070000       -6.71050166120000       -0.46204745270000
H           -0.54736074780000       -6.59205037130000       -1.41871852230000
H           -0.28387090600000       -5.92672725230000       -0.00641990020000
O            9.18025959430000       -4.92037757900000        2.02994039810000
H            8.39586672620000       -5.41124064540000        1.76701628000000
H            9.12015251700000       -4.77769324550000        2.99342957940000
O            2.52431992280000       -3.95902970430000       -0.68298105160000
H            2.47178651970000       -4.68516566350000       -1.31485422890000
H            3.30436477730000       -4.13710973010000       -0.11451572120000
O           -4.88043158520000        1.23909412800000        2.88551374110000
H           -5.58912469850000        1.21493236080000        3.55065909120000
H           -5.24107250580000        0.85436476230000        2.05552208760000
O            8.96652339160000        3.67785106540000        2.74336555750000
H            8.84980701670000        4.18272345740000        1.91993269800000
H            9.90866112800000        3.52481529330000        2.85168916960000
O            9.17061241650000        1.96314910180000       -3.61289258030000
H            8.78120178190000        1.77880528500000       -4.48412074160000
H            8.49936076890000        2.45906245220000       -3.10503474450000
O           10.96241130500000        3.82926425000000       -0.01067070800000
H           11.08774046340000        3.33524441430000        0.81301794770000
H           10.04119209860000        4.14081171750000       -0.00368298330000
O           -3.96771117480000        0.25902342480000       -1.84571461480000
H           -3.68701697960000        0.81958087790000       -1.11270084450000
H           -3.85537436360000       -0.65563272190000       -1.53629468030000
O            5.53450709030000        3.88859977360000       -6.18921842280000
H            5.94919772320000        3.34827701090000       -6.86695605350000
H            4.60099020770000        3.96514679770000       -6.44310853750000
O           -0.23861625750000       -0.44998723280000        2.52287467550000
H            0.09503361420000       -1.35843978180000        2.43665171810000
H           -1.11991824280000       -0.45388225910000        2.10423583470000
O           -8.42157051910000        0.20525730460000        0.70107739720000
H           -8.83081666610000        0.46883252980000        1.54953510100000
H           -9.10934996180000        0.29474252450000        0.02036125010000
O           -8.50079525020000        1.13062434090000       -4.61729397730000
H           -7.72587506740000        1.03442225880000       -4.03778459090000
H           -8.85870679490000        0.23225968490000       -4.76435877500000
O            6.37435594390000       -6.35973485260000        1.25302721560000
H            6.37810079930000       -6.21014513530000        2.21789131330000
H            5.81242077570000       -7.11614216700000        1.07827923510000
O            7.52164939540000       -3.95681933230000       -0.01438569620000
H            7.05624753740000       -4.75410238960000       -0.31883106870000
H            7.48380382510000       -3.33324204270000       -0.77526759140000
O           -6.23761848120000        1.26735907420000        5.29892567490000
H           -7.17435424340000        0.99585026830000        5.39609024190000
H           -6.28509261910000        2.24482316890000        5.24343099450000
O            1.21401013580000        3.80493228970000        3.54322781240000
H            1.68311541150000        2.98333251200000        3.36599637380000
H            1.84519370320000        4.53645716990000        3.42218491610000
O           -6.80520027910000        5.08342007790000        2.81943786600000
H           -6.21206954850000        4.46993978760000        2.32448746000000
H           -6.44947742790000        5.96519694370000        2.65928346820000
O           -1.38965123690000        4.07087482340000        0.23309490400000
H           -1.23267637750000        4.42349282140000        1.13192027470000
H           -2.23800485110000        4.45070082260000       -0.05467572150000
O           -0.86792091980000        5.27291426740000        2.55747837390000
H           -0.40396762700000        4.67608218940000        3.16864752530000
H           -0.16849701340000        5.84038605740000        2.17751340920000
O            2.99413339700000       -3.91373489490000        2.93978611500000
H            3.30693862180000       -3.88074671540000        3.86220452270000
H            2.20515991840000       -4.47164542650000        2.99398498920000
O            6.59468871630000       -3.05655181430000        2.37501182130000
H            7.17761847800000       -2.37846792660000        2.77158743400000
H            7.05502228800000       -3.42207934840000        1.59103552990000
O           -4.08421707190000       -1.46908273980000       -4.16802980960000
H           -4.07576078980000       -1.92471489510000       -5.01866335230000
H           -3.98456296600000       -0.51154208920000       -4.31493367370000
O           -7.47759137020000        2.11491111870000        2.85787217750000
H           -7.50859434470000        2.57247482040000        2.00261249710000
H           -8.12170222470000        2.54566019660000        3.43585503920000
O            5.82855131220000        1.07474594500000       -7.45696803790000
H            5.06319887570000        1.27604214520000       -6.87401353810000
H            5.68932719930000        0.15688027690000       -7.71464589040000
O           -3.69343169330000        4.54912251450000       -4.51429192180000
H           -3.21120421790000        4.51439411120000       -5.36734535040000
H           -3.22010384830000        3.96593519770000       -3.90084644700000
O            6.67710911840000       -3.19569031870000        5.75426332520000
H            6.21077367440000       -3.52306637110000        6.52490042410000
H            5.98370734240000       -2.79815962350000        5.18496755370000
O            4.45168197420000       -2.20582739250000        7.15944898070000
H            4.95402876930000       -1.48103115410000        6.76327137570000
H            3.57125210880000       -1.84498762660000        7.36871931560000
O           -0.60318501360000       -6.60752797720000       -3.25094352000000
H           -1.41619781950000       -7.12384335470000       -3.30872002220000
H           -0.82365437150000       -5.77315286700000       -3.71485429780000
O            5.41890339090000        2.47642755010000       -3.86267946460000
H            5.65623814140000        2.85377792710000       -4.72515846060000
H            4.47317035190000        2.74010320460000       -3.74124220720000
O            6.38994370640000       -5.91236390700000       -1.61282448560000
H            6.46589881020000       -5.52282089280000       -2.51411249210000
H            6.97616156740000       -6.66754626990000       -1.59061310800000
O            4.54210503810000        0.52207910810000        3.82278741370000
H            4.70022210700000        0.96222756830000        4.68208496560000
H            3.62154592350000        0.74578796930000        3.59877935530000
O           -0.52750705710000       -2.50956948140000        0.21452649150000
H           -0.23630539730000       -3.00438278850000       -0.56643548770000
H           -1.07523666970000       -3.13621121210000        0.71104370370000
O            5.91709519130000        0.87598304680000        1.56603047140000
H            5.46251422080000        0.86953289570000        2.43410824940000
H            6.87526086880000        0.92455028420000        1.78218867130000
O           11.71487141840000        0.25320463610000        0.50836586030000
H           11.17296881160000       -0.50163755080000        0.22391061480000
H           11.80212797890000        0.78311944280000       -0.29713590850000
O           -6.80310813000000       -3.34615924170000        5.42924166320000
H           -7.66646246950000       -2.91122106630000        5.43210742730000
H           -6.14139566790000       -2.62437281800000        5.42852448790000
O           -1.94217333930000       -3.50367002370000        7.23579535410000
H           -2.18922405850000       -2.56671530520000        7.32032208600000
H           -2.75415069550000       -3.93491140350000        6.92036076080000
O          -10.77612774610000        1.59066655900000       -3.33212694700000
H           -9.89273351780000        1.55669406660000       -3.78405946230000
H          -11.39260053040000        1.21576488760000       -3.96108317750000
O           -4.66285621020000       -3.50041786510000       -2.46232981210000
H           -3.81662059970000       -3.88851488430000       -2.15328699850000
H           -4.44733973520000       -2.81014197410000       -3.11068029630000
O           -3.61467858600000        4.13762297300000        6.15850992520000
H           -3.64287208580000        3.15594667260000        6.26380249430000
H           -3.61962743730000        4.51046301190000        7.04006459640000
O           -9.45635898160000        4.82004418530000        2.30196252950000
H           -8.48270045740000        4.88229462950000        2.39190272580000
H           -9.71021445320000        5.45891130750000        1.63536217490000
O           -5.97528579870000       -1.77920729840000       -0.87556186000000
H           -6.60035907290000       -1.32615921200000       -1.47985219260000
H           -5.45766964440000       -2.40215064410000       -1.41539364710000
O           -5.40326581430000        2.60603524030000       -1.12606683220000
H           -5.80269420010000        2.24954859160000       -1.95164195830000
H           -5.35054438170000        1.81616927160000       -0.54795260680000
O           -2.78303383850000       -0.94666789610000        6.75823253850000
H           -3.53755600190000       -1.24801547090000        6.21538008430000
H           -2.01425548650000       -0.89389484330000        6.15174351480000
O            6.43792871920000       -5.37185224210000        3.72816561110000
H            7.15058224170000       -5.38396359730000        4.37046991770000
H            6.43589411460000       -4.46571539430000        3.34291779740000
O            6.85934221380000       -0.21867914340000       -1.31243894240000
H            7.63230081470000        0.26372787670000       -0.95710936690000
H            6.52706979440000       -0.83629463920000       -0.64267972780000
O           -6.77277493320000       -4.06545793110000        2.85545638850000
H           -7.05603895890000       -3.28112769290000        2.34507235790000
H           -6.90822052460000       -3.86339440820000        3.80710911630000
O            1.25597416460000        6.38722038420000        1.36316958400000
H            1.78481282550000        6.63554858590000        2.13197432810000
H            1.67210585490000        5.54358090600000        1.06123691120000
O           -4.87068358070000       -5.79924942040000       -4.90430493950000
H           -4.35798978400000       -6.24927517000000       -4.21342895110000
H           -5.70747274440000       -5.51597100010000       -4.50548300490000
O          -10.50260707600000        0.13671369110000       -1.06437885880000
H          -10.67877311740000        0.71525175740000       -1.83388268360000
H          -10.39304956770000       -0.75745715870000       -1.42554807580000
O           -8.90467242820000        0.84799997720000        5.43684708030000
H           -9.20098893020000        0.83503637370000        4.49728051060000
H           -9.16954183220000        1.71977589300000        5.74473543680000
O           -9.01303214600000       -1.81260125400000        4.81080181830000
H           -9.12273702280000       -1.01151116540000        5.34157059110000
H           -9.82425177830000       -1.92036912460000        4.29727291550000
O           -4.66850669990000       -3.63952533420000        0.74658815010000
H           -4.24884863430000       -3.05262761170000        0.08481877000000
H           -5.04749105590000       -4.38633132080000        0.25401338480000
O           -6.85612280560000       -4.50044328490000       -3.48726090070000
H           -7.54764992440000       -4.57175180520000       -2.80876773710000
H           -6.05834490200000       -4.16802563460000       -3.02347088580000
O           11.00544536120000       -2.94060231250000       -4.62709641660000
H           10.32424604710000       -2.48292576950000       -5.15197364720000
H           11.53080979970000       -2.25772679920000       -4.20723016570000
O            0.09045434010000       -4.00206845130000       -1.99962987010000
H            0.37832523840000       -3.35718447990000       -2.68594381590000
H            0.66304057430000       -4.77024584210000       -2.09506647320000
O           -4.79098129040000       -1.65993088770000        2.53145646960000
H           -4.86904697330000       -2.44569803620000        1.96229886440000
H           -5.68354407740000       -1.26308163230000        2.57300118600000
O           11.35304119850000        2.16687290940000        2.27267184230000
H           11.40034569340000        1.38890997220000        1.65609460700000
H           12.25553877240000        2.33066373880000        2.54804163060000
O           -3.21113753290000       -7.31207703410000        0.09237040910000
H           -3.16797668960000       -7.40314071430000        1.04955624630000
H           -2.29314209870000       -7.06673292930000       -0.16233548700000
O           -6.09532586280000        0.14666958890000       -6.22743978180000
H           -6.86601364700000        0.68969503080000       -6.02872755050000
H           -6.26195921680000       -0.69732742620000       -5.78287938120000
O            0.69239349880000        4.53255280680000       -1.37709686640000
H            1.17569109840000        5.36056545900000       -1.25008529860000
H           -0.04841788860000        4.47847477550000       -0.73952216530000
O            5.38921866150000       -1.45179484580000        0.56759022360000
H            5.55816054730000       -0.56944395970000        0.98934739290000
H            5.75959679500000       -2.13686187500000        1.15008454510000
O            0.51956297280000        2.00362375440000        1.08543083300000
H           -0.25502281980000        2.13545106050000        1.68518974590000
H            1.04363224980000        2.81476379770000        1.09325469620000
O            3.71063095350000        1.51902025800000       -5.90298448440000
H            3.08159363880000        0.83636544560000       -6.20120539930000