612
 energy: -1033.456037657753 gnorm: 0.000415969964 xtb: 6.5.1 (579679a)
H           -1.77339605240000       -0.78777752660000       -1.15066152860000
C           -0.74001510830000       -0.45596564420000       -1.16990968150000
H           -0.22255487370000       -0.94960813680000       -1.98858904980000
C           -0.07709485930000       -0.81625656180000        0.15155726450000
H            0.98946660130000       -0.61372894350000        0.11771281170000
H           -0.23970713210000       -1.87122813870000        0.34093129530000
O           -0.68848450140000        0.93159875240000       -1.43133532320000
H           -1.25692185600000        1.40815820290000       -0.77561240810000
N           -0.66617326070000       -0.00896806060000        1.22842701590000
H           -0.44124281120000        0.99711700970000        1.04361116450000
H           -0.18058207260000       -0.22693480740000        2.12322583930000
H           -1.70366507100000       -0.12124809060000        1.29740590230000
O            3.13770450820000        6.06100061700000        3.35464436150000
H            3.25314983990000        5.56435820880000        4.18087621020000
H            3.45634918720000        5.46546991080000        2.64943668740000
O            3.51662511340000        2.07189771430000       -3.62160971800000
H            2.94498949010000        1.90557735950000       -2.84646755080000
H            2.94482879720000        2.48535090120000       -4.29433676110000
O            8.96860454370000        3.41018075340000        0.39587812720000
H            8.50748607560000        4.01362905980000       -0.22516262130000
H            8.88660614050000        3.82214145300000        1.27248234520000
O           -2.43679864470000        2.40982348680000        3.88208285320000
H           -2.81505982240000        2.70460732200000        4.72988690760000
H           -3.20391747310000        2.23732616310000        3.30277023100000
O           -4.70257570350000        2.29483158630000       -0.49033425420000
H           -4.77493837510000        3.11350923110000        0.04643216470000
H           -5.35104111330000        1.64476208390000       -0.16317996610000
O           -2.45728844080000       -4.76774730680000       -5.41082268250000
H           -1.63168980590000       -4.64942244970000       -5.89865601130000
H           -2.93042246740000       -5.51242854730000       -5.79151942430000
O            0.69966456360000        2.25014658590000        1.04152523190000
H            1.49618624860000        1.69907020410000        1.09524658080000
H            0.53713708770000        2.63723343160000        1.92954016020000
O            5.57848164830000        5.80794820690000        0.50379891870000
H            6.01529189570000        6.22910318590000        1.27692258870000
H            4.97485073950000        5.13613252020000        0.87270570660000
O            0.87867624380000       -0.48534492730000        3.29058111500000
H            1.12298236660000       -1.37328961250000        2.94133330280000
H            1.73225041990000       -0.08327568100000        3.53421920920000
O           -0.17927306660000       -2.31177112150000       -4.15837827440000
H            0.78754651620000       -2.16047148280000       -4.11685766800000
H           -0.31755457240000       -2.87506867290000       -4.93694673210000
O            2.84862432440000        3.99036949290000       -1.12206021460000
H            3.76455444610000        3.95815313800000       -1.45692601170000
H            2.53630396220000        3.06416322830000       -1.13414517160000
O            6.94108027780000        2.19750485350000       -1.23200728880000
H            6.93346525480000        2.52245568130000       -0.31982349340000
H            6.22044132040000        2.66643953580000       -1.68041166140000
O           -3.34695132350000       -0.26465433880000        1.41217164870000
H           -3.69705760180000        0.58048138380000        1.76031507070000
H           -3.63431874710000       -0.26497282430000        0.46946994250000
O           -0.61415014140000        2.50806330550000        6.84665502380000
H           -0.63824333880000        1.79016304000000        6.17286834280000
H           -1.52855625850000        2.64814655980000        7.10256940140000
O            0.07465264390000        3.17811975090000        3.41321177330000
H           -0.88415642050000        3.04756542610000        3.52068443770000
H            0.22751065120000        4.12778497470000        3.21292841450000
O            4.00441414500000       -0.20890907400000       -4.88064876720000
H            3.62483955880000        0.11913853000000       -5.71280758020000
H            3.91715910690000        0.55771256520000       -4.27056942800000
O           -1.14262403520000       -5.61909597060000        4.72195377780000
H           -1.10175813790000       -5.34528267300000        5.64718557730000
H           -1.87402653670000       -5.09895717570000        4.33884446630000
O           -1.16543404120000       -3.80209777270000        2.18690662330000
H           -0.55229319470000       -4.50356786870000        1.91003422210000
H           -1.50602388390000       -3.35642870640000        1.38536442830000
O            1.60260149590000       -2.32707209350000        5.27170614050000
H            0.69742168970000       -2.08588793100000        5.01612931960000
H            1.73740621360000       -3.19724771090000        4.86844408780000
O           -0.80086976180000       -0.92799011380000        7.23053198740000
H           -0.85304481520000       -1.90240807300000        7.23330441440000
H           -0.82547270040000       -0.64373270280000        6.29963193870000
O            3.90670237040000        2.04147401990000        3.15006653030000
H            4.69632746790000        1.50862582760000        3.40527973090000
H            3.25629914110000        1.91287038370000        3.86207844470000
O           -2.45803073650000        4.05595528400000       -1.80620129430000
H           -2.76452755640000        3.21892017720000       -2.18599474170000
H           -1.58157105980000        3.88143846290000       -1.40699009460000
O           -4.38880912800000        4.52752641370000        0.80769787440000
H           -3.42101105310000        4.64921099340000        0.74350121170000
H           -4.56878902490000        4.46578063220000        1.76047231630000
O           -2.55066298010000       -2.64078842670000        0.27590118460000
H           -2.92694310100000       -1.97539227350000        0.86163489880000
H           -3.31406486680000       -3.06491360740000       -0.14542121140000
O            2.79094547450000       -0.92208106690000       -1.54960840670000
H            3.18019600300000       -1.25228139530000       -0.71421921520000
H            3.58447506030000       -0.67091306310000       -2.05930388750000
O            7.92402935280000       -0.08237734750000       -2.31540229830000
H            7.93078305980000       -0.00394724050000       -3.27205155150000
H            7.35056663300000        0.63134420640000       -1.98629540230000
O           -2.17089499750000        2.12879975310000        0.40946074700000
H           -3.07572096470000        2.17108884000000        0.04300125360000
H           -1.93152007260000        3.02764488520000        0.67139072820000
O            1.90656976680000        1.53698826260000       -1.52226666020000
H            0.93763491520000        1.43683946970000       -1.48177524060000
H            2.28223418020000        0.64798141470000       -1.34954354100000
O            1.47523458480000       -3.49326915230000        7.74363183760000
H            1.61128645930000       -2.86852910500000        7.00821317260000
H            0.53795731200000       -3.71812248050000        7.70187058750000
O           -3.15246885040000       -5.49281929420000        1.38349193170000
H           -2.68917762750000       -4.76403779230000        1.83460243390000
H           -2.68099948010000       -6.29909250360000        1.68541894880000
O           -1.30293435360000       -1.61984706500000       -7.22394972560000
H           -2.06388560860000       -1.71345258480000       -6.61717197280000
H           -1.50825813160000       -0.85005008270000       -7.80075148480000
O            3.55890461600000        7.01275544750000       -0.77744059570000
H            3.74773126550000        6.93090027520000       -1.71950643920000
H            4.34300408290000        6.63637237080000       -0.32288161540000
O           -1.73880311710000        4.19012756900000       -5.01040212670000
H           -1.21098364810000        4.40961477260000       -5.77664717730000
H           -1.16538682770000        3.63398078880000       -4.43272694890000
O            4.97402982040000       -3.22808850090000       -4.91369211450000
H            5.00068059850000       -2.72219461910000       -5.72835399930000
H            5.85581183460000       -3.17232266430000       -4.50938737020000
O           -2.63116706410000       -5.03531004910000       -1.24457555870000
H           -2.81983850090000       -5.25994876940000       -0.31208400370000
H           -1.87413117150000       -4.42731633180000       -1.26255514140000
O           -9.27095659620000       -2.03980678230000        2.68510929160000
H          -10.09463124640000       -2.26368270960000        2.22612241750000
H           -8.57781977410000       -1.98678820430000        1.97867515330000
O           -7.29700999370000       -2.38129742820000        0.98667412260000
H           -7.27579623270000       -3.34792828440000        0.93978268640000
H           -7.42041749380000       -2.04644831380000        0.08138655080000
O           -0.99889604280000       -2.33160321140000        4.40822392180000
H           -1.02095456020000       -2.90561034920000        3.61998997020000
H           -1.81523625910000       -1.79261976090000        4.36332666300000
O           -0.20983933720000        2.60853120280000       -3.47187156230000
H            0.08440998990000        3.13508665360000       -2.70287788510000
H           -0.84669403730000        1.98198939130000       -3.10388780250000
O           -0.76412102320000        6.02196621370000       -2.88084905470000
H           -0.79744182950000        6.59438952630000       -2.10660156180000
H           -1.44056221280000        5.34064200800000       -2.73499337380000
O           -6.05748897720000       -0.47368490640000        2.99389845060000
H           -5.63662436000000       -1.30192937050000        2.69032155680000
H           -6.62610203590000       -0.72891736820000        3.75624780550000
O            7.46646302710000        3.02986323360000        5.07520723080000
H            8.10369754660000        2.30214050440000        5.14960835110000
H            6.68106045760000        2.74026825770000        5.56912663050000
O           -5.08411713990000       -6.41653017230000       -0.40161783590000
H           -4.25484998980000       -6.91612172630000       -0.42290730190000
H           -5.46687306570000       -6.45587884250000       -1.30589827850000
O            3.55757362410000        4.23448518450000        1.41802376290000
H            3.15330905850000        4.14659271080000        0.52566782780000
H            3.56742121410000        3.36979077640000        1.84540277880000
O            5.12025060090000        0.13897462290000       -2.18925437820000
H            4.93404217980000        0.79374300300000       -1.48085772860000
H            5.51604716470000        0.63305006700000       -2.92361835770000
O            1.32938625080000       -4.78826308090000        4.04573728180000
H            1.78861527170000       -5.49834789190000        3.55933222590000
H            0.42927733920000       -5.12064700980000        4.24400865790000
O           -3.45917350240000       -4.35513874750000        4.03967638880000
H           -4.11878361780000       -5.05024152530000        3.87936013480000
H           -3.75773200330000       -3.61158693150000        3.48595731270000
O            3.79488449100000       -3.44972989750000       -2.03406536640000
H            3.97971826880000       -4.39826619420000       -2.08693173220000
H            4.64050699070000       -3.00920290200000       -1.79285278730000
O            1.87077295410000        3.26345792260000       -5.40863278600000
H            1.67598228940000        3.91880885470000       -4.70335311040000
H            1.01524294420000        2.83685541930000       -5.62219720460000
O            6.30545086360000        2.84510160330000        1.38121849650000
H            5.94939935870000        3.48277812520000        2.03114249890000
H            7.14956933460000        2.55130920850000        1.76781107630000
O            1.07495710680000       -0.54240182840000       -6.54712592280000
H            1.13749477520000       -0.46984883920000       -5.57403340400000
H            0.25702582190000       -1.03048430110000       -6.75898896930000
O           -2.84715319160000       -2.01693248650000       -2.79489267600000
H           -2.92220561710000       -2.02669699920000       -3.76481384520000
H           -2.08421648400000       -2.54577524470000       -2.55668529130000
O           -0.11482326320000       -3.87912291370000       -6.46918159990000
H           -0.54482840440000       -3.16871204590000       -6.97891905880000
H            0.84533007250000       -3.76735280760000       -6.64350691170000
O            2.81113138190000        4.32047376220000        5.49832891770000
H            2.52534216990000        3.42907298560000        5.21181990650000
H            1.97837822150000        4.76609520780000        5.70717891700000
O           -1.87632556210000        0.74285662210000       -8.30753064940000
H           -1.26671049770000        1.34098625290000       -7.85086731630000
H           -2.67249160580000        0.73347417630000       -7.74482356410000
O            4.32843273390000        1.85910352510000       -0.31285790120000
H            3.71798790120000        1.33935363030000        0.23998612790000
H            4.94086321110000        2.30813491960000        0.28093817310000
O           -3.54082869380000        2.91134265240000        6.32643290240000
H           -3.40742018700000        1.96615465270000        6.56225395880000
H           -4.47581258330000        2.94587085110000        6.04949550030000
O            4.93499373900000        2.38686170060000        5.93788789330000
H            4.33076058620000        3.12686487970000        6.06092383200000
H            4.57239939960000        1.62335232630000        6.40084802610000
O            1.25472356420000        0.23032983610000       -3.99963474530000
H            1.61443967910000       -0.12810476710000       -3.18463641320000
H            0.81718074840000        1.07154820860000       -3.80112785880000
O           -5.29087358460000       -4.41838853500000       -6.06192825720000
H           -5.05866940500000       -5.30760443760000       -5.76233461930000
H           -6.14494239000000       -4.21978085740000       -5.66454468860000
O           -1.58856960050000        0.11640157110000       -4.56151582370000
H           -1.12385140630000       -0.72076634010000       -4.39235125100000
H           -2.31589750620000       -0.05743718720000       -5.18242165680000
O           -0.09090144450000       -6.37669643940000       -1.05791003200000
H            0.58318066440000       -6.87582878840000       -1.57009882750000
H           -0.16583852340000       -5.50711642120000       -1.48850464900000
O           10.01784617990000       -6.19590769380000       -0.41437033200000
H            9.26667804420000       -6.64294737310000        0.00039107660000
H           10.16068892360000       -5.40539085570000        0.13426682070000
O            3.25981974870000       -5.74268010770000        0.23853824440000
H            3.54861399290000       -6.10561255870000       -0.61059192730000
H            2.58659830450000       -5.05189276170000        0.02949534380000
O           -4.61825416770000        1.73338643860000        2.56459769420000
H           -5.13308780230000        1.03804804060000        3.00987887960000
H           -5.27688453630000        2.36884010840000        2.21643529160000
O            8.72827844310000        4.49557572530000        2.98467731530000
H            8.21117071400000        4.03972573270000        3.66930080020000
H            9.64164579120000        4.38247008140000        3.26564509180000
O            8.67366155160000        3.02049491380000       -3.06869238070000
H            8.19849368350000        2.72592618540000       -2.25952623150000
H            8.82514062500000        3.95953790960000       -2.95624896050000
O           11.25699944340000        2.17616576070000       -0.04711787250000
H           11.96201962950000        2.79840176270000       -0.22153673400000
H           10.42965823220000        2.70441486680000        0.06570413040000
O           -4.09256256720000       -0.38127754230000       -1.10615664020000
H           -5.04756664650000       -0.38733074720000       -0.95507568550000
H           -3.84179497560000       -1.11969707050000       -1.69077831990000
O            4.49174731030000        4.48402994590000       -5.64541590900000
H            5.06315842400000        3.84098742940000       -6.07793188310000
H            3.58973672000000        4.16171023820000       -5.75285711460000
O           -0.85042884760000        0.58445712890000        4.99060483780000
H           -0.20863767840000        0.17435578880000        4.38218860370000
H           -1.48568113940000        1.09257494130000        4.44997215960000
O           -8.96679580170000       -0.11870575420000        0.34461978770000
H           -9.03541595320000        0.45348176310000        1.12455263820000
H           -9.49210477170000        0.28128263720000       -0.37147492310000
O           -6.74912082200000        0.86643950850000       -6.04943662570000
H           -6.61754104060000        0.04052250780000       -6.53067025440000
H           -7.62568113190000        0.79793433590000       -5.60937986520000
O            7.51609394240000       -6.82611362710000        0.71071916400000
H            7.10807215680000       -7.69085165730000        0.70725473400000
H            7.13022861530000       -6.32107084230000       -0.05188747650000
O            7.71632893230000       -2.28742833630000        0.75218441160000
H            8.37613992170000       -2.99531228280000        0.65978881560000
H            7.16827093310000       -2.28083727130000       -0.05490549950000
O           -5.93424798870000        2.67640506280000        5.05153053930000
H           -6.80750873640000        3.08568299750000        5.15171481180000
H           -5.49745672730000        3.16677799830000        4.32979127660000
O            0.67996887050000        5.60333959000000        2.54617677780000
H            1.54358874430000        5.83255927360000        2.96537615000000
H            0.89697468430000        5.52529006360000        1.59264013280000
O           -6.68746096920000        5.90874351770000        2.42987203220000
H           -7.54137942920000        6.21824286090000        2.11868464040000
H           -6.02273367120000        6.44297041780000        1.93227365400000
O           -1.74286225290000        4.82101303790000        1.04929883820000
H           -1.90894108790000        5.35484773300000        1.84577563270000
H           -1.35185922400000        5.43990408300000        0.41215243130000
O           -0.32661645030000        8.01841986840000        2.04704753580000
H            0.01460440640000        7.13282366640000        2.31837847880000
H            0.49139442520000        8.51068948470000        1.88120673910000
O            1.65125936090000       -2.77367234790000        2.19640140100000
H            2.58477375180000       -2.77989199860000        2.51666763920000
H            1.24481659720000       -3.50251285440000        2.69541185620000
O            6.18427286460000       -1.91382752090000        2.93072043120000
H            6.05972411080000       -0.94901420010000        3.03451596600000
H            6.68022286530000       -2.05348902350000        2.10029267830000
O           -3.30511471060000       -2.20447362770000       -5.46830091180000
H           -3.18643807770000       -3.17046983810000       -5.52790159370000
H           -4.20180846740000       -2.02957224390000       -5.79854907760000
O           -8.20578663500000        1.25190270560000        2.59994274450000
H           -8.57326609230000        1.29962350240000        3.50476506950000
H           -7.48232445550000        0.60900635310000        2.64907211070000
O            5.61510361630000        2.08384229810000       -6.70396963580000
H            4.71715895960000        1.84302213250000       -6.97341000480000
H            6.12725736060000        1.26531350670000       -6.79272606020000
O           -4.04949005540000        2.86482476040000       -5.31283835280000
H           -3.19199757700000        3.33099446590000       -5.31729518970000
H           -4.34913111250000        2.90198138300000       -4.38110083900000
O            6.96017260880000       -2.66367116970000        5.36100321240000
H            6.10101118250000       -2.88957207870000        5.76760319080000
H            6.72918129720000       -2.42582427310000        4.43251232870000
O            4.38951108660000       -2.78462334760000        6.04164305280000
H            4.13989492760000       -2.73159783340000        5.09414295300000
H            3.97438611990000       -3.61294475980000        6.34878484760000
O            0.38767676940000       -5.46877335860000       -4.08743343750000
H           -0.46792006250000       -5.86511342620000       -3.84261549490000
H            0.25147817520000       -5.08307227980000       -4.95800719130000
O            5.17924721110000        3.88470059060000       -2.52015485220000
H            4.89913519290000        4.74764182180000       -2.89471065680000
H            4.74479421110000        3.20665097010000       -3.07837940150000
O            6.56871586220000       -5.32893792070000       -1.24956244420000
H            7.40293304750000       -5.01879404470000       -1.67742132650000
H            6.22175923490000       -4.60130722230000       -0.69443846160000
O            3.36131775960000       -0.48359623330000        4.20967870900000
H            3.82950645290000       -0.11381925020000        4.96581443460000
H            2.85688005310000       -1.22907829390000        4.57613783260000
O            1.76009358640000       -3.63546465400000       -0.32303479620000
H            2.47915965670000       -3.28090650230000       -0.88394965640000
H            1.77549811020000       -3.18352608690000        0.54628312360000
O            2.73289759260000        0.50599034610000        1.37459308050000
H            3.09758504720000       -0.39268481410000        1.33082292100000
H            3.18975208420000        0.94198452950000        2.12544921370000
O           11.11174478470000       -1.54933949080000        0.58642414260000
H           11.65264338770000       -1.51943660230000       -0.20731373850000
H           10.32657416860000       -1.01402754200000        0.36105885720000
O           -5.34769852900000       -2.11923748010000        5.36819743530000
H           -6.06049295620000       -2.58314159160000        4.91009676020000
H           -5.75314292510000       -1.32723539780000        5.78170812170000
O           -3.75138300610000       -3.88878758190000        6.69973009610000
H           -4.36113838210000       -3.13989358110000        6.66625518230000
H           -3.67400186040000       -4.15345335320000        5.76386647610000
O           -9.85557009690000        2.94908335280000       -3.12546274300000
H           -8.96261653970000        3.35574306300000       -3.19801654180000
H           -9.97758690740000        2.48553564240000       -3.96117838100000
O           -4.17310056630000       -4.34659504560000       -3.25446501540000
H           -3.65625001630000       -4.51225089710000       -2.43968556170000
H           -3.59111444800000       -4.54620595270000       -3.99973664610000
O           -2.44654025610000        5.24039274190000        5.17264208360000
H           -2.83613489460000        4.58610862440000        5.76853063770000
H           -1.48322415130000        5.18646920660000        5.31754104270000
O           -9.33277401890000        4.14153262670000        2.58859463960000
H           -9.16382629660000        4.83822433680000        1.92755695160000
H           -9.66630001620000        3.38982115600000        2.07080057300000
O           -5.60951349050000       -2.14883432760000       -3.14394870350000
H           -5.26809366010000       -1.29428793840000       -3.46590822740000
H           -4.90935975990000       -2.83359845990000       -3.18385977160000
O           -7.68220203870000        2.94650760170000       -0.63016259230000
H           -7.42964011150000        3.80839547630000       -0.99883717720000
H           -7.22414455400000        2.92723117630000        0.24120180890000
O           -3.20209117400000        0.30585000210000        6.67910983010000
H           -2.45955833020000       -0.10071164840000        7.15448051290000
H           -3.16218282430000       -0.05221573470000        5.77306320090000
O            6.99416636820000       -4.94378768810000        2.62546662040000
H            7.35015551490000       -5.64396828180000        2.05172832470000
H            7.74964668850000       -4.41612297410000        2.95391509650000
O            6.22136863100000        0.03991744230000        0.85852137220000
H            6.11006853650000        0.94408904510000        1.16870074700000
H            7.13905417730000       -0.04608318550000        0.56599563760000
O           -7.13000400540000       -3.69585239150000        3.71832699550000
H           -7.89132921000000       -3.17870111360000        3.40685540880000
H           -7.45945199300000       -4.35617274150000        4.32620472000000
O            2.36784493580000        8.23662081930000        1.56753432840000
H            2.78767089460000        7.69873838020000        2.24963670400000
H            2.83267922580000        8.03876132390000        0.74567504860000
O           -4.30758399890000       -6.85006448700000       -4.88534223590000
H           -3.51385081900000       -6.89031763800000       -4.32311314060000
H           -5.05774535740000       -6.94818361320000       -4.28803476990000
O          -10.45673733830000        0.56544397210000       -1.81913783920000
H          -10.20120268570000        1.41625059220000       -2.21484262370000
H          -10.21161298190000       -0.12956775040000       -2.44604274770000
O           -9.13971297340000        1.32713099480000        5.12186787610000
H          -10.03426880260000        1.13189622570000        4.80620462110000
H           -9.06712181020000        2.27472936630000        5.30522273710000
O           -7.87311315600000       -1.09201051030000        4.82105354490000
H           -8.16736001210000       -0.29422445490000        5.27862928520000
H           -8.59026550410000       -1.35868834810000        4.23032236670000
O           -5.01921846400000       -3.66472995860000       -0.35491350680000
H           -5.80324237780000       -3.53189904150000       -0.90083582420000
H           -4.90926678860000       -4.63308284420000       -0.29719685340000
O           -6.16183562720000       -6.03503379300000       -2.82378561930000
H           -6.92591955870000       -5.51250288120000       -2.54224114880000
H           -5.48081139750000       -5.36474490970000       -3.06096274970000
O           10.37106087440000        1.06185784990000       -4.00527316560000
H            9.75634784470000        0.42582183870000       -4.39389047590000
H            9.83261654400000        1.81230580100000       -3.70288943410000
O           -0.41392439840000       -3.69404515500000       -1.83601252220000
H           -0.22371007560000       -3.33711215430000       -2.72246987510000
H            0.38799619670000       -3.56966943640000       -1.29185033270000
O           -4.88321613780000       -2.83220642980000        2.29452452650000
H           -5.64519383520000       -3.25593290410000        2.71562074090000
H           -4.96125340060000       -3.05829439950000        1.34767416450000
O           11.42610727150000        0.59829221120000        2.18323068500000
H           11.32664140020000        1.14994441900000        1.38157959140000
H           11.93372277410000       -0.16909122820000        1.89974530530000
O           -2.47017270570000       -7.74247102170000       -0.37581856990000
H           -2.31114360560000       -8.13622185170000        0.48472933330000
H           -1.65247288340000       -7.26588610730000       -0.60274890770000
O           -5.78173378030000       -1.64592482780000       -6.64422632530000
H           -6.43436893830000       -2.05998704250000       -6.03002023100000
H           -5.62248919520000       -2.31409671350000       -7.31399195980000
O            1.23353522680000        5.91690183790000       -0.07506009680000
H            2.13055915600000        6.22811156380000       -0.33181806690000
H            0.62607071830000        6.63937930830000       -0.26250110550000
O            4.12247602890000       -1.63773895930000        0.65717458240000
H            4.51304483890000       -2.53211015390000        0.68681990990000
H            4.89679216670000       -1.04270537270000        0.66839355190000
O            0.05525752880000        3.75830613250000       -1.05028259990000
H            0.26239139400000        3.15064491420000       -0.31707108860000
H            0.52598812200000        4.57969910540000       -0.80635299540000
O            3.00885874370000        1.20861901870000       -7.02915959960000
H            2.28355137930000        0.56429006610000       -7.10701911240000