      -----------------------------------------------------------      
     |                   =====================                   |     
     |                           x T B                           |     
     |                   =====================                   |     
     |                         S. Grimme                         |     
     |          Mulliken Center for Theoretical Chemistry        |     
     |                    University of Bonn                     |     
      -----------------------------------------------------------      

   * xtb version 6.5.1 (579679a) compiled by 'ehlert@majestix' on 2022-07-11

   xtb is free software: you can redistribute it and/or modify it under
   the terms of the GNU Lesser General Public License as published by
   the Free Software Foundation, either version 3 of the License, or
   (at your option) any later version.
   
   xtb is distributed in the hope that it will be useful,
   but WITHOUT ANY WARRANTY; without even the implied warranty of
   MERCHANTABILITY or FITNESS FOR A PARTICULAR PURPOSE.  See the
   GNU Lesser General Public License for more details.
   
   Cite this work as:
   * C. Bannwarth, E. Caldeweyher, S. Ehlert, A. Hansen, P. Pracht,
     J. Seibert, S. Spicher, S. Grimme, WIREs Comput. Mol. Sci., 2020, 11,
     e01493. DOI: 10.1002/wcms.1493
   
   for GFN2-xTB:
   * C. Bannwarth, S. Ehlert and S. Grimme., J. Chem. Theory Comput., 2019,
     15, 1652-1671. DOI: 10.1021/acs.jctc.8b01176
   for GFN1-xTB:
   * S. Grimme, C. Bannwarth, P. Shushkov, J. Chem. Theory Comput., 2017,
     13, 1989-2009. DOI: 10.1021/acs.jctc.7b00118
   for GFN0-xTB:
   * P. Pracht, E. Caldeweyher, S. Ehlert, S. Grimme, ChemRxiv, 2019, preprint.
     DOI: 10.26434/chemrxiv.8326202.v1
   for GFN-FF:
   * S. Spicher and S. Grimme, Angew. Chem. Int. Ed., 2020, 59, 15665-15673.
     DOI: 10.1002/anie.202004239
   
   for ALPB and GBSA implicit solvation:
   * S. Ehlert, M. Stahn, S. Spicher, S. Grimme, J. Chem. Theory Comput.,
     2021, 17, 4250-4261. DOI: 10.1021/acs.jctc.1c00471
   
   for DFT-D4:
   * E. Caldeweyher, C. Bannwarth and S. Grimme, J. Chem. Phys., 2017,
     147, 034112. DOI: 10.1063/1.4993215
   * E. Caldeweyher, S. Ehlert, A. Hansen, H. Neugebauer, S. Spicher,
     C. Bannwarth and S. Grimme, J. Chem. Phys., 2019, 150, 154122.
     DOI: 10.1063/1.5090222
   * E. Caldeweyher, J.-M. Mewes, S. Ehlert and S. Grimme, Phys. Chem. Chem. Phys.
     2020, 22, 8499-8512. DOI: 10.1039/D0CP00502A
   
   for sTDA-xTB:
   * S. Grimme and C. Bannwarth, J. Chem. Phys., 2016, 145, 054103.
     DOI: 10.1063/1.4959605
   
   in the mass-spec context:
   * V. Asgeirsson, C. Bauer and S. Grimme, Chem. Sci., 2017, 8, 4879.
     DOI: 10.1039/c7sc00601b
   * J. Koopman and S. Grimme, ACS Omega 2019, 4, 12, 15120-15133.
     DOI: 10.1021/acsomega.9b02011
   
   for metadynamics refer to:
   * S. Grimme, J. Chem. Theory Comput., 2019, 155, 2847-2862
     DOI: 10.1021/acs.jctc.9b00143
   
   for SPH calculations refer to:
   * S. Spicher and S. Grimme, J. Chem. Theory Comput., 2021, 17, 1701-1714
     DOI: 10.1021/acs.jctc.0c01306
   
   with help from (in alphabetical order)
   P. Atkinson, C. Bannwarth, F. Bohle, G. Brandenburg, E. Caldeweyher
   M. Checinski, S. Dohm, S. Ehlert, S. Ehrlich, I. Gerasimov, C. Hölzer
   A. Katbashev, J. Koopman, C. Lavigne, S. Lehtola, F. März, M. Müller,
   F. Musil, H. Neugebauer, J. Pisarek, C. Plett, P. Pracht, F. Pultar,
   J. Seibert, P. Shushkov, S. Spicher, M. Stahn, M. Steiner, T. Strunk,
   J. Stückrath, T. Rose, and J. Unsleber
   
 * started run on 2022/11/24 at 12:21:40.836     

           -------------------------------------------------
          |                Calculation Setup                |
           -------------------------------------------------

          program call               : xtb solvent_cluster.coord --gfn2 --sp --lmo --chrg 0
          hostname                   : cn0430
          coordinate file            : solvent_cluster.coord
          omp threads                :                     2

   ID    Z sym.   atoms
    1    8 o      1, 4, 7, 10, 13, 16, 19, 22, 25, 28, 31, 34, 37, 40, 43,
                  46, 49, 52, 55, 58, 61, 64, 67, 70, 73, 76, 79, 82, 85, 88,
                  91, 94, 97, 100, 103, 106, 109, 112, 115, 118, 121, 124,
                  127, 130, 133, 136, 139, 142, 145, 148, 151, 154, 157, 160,
                  163, 166, 169, 172, 175, 178, 181, 184, 187, 190, 193, 196,
                  199, 202, 205, 208, 211, 214, 217, 220, 223, 226, 229, 232,
                  235, 238, 241, 244, 247, 250, 253, 256, 259, 262, 265, 268,
                  271, 274, 277, 280, 283, 286, 289, 292, 295, 298, 301, 304,
                  307, 310, 313, 316, 319, 322, 325, 328, 331, 334, 337, 340,
                  343, 346, 349, 352, 355, 358, 361, 364, 367, 370, 373, 376,
                  379, 382, 385, 388, 391, 394, 397, 400, 403, 406, 409, 412,
                  415, 418, 421, 424, 427, 430, 433, 436, 439, 442, 445, 448,
                  451, 454, 457, 460, 463, 466, 469, 472, 475, 478, 481, 484,
                  487, 490, 493, 496, 499, 502, 505, 508, 511, 514, 517, 520,
                  523, 526, 529, 532, 535, 538, 541, 544, 547, 550, 553, 556,
                  559, 562, 565, 568, 571, 574, 577, 580, 583, 586, 589, 592,
                  595, 598, 601, 604, 607, 610, 613, 616, 619, 622, 625, 628,
                  631, 634, 637, 640, 643, 646, 649, 652, 655, 658, 661, 664,
                  667, 670, 673, 676, 679, 682, 685, 688, 691, 694, 697, 700,
                  703, 706, 709, 712, 715, 718, 721, 724, 727, 730, 733, 736,
                  739, 742, 745, 748, 751, 754
    2    1 h      2, 3, 5, 6, 8, 9, 11, 12, 14, 15, 17, 18, 20, 21, 23, 24,
                  26, 27, 29, 30, 32, 33, 35, 36, 38, 39, 41, 42, 44, 45, 47,
                  48, 50, 51, 53, 54, 56, 57, 59, 60, 62, 63, 65, 66, 68, 69,
                  71, 72, 74, 75, 77, 78, 80, 81, 83, 84, 86, 87, 89, 90, 92,
                  93, 95, 96, 98, 99, 101, 102, 104, 105, 107, 108, 110, 111,
                  113, 114, 116, 117, 119, 120, 122, 123, 125, 126, 128, 129,
                  131, 132, 134, 135, 137, 138, 140, 141, 143, 144, 146, 147,
                  149, 150, 152, 153, 155, 156, 158, 159, 161, 162, 164, 165,
                  167, 168, 170, 171, 173, 174, 176, 177, 179, 180, 182, 183,
                  185, 186, 188, 189, 191, 192, 194, 195, 197, 198, 200, 201,
                  203, 204, 206, 207, 209, 210, 212, 213, 215, 216, 218, 219,
                  221, 222, 224, 225, 227, 228, 230, 231, 233, 234, 236, 237,
                  239, 240, 242, 243, 245, 246, 248, 249, 251, 252, 254, 255,
                  257, 258, 260, 261, 263, 264, 266, 267, 269, 270, 272, 273,
                  275, 276, 278, 279, 281, 282, 284, 285, 287, 288, 290, 291,
                  293, 294, 296, 297, 299, 300, 302, 303, 305, 306, 308, 309,
                  311, 312, 314, 315, 317, 318, 320, 321, 323, 324, 326, 327,
                  329, 330, 332, 333, 335, 336, 338, 339, 341, 342, 344, 345,
                  347, 348, 350, 351, 353, 354, 356, 357, 359, 360, 362, 363,
                  365, 366, 368, 369, 371, 372, 374, 375, 377, 378, 380, 381,
                  383, 384, 386, 387, 389, 390, 392, 393, 395, 396, 398, 399,
                  401, 402, 404, 405, 407, 408, 410, 411, 413, 414, 416, 417,
                  419, 420, 422, 423, 425, 426, 428, 429, 431, 432, 434, 435,
                  437, 438, 440, 441, 443, 444, 446, 447, 449, 450, 452, 453,
                  455, 456, 458, 459, 461, 462, 464, 465, 467, 468, 470, 471,
                  473, 474, 476, 477, 479, 480, 482, 483, 485, 486, 488, 489,
                  491, 492, 494, 495, 497, 498, 500, 501, 503, 504, 506, 507,
                  509, 510, 512, 513, 515, 516, 518, 519, 521, 522, 524, 525,
                  527, 528, 530, 531, 533, 534, 536, 537, 539, 540, 542, 543,
                  545, 546, 548, 549, 551, 552, 554, 555, 557, 558, 560, 561,
                  563, 564, 566, 567, 569, 570, 572, 573, 575, 576, 578, 579,
                  581, 582, 584, 585, 587, 588, 590, 591, 593, 594, 596, 597,
                  599, 600, 602, 603, 605, 606, 608, 609, 611, 612, 614, 615,
                  617, 618, 620, 621, 623, 624, 626, 627, 629, 630, 632, 633,
                  635, 636, 638, 639, 641, 642, 644, 645, 647, 648, 650, 651,
                  653, 654, 656, 657, 659, 660, 662, 663, 665, 666, 668, 669,
                  671, 672, 674, 675, 677, 678, 680, 681, 683, 684, 686, 687,
                  689, 690, 692, 693, 695, 696, 698, 699, 701, 702, 704, 705,
                  707, 708, 710, 711, 713, 714, 716, 717, 719, 720, 722, 723,
                  725, 726, 728, 729, 731, 732, 734, 735, 737, 738, 740, 741,
                  743, 744, 746, 747, 749, 750, 752, 753, 755, 756

molecular fragmentation (1/2 indicates fragments):
111222222222222222222222222222222222222222222222222222222222222222222222
222222222222222222222222222222222222222222222222222222222222222222222222
222222222222222222222222222222222222222222222222222222222222222222222222
222222222222222222222222222222222222222222222222222222222222222222222222
222222222222222222222222222222222222222222222222222222222222222222222222
222222222222222222222222222222222222222222222222222222222222222222222222
222222222222222222222222222222222222222222222222222222222222222222222222
222222222222222222222222222222222222222222222222222222222222222222222222
222222222222222222222222222222222222222222222222222222222222222222222222
222222222222222222222222222222222222222222222222222222222222222222222222
222222222222222222222222222222222222
# atoms in fragment 1/2:     3   753
 fragment masses (1/2) :       18.02     4521.84
CMA distance (Bohr)    :  17.574
constraining FC (au)   :  0.0500

           -------------------------------------------------
          |                 G F N 2 - x T B                 |
           -------------------------------------------------

        Reference                      10.1021/acs.jctc.8b01176
      * Hamiltonian:
        H0-scaling (s, p, d)           1.850000    2.230000    2.230000
        zeta-weighting                 0.500000
      * Dispersion:
        s8                             2.700000
        a1                             0.520000
        a2                             5.000000
        s9                             5.000000
      * Repulsion:
        kExp                           1.500000    1.000000
        rExp                           1.000000
      * Coulomb:
        alpha                          2.000000
        third order                    shell-resolved
        anisotropic                    true
        a3                             3.000000
        a5                             4.000000
        cn-shift                       1.200000
        cn-exp                         4.000000
        max-rad                        5.000000


          ...................................................
          :                      SETUP                      :
          :.................................................:
          :  # basis functions                1512          :
          :  # atomic orbitals                1512          :
          :  # shells                         1008          :
          :  # electrons                      2016          :
          :  max. iterations                   250          :
          :  Hamiltonian                  GFN2-xTB          :
          :  restarted?                      false          :
          :  GBSA solvation                  false          :
          :  PC potential                    false          :
          :  electronic temp.          300.0000000     K    :
          :  accuracy                    1.0000000          :
          :  -> integral cutoff          0.2500000E+02      :
          :  -> integral neglect         0.1000000E-07      :
          :  -> SCF convergence          0.1000000E-05 Eh   :
          :  -> wf. convergence          0.1000000E-03 e    :
          :  Broyden damping             0.4000000          :
          ...................................................

 iter      E             dE          RMSdq      gap      omega  full diag
   1  -1290.9536592 -0.129095E+04  0.407E+00    8.46       0.0  T
   2  -1291.0291227 -0.754635E-01  0.242E+00    7.40       1.0  T
   3  -1291.0607247 -0.316020E-01  0.209E-01    5.61       1.0  T
   4  -1291.0659709 -0.524617E-02  0.453E-02    6.08       1.0  T
   5  -1291.0660468 -0.759278E-04  0.305E-02    6.01       1.0  T
   6  -1291.0660850 -0.381970E-04  0.390E-03    6.05       1.0  T
   7  -1291.0660871 -0.202294E-05  0.760E-04    6.05       4.8  T
   8  -1291.0660871 -0.317089E-07  0.382E-04    6.05       9.5  T
   9  -1291.0660871 -0.140490E-07  0.553E-05    6.05      65.8  T

   *** convergence criteria satisfied after 9 iterations ***

         #    Occupation            Energy/Eh            Energy/eV
      -------------------------------------------------------------
         1        2.0000           -0.6930317             -18.8584
       ...           ...                  ...                  ...
      1002        2.0000           -0.3436383              -9.3509
      1003        2.0000           -0.3430300              -9.3343
      1004        2.0000           -0.3385287              -9.2118
      1005        2.0000           -0.3254374              -8.8556
      1006        2.0000           -0.3239776              -8.8159
      1007        2.0000           -0.3107256              -8.4553
      1008        2.0000           -0.3073535              -8.3635 (HOMO)
      1009                         -0.0850236              -2.3136 (LUMO)
      1010                         -0.0674170              -1.8345
      1011                         -0.0595368              -1.6201
      1012                         -0.0531659              -1.4467
      1013                         -0.0516493              -1.4054
       ...                                ...                  ...
      1512                          0.4909276              13.3588
      -------------------------------------------------------------
                  HL-Gap            0.2223299 Eh            6.0499 eV
             Fermi-level           -0.1961886 Eh           -5.3386 eV
 
 localization/xTB-IFF output generation
 averaging CT terms over            2  occ. levels
 averaging CT terms over            1  virt. levels
 dipole moment from electron density (au)
     X       Y       Z   
   3.8080  -0.0115  -2.5796  total (Debye):   11.691
cpu  time for init local    0.79 s
wall time for init local    0.40 s
 doing rotations ...
 initialization of trafo matrix to unity

 converged in     16 iterations, threshold :   0.99999337D-06
 doing transformations ...
 lmo centers(Z=2) and atoms on file <lmocent.coord>
 LMO Fii/eV  ncent    charge center   contributions...
    1 LP   *******   0.00  -4.42325  -0.83874   7.44471   49O : 42.12  124O : 31.73  706O : 30.99  115O : 28.60  421O : 27.23   58O : 26.27    7O : 25.79  358O : 25.66  508O : 25.34  472O : 24.34  112O : 23.90  670O : 22.67
  541O : 21.35  598O : 21.02  586O : 20.58  322O : 19.30  631O : 17.85  229O : 17.81   97O : 17.60  403O : 17.47  562O : 17.10  187O : 16.99  313O : 16.45  754O : 16.26
  475O : 15.75  376O : 14.90  361O : 14.86  190O : 14.75  349O : 14.47  499O : 14.12  226O : 13.46  118O : 13.08   85O : 12.97   52O : 12.86  382O : 12.75  718O : 12.60
  691O : 12.56  199O : 12.55  733O : 12.38   55O : 12.31  658O : 11.78  544O : 11.44  100O : 11.41  121O : 11.15  688O : 10.97   43O : 10.94   73O : 10.84   37O : 10.51
   40O : 10.49  715O : 10.07  628O : 10.02  550O :  9.98  664O :  9.94  193O :  9.87  409O :  9.55   88O :  9.52  175O :  9.47  652O :  9.32  331O :  9.28  469O :  9.19
   82O :  9.14  160O :  9.07  676O :  8.93   79O :  8.85  127O :  8.80  730O :  8.69  667O :  8.61  559O :  8.60  268O :  8.60  448O :  8.50   91O :  8.49  511O :  8.35
  286O :  8.21  106O :  8.09  259O :  8.04  145O :  8.00  490O :  7.97  436O :  7.90  181O :  7.90   46O :  7.88  580O :  7.83  247O :  7.80  589O :  7.70  454O :  7.67
  262O :  7.52  103O :  7.50  592O :  7.44  136O :  7.37  709O :  7.18   61O :  7.16  679O :  7.06  283O :  6.93  157O :  6.91  457O :  6.69  484O :  6.66  211O :  6.41
  367O :  6.40   10O :  6.29  571O :  6.23  289O :  6.21  235O :  6.18  343O :  6.13  271O :  6.03  295O :  5.86  514O :  5.78  337O :  5.77  751O :  5.62  319O :  5.60
  316O :  5.57  130O :  5.50  745O :  5.41  547O :  5.40  394O :  5.20  502O :  5.14  412O :  5.12  685O :  5.11  700O :  5.06  532O :  5.03  139O :  4.96   25O :  4.91
  214O :  4.86  517O :  4.83   50H :  4.78  196O :  4.76  451O :  4.71   34O :  4.68  682O :  4.58  355O :  4.54  505O :  4.50  712O :  4.43  328O :  4.41    1O :  4.40
  673O :  4.39  493O :  4.38  415O :  4.38  406O :  4.30  424O :  4.28  742O :  4.27  340O :  4.21  280O :  4.18  583O :  4.17  619O :  4.03  643O :  4.03  697O :  4.02
  223O :  4.00   13O :  3.96  256O :  3.94  205O :  3.91  244O :  3.86  133O :  3.77  553O :  3.76    4O :  3.75  148O :  3.70  523O :  3.68  433O :  3.68  607O :  3.67
  634O :  3.64  529O :  3.55  142O :  3.53  220O :  3.45  736O :  3.42  232O :  3.41  301O :  3.41  388O :  3.40  655O :  3.34  202O :  3.30  238O :  3.26  496O :  3.24
  601O :  3.21  125H :  3.17  397O :  3.15  364O :  3.14  169O :  3.14  166O :  3.07   80H :  3.05   16O :  3.05  478O :  3.05  250O :  3.03  487O :  3.02   94O :  3.02
  463O :  2.99  613O :  2.97  724O :  2.96   76O :  2.96   64O :  2.85  430O :  2.83   98H :  2.83  346O :  2.80  661O :  2.78  418O :  2.77  292O :  2.69   22O :  2.66
  274O :  2.57  600H :  2.56  739O :  2.52   19O :  2.49  556O :  2.48  391O :  2.47  351H :  2.46  163O :  2.45  241O :  2.44  466O :  2.43  265O :  2.39  385O :  2.30
  640O :  2.24  649O :  2.21  307O :  2.20  154O :  2.20  574O :  2.18   51H :  2.16  526O :  2.15  703O :  2.11  538O :  2.07  748O :  2.07  370O :  2.05  109O :  2.04
  604O :  1.95  188H :  1.92  379O :  1.92  352O :  1.91  473H :  1.91  427O :  1.89   26H :  1.85  333H :  1.84  217O :  1.84  442O :  1.83  116H :  1.82  151O :  1.81
  184O :  1.78  625O :  1.76  404H :  1.73  439O :  1.72   70O :  1.63  501H :  1.63  277O :  1.62  633H :  1.59  360H :  1.58  303H :  1.51  552H :  1.47  101H :  1.47
  752H :  1.42   27H :  1.42  369H :  1.42  298O :  1.42  637O :  1.41  662H :  1.39   67O :  1.38   38H :  1.36  690H :  1.34  610O :  1.33  621H :  1.25   99H :  1.22
  373O :  1.22  622O :  1.20  200H :  1.19   32H :  1.18   62H :  1.17  646O :  1.15  158H :  1.13  300H :  1.11  481O :  1.10  727O :  1.10  371H :  1.10  325O :  1.09
  565O :  1.09  297H :  1.08  253O :  1.08  400O :  1.08  114H :  1.07  698H :  1.06  332H :  1.05   78H :  1.04  434H :  1.02   21H :  0.98  456H :  0.98  213H :  0.98
  656H :  0.98    8H :  0.97  577O :  0.96  616O :  0.95  535O :  0.95    6H :  0.94  161H :  0.94  686H :  0.93  719H :  0.93  310O :  0.92  678H :  0.90   56H :  0.89
  128H :  0.89  345H :  0.88   28O :  0.87  660H :  0.86  568O :  0.84  230H :  0.84  509H :  0.82  419H :  0.81  720H :  0.81  572H :  0.81  445O :  0.78  282H :  0.78
  334O :  0.77  665H :  0.77  356H :  0.76  182H :  0.75  666H :  0.75   35H :  0.75  753H :  0.75  233H :  0.74  206H :  0.74  455H :  0.74  518H :  0.72  224H :  0.71
  378H :  0.71  694O :  0.70  383H :  0.69  668H :  0.69   39H :  0.69  398H :  0.68  435H :  0.68  291H :  0.66  152H :  0.66  172O :  0.66  119H :  0.65   36H :  0.65
  344H :  0.64  156H :  0.63  680H :  0.63   95H :  0.62  669H :  0.60  743H :  0.59  320H :  0.59  162H :  0.58  755H :  0.58  105H :  0.58  263H :  0.57  107H :  0.57
  716H :  0.57  564H :  0.57   71H :  0.57  458H :  0.56  413H :  0.55  197H :  0.55  701H :  0.55  636H :  0.55  741H :  0.54  533H :  0.53  717H :  0.53  138H :  0.53
  563H :  0.52  606H :  0.52   90H :  0.52  304O :  0.51  137H :  0.50  687H :  0.49  594H :  0.49  183H :  0.48  149H :  0.47  225H :  0.47  653H :  0.47  326H :  0.47
   18H :  0.46  460O :  0.46   14H :  0.46   75H :  0.45   57H :  0.45  219H :  0.44  702H :  0.44  411H :  0.44  595O :  0.43  567H :  0.43  208O :  0.43  246H :  0.43
  437H :  0.42  207H :  0.42  674H :  0.42  386H :  0.41  422H :  0.41  468H :  0.39  249H :  0.39   77H :  0.39  368H :  0.38  324H :  0.38  540H :  0.38  432H :  0.38
  236H :  0.37  632H :  0.37  363H :  0.37  569H :  0.36  644H :  0.36  384H :  0.36   24H :  0.36  677H :  0.35  293H :  0.34  672H :  0.34  281H :  0.34  579H :  0.34
  693H :  0.34  609H :  0.34  494H :  0.33  491H :  0.33  530H :  0.33  294H :  0.33  330H :  0.33  285H :  0.33  470H :  0.33  144H :  0.33  414H :  0.32  520O :  0.31
  465H :  0.31   92H :  0.31  113H :  0.31  122H :  0.31  270H :  0.30  321H :  0.30  108H :  0.30  721O :  0.30  146H :  0.30  545H :  0.30  174H :  0.30  203H :  0.29
  401H :  0.29  651H :  0.29  374H :  0.29  428H :  0.29  288H :  0.29  252H :  0.28  608H :  0.27  513H :  0.27  117H :  0.27  416H :  0.27   84H :  0.26  746H :  0.25
  104H :  0.25  441H :  0.25  539H :  0.25  443H :  0.25  480H :  0.24  735H :  0.24  186H :  0.24  365H :  0.24  245H :  0.24  675H :  0.24  627H :  0.23  497H :  0.23
  486H :  0.23  204H :  0.23  216H :  0.23  407H :  0.23  438H :  0.23   44H :  0.23  731H :  0.23   20H :  0.23  164H :  0.23  329H :  0.22  284H :  0.22  635H :  0.22
  713H :  0.22  143H :  0.22  599H :  0.22  189H :  0.21  389H :  0.21   29H :  0.21  612H :  0.21  110H :  0.21  387H :  0.21  173H :  0.20  336H :  0.20  582H :  0.19
   81H :  0.19  129H :  0.19  120H :  0.19  359H :  0.19  467H :  0.19  341H :  0.19   45H :  0.19  476H :  0.19  375H :  0.18  507H :  0.18  178O :  0.18  447H :  0.18
  714H :  0.18  257H :  0.17   42H :  0.17  327H :  0.17  308H :  0.17  527H :  0.17  489H :  0.16  347H :  0.16   69H :  0.16  380H :  0.16  560H :  0.16  704H :  0.16
  578H :  0.16  131H :  0.16  317H :  0.16  554H :  0.15   17H :  0.15  504H :  0.15  402H :  0.15  185H :  0.15  191H :  0.15  155H :  0.14   96H :  0.14   54H :  0.14
  261H :  0.14  318H :  0.14  689H :  0.14  357H :  0.14  596H :  0.14  630H :  0.13  738H :  0.13  638H :  0.13  707H :  0.13  195H :  0.13   48H :  0.13  179H :  0.13
  593H :  0.12  462H :  0.12  390H :  0.12  237H :  0.12  194H :  0.12  452H :  0.12  264H :  0.12   11H :  0.12  710H :  0.11  618H :  0.11  528H :  0.11  396H :  0.11
  543H :  0.11   74H :  0.11  269H :  0.11  314H :  0.11  180H :  0.10  534H :  0.10  215H :  0.10  750H :  0.10  566H :  0.10  366H :  0.10  449H :  0.10  485H :  0.10
  602H :  0.10  581H :  0.10  429H :  0.09  705H :  0.09  459H :  0.09  425H :  0.09  243H :  0.09  309H :  0.09  756H :  0.09  479H :  0.09  734H :  0.09    3H :  0.09
  222H :  0.09  123H :  0.08  275H :  0.08  126H :  0.08  659H :  0.08  290H :  0.08   31O :  0.08  725H :  0.08  519H :  0.08  516H :  0.08  254H :  0.08  495H :  0.08
  444H :  0.08  648H :  0.08  506H :  0.07  584H :  0.07  306H :  0.07  159H :  0.07  548H :  0.07
    2 LP   *******   0.00  13.95156 -22.29221  10.72477   49O : 29.84  115O : 24.60  124O : 24.44  706O : 23.87  421O : 20.97   58O : 19.94    7O : 19.87  358O : 19.75  508O : 19.52  472O : 18.75  112O : 18.41  670O : 17.45
  541O : 16.44  598O : 16.19  586O : 16.01  322O : 14.87  631O : 13.75  229O : 13.72  403O : 13.61   97O : 13.52  562O : 13.17  187O : 13.07  313O : 12.67  754O : 12.54
  475O : 12.13  376O : 11.47  361O : 11.44  190O : 11.36  349O : 11.15  499O : 10.88  226O : 10.37  118O : 10.07   85O :  9.99   52O :  9.94  382O :  9.82  718O :  9.70
  691O :  9.68  199O :  9.66  733O :  9.54   55O :  9.48  658O :  9.07  544O :  8.81  100O :  8.78  121O :  8.60  688O :  8.45   43O :  8.42   73O :  8.35   37O :  8.09
   40O :  8.07  715O :  7.76  628O :  7.72  550O :  7.68  664O :  7.66  193O :  7.60  409O :  7.36   88O :  7.33  175O :  7.29  652O :  7.17  331O :  7.10   82O :  7.07
  469O :  7.05  160O :  6.99  676O :  6.88   79O :  6.82  127O :  6.78  730O :  6.69  667O :  6.63  268O :  6.62  559O :  6.62  448O :  6.55   91O :  6.54  511O :  6.43
  286O :  6.33  106O :  6.21  259O :  6.19  145O :  6.16  490O :  6.14  436O :  6.11  181O :  6.07   46O :  6.07  580O :  6.04  247O :  6.01  589O :  5.92  454O :  5.91
  103O :  5.80  262O :  5.80  592O :  5.73  136O :  5.67  709O :  5.52   61O :  5.51  679O :  5.44  283O :  5.34  157O :  5.32  457O :  5.16  484O :  5.13  211O :  4.94
  367O :  4.93   10O :  4.84  571O :  4.80  289O :  4.78  235O :  4.76  343O :  4.72  271O :  4.64  295O :  4.51  514O :  4.45  337O :  4.45  751O :  4.32  319O :  4.31
  316O :  4.29  130O :  4.28  745O :  4.17  547O :  4.16  394O :  4.01  412O :  3.96  502O :  3.96   50H :  3.95  685O :  3.93  700O :  3.90  532O :  3.87  139O :  3.82
  214O :  3.74  517O :  3.72  196O :  3.67  451O :  3.63   25O :  3.61   34O :  3.61  355O :  3.57  682O :  3.53  505O :  3.46  712O :  3.41  328O :  3.40    1O :  3.39
  673O :  3.38  493O :  3.37  415O :  3.37  406O :  3.31  424O :  3.30  742O :  3.28  340O :  3.24  280O :  3.22  583O :  3.21  643O :  3.10  619O :  3.10  697O :  3.09
  223O :  3.08   13O :  3.05  256O :  3.03  205O :  3.01  244O :  2.97  133O :  2.90  553O :  2.90    4O :  2.89  148O :  2.85  523O :  2.84  433O :  2.83  607O :  2.83
  634O :  2.81  529O :  2.74  142O :  2.73  220O :  2.65  736O :  2.63  232O :  2.63  301O :  2.62  388O :  2.62  655O :  2.57  202O :  2.54  238O :  2.51  496O :  2.50
  601O :  2.47  125H :  2.45  397O :  2.43  166O :  2.42  169O :  2.42  364O :  2.42   80H :  2.35   16O :  2.35  478O :  2.35  250O :  2.33  487O :  2.33   94O :  2.33
  463O :  2.30  613O :  2.29  724O :  2.28   64O :  2.19   76O :  2.18  430O :  2.18   98H :  2.17  346O :  2.15  661O :  2.14  418O :  2.14  292O :  2.07   22O :  2.05
  274O :  1.98  600H :  1.97  739O :  1.94   19O :  1.92  556O :  1.91  391O :  1.90  351H :  1.90  163O :  1.89  241O :  1.88  466O :  1.87  265O :  1.84   51H :  1.82
  385O :  1.77  640O :  1.73  649O :  1.70  307O :  1.70  154O :  1.69  574O :  1.68  526O :  1.65  703O :  1.63  538O :  1.60  748O :  1.59  370O :  1.58  109O :  1.57
  604O :  1.50  188H :  1.48  379O :  1.48  352O :  1.47  473H :  1.47  427O :  1.46   26H :  1.43  217O :  1.42  333H :  1.41  442O :  1.41  151O :  1.40  404H :  1.38
  184O :  1.37  625O :  1.35  439O :  1.32   70O :  1.26  501H :  1.26  277O :  1.24  116H :  1.24  633H :  1.23  360H :  1.22  303H :  1.16  552H :  1.13  101H :  1.13
  752H :  1.11  298O :  1.10  369H :  1.09  637O :  1.09  662H :  1.07   67O :  1.06   38H :  1.04  610O :  1.04  690H :  1.03  621H :  0.96   99H :  0.94  373O :  0.94
  622O :  0.92  200H :  0.91   32H :  0.91   27H :  0.91   62H :  0.90  646O :  0.89  158H :  0.87  300H :  0.86  481O :  0.85  727O :  0.85  371H :  0.85  325O :  0.84
  565O :  0.84  297H :  0.83  253O :  0.83  400O :  0.83  114H :  0.83  332H :  0.82  698H :  0.82  434H :  0.78   21H :  0.76  456H :  0.75  213H :  0.75   78H :  0.75
  656H :  0.75    8H :  0.75  577O :  0.74  616O :  0.73  535O :  0.73    6H :  0.72  161H :  0.72  686H :  0.72  719H :  0.71  310O :  0.71  678H :  0.70   56H :  0.69
  128H :  0.68  345H :  0.68   28O :  0.67  660H :  0.67  568O :  0.65  230H :  0.64  509H :  0.63  105H :  0.63  419H :  0.62  720H :  0.62  572H :  0.62  445O :  0.60
  356H :  0.60  282H :  0.60  334O :  0.59  665H :  0.59  182H :  0.58  666H :  0.58   35H :  0.58  233H :  0.57  753H :  0.57  206H :  0.57  455H :  0.57  518H :  0.55
  224H :  0.55  378H :  0.55  694O :  0.54  383H :  0.54  668H :  0.53   39H :  0.53  398H :  0.53  435H :  0.52  291H :  0.51  152H :  0.51  172O :  0.51  119H :  0.50
   36H :  0.50  344H :  0.50  156H :  0.49  680H :  0.49   95H :  0.47  669H :  0.46  743H :  0.46  320H :  0.45  162H :  0.45  755H :  0.45  107H :  0.44  263H :  0.44
  716H :  0.44  564H :  0.44   71H :  0.44  458H :  0.43  413H :  0.43  197H :  0.42  701H :  0.42  636H :  0.42  741H :  0.41  533H :  0.41  717H :  0.41  138H :  0.41
  563H :  0.40  606H :  0.40   90H :  0.40  304O :  0.40  137H :  0.38  687H :  0.37  594H :  0.37  183H :  0.37  149H :  0.37  225H :  0.37  653H :  0.36  326H :  0.36
   18H :  0.36  460O :  0.35   14H :  0.35   57H :  0.35   75H :  0.35  219H :  0.34  702H :  0.34  411H :  0.34  208O :  0.34  595O :  0.33  567H :  0.33  246H :  0.33
  437H :  0.33  207H :  0.32  674H :  0.32  386H :  0.32  422H :  0.31   77H :  0.31  468H :  0.30  249H :  0.30  368H :  0.29  324H :  0.29  540H :  0.29  432H :  0.29
  236H :  0.29  632H :  0.29  363H :  0.29  569H :  0.28  644H :  0.28  384H :  0.28   24H :  0.27  677H :  0.27  293H :  0.26  281H :  0.26  672H :  0.26  579H :  0.26
  693H :  0.26  609H :  0.26  494H :  0.26  491H :  0.26  530H :  0.26  294H :  0.26  330H :  0.25  285H :  0.25  144H :  0.25  414H :  0.25  470H :  0.25  520O :  0.24
  465H :  0.24   92H :  0.24  122H :  0.24  113H :  0.24  270H :  0.23  321H :  0.23  108H :  0.23  721O :  0.23  146H :  0.23  545H :  0.23  174H :  0.23  203H :  0.23
  401H :  0.23  651H :  0.22  374H :  0.22  428H :  0.22  288H :  0.22  252H :  0.22  608H :  0.21  513H :  0.21  416H :  0.20   84H :  0.20  746H :  0.19  441H :  0.19
  539H :  0.19  443H :  0.19  480H :  0.19  735H :  0.19  104H :  0.19  186H :  0.19  365H :  0.19  245H :  0.19  675H :  0.18  627H :  0.18  497H :  0.18  486H :  0.18
  204H :  0.18  216H :  0.18  438H :  0.18  407H :  0.18   44H :  0.18   20H :  0.18  731H :  0.17  164H :  0.17  329H :  0.17  284H :  0.17  635H :  0.17  143H :  0.17
  713H :  0.17  599H :  0.17  189H :  0.16  389H :  0.16   29H :  0.16  612H :  0.16  110H :  0.16  387H :  0.16  173H :  0.16  336H :  0.15  582H :  0.15   81H :  0.15
  129H :  0.15  120H :  0.15  359H :  0.15  467H :  0.15  341H :  0.15   45H :  0.15  476H :  0.15  117H :  0.14  375H :  0.14  507H :  0.14  178O :  0.14  447H :  0.14
  714H :  0.13  257H :  0.13   42H :  0.13  327H :  0.13  308H :  0.13  527H :  0.13  489H :  0.13  347H :  0.13   69H :  0.13  380H :  0.13  560H :  0.12  704H :  0.12
  131H :  0.12  578H :  0.12  317H :  0.12  554H :  0.12   54H :  0.12   17H :  0.12  504H :  0.12  402H :  0.12  185H :  0.11  191H :  0.11  155H :  0.11   96H :  0.11
  261H :  0.11  318H :  0.11  357H :  0.11  689H :  0.10  596H :  0.10  630H :  0.10  738H :  0.10  638H :  0.10  707H :  0.10  195H :  0.10   48H :  0.10  179H :  0.10
  593H :  0.10  462H :  0.10  390H :  0.09  237H :  0.09  194H :  0.09  452H :  0.09  264H :  0.09  710H :  0.09   11H :  0.09  618H :  0.09  528H :  0.09  396H :  0.09
  543H :  0.09   74H :  0.08  269H :  0.08  314H :  0.08  180H :  0.08  534H :  0.08  215H :  0.08  750H :  0.08  566H :  0.08  366H :  0.08  449H :  0.08  485H :  0.07
  602H :  0.07  581H :  0.07  429H :  0.07  705H :  0.07  459H :  0.07  425H :  0.07  243H :  0.07  309H :  0.07
    3 LP   *******   0.00  -5.53999   0.86690 -33.31641   49O : 25.44  124O : 20.82  706O : 20.36    7O : 18.95  115O : 18.75  421O : 17.89   58O : 17.01  358O : 16.86  508O : 16.64  472O : 15.99  112O : 15.70  670O : 14.88
  541O : 14.02  598O : 13.81  586O : 13.51  322O : 12.67  631O : 11.73  229O : 11.70  403O : 11.62   97O : 11.55  187O : 11.16  562O : 11.10  313O : 10.81  754O : 10.69
  475O : 10.35  376O :  9.79  361O :  9.76  190O :  9.69  349O :  9.51  499O :  9.28  226O :  8.84  118O :  8.59   85O :  8.52   52O :  8.49  382O :  8.38  718O :  8.28
  691O :  8.25  199O :  8.25  733O :  8.14   55O :  8.08  658O :  7.74  544O :  7.52  100O :  7.49  121O :  7.32   43O :  7.24  688O :  7.20   73O :  7.12   40O :  6.91
   37O :  6.88  715O :  6.62  628O :  6.58  550O :  6.55  664O :  6.53  193O :  6.48  409O :  6.28   88O :  6.25  175O :  6.24  652O :  6.12  331O :  6.09   82O :  6.02
  469O :  6.02  160O :  5.95  676O :  5.87   79O :  5.80  127O :  5.78  730O :  5.71  667O :  5.65  559O :  5.65  268O :  5.65  448O :  5.59   91O :  5.57  511O :  5.48
  286O :  5.40  106O :  5.30  259O :  5.28  145O :  5.26  490O :  5.24  436O :  5.21  181O :  5.18   46O :  5.16  580O :  5.15  247O :  5.13  589O :  5.05  454O :  5.04
  262O :  4.94  103O :  4.93  592O :  4.89  136O :  4.84  709O :  4.71   61O :  4.70  679O :  4.64  283O :  4.55  157O :  4.54  457O :  4.40  484O :  4.37  211O :  4.21
  367O :  4.21   10O :  4.13  571O :  4.09  289O :  4.08  235O :  4.06  343O :  4.03  271O :  3.96  295O :  3.85  514O :  3.80  337O :  3.79  751O :  3.69  319O :  3.68
  316O :  3.66  130O :  3.61  745O :  3.56  547O :  3.55  394O :  3.42  502O :  3.38   50H :  3.37  412O :  3.37  685O :  3.35  700O :  3.33  532O :  3.30  139O :  3.26
  214O :  3.19  517O :  3.17   25O :  3.14  196O :  3.13  451O :  3.09   34O :  3.07  682O :  3.01  355O :  2.98  505O :  2.95  712O :  2.91  328O :  2.90    1O :  2.89
  673O :  2.89  493O :  2.88  415O :  2.87  406O :  2.83  424O :  2.81  742O :  2.80  340O :  2.77  280O :  2.75  583O :  2.74  643O :  2.65  619O :  2.65  697O :  2.64
  223O :  2.63   13O :  2.60  256O :  2.59  205O :  2.57  244O :  2.53  133O :  2.47  553O :  2.47    4O :  2.47  148O :  2.43  523O :  2.42  433O :  2.42  607O :  2.41
  634O :  2.39  529O :  2.33  142O :  2.32  220O :  2.25  736O :  2.25  232O :  2.24  301O :  2.24  388O :  2.23  655O :  2.19  238O :  2.14  496O :  2.13  202O :  2.12
  601O :  2.11  125H :  2.08  397O :  2.07  166O :  2.07  364O :  2.06  169O :  2.06   80H :  2.00  478O :  2.00   16O :  2.00  250O :  1.99  487O :  1.99   94O :  1.99
  463O :  1.96  613O :  1.95  724O :  1.95   64O :  1.87  430O :  1.86   76O :  1.86   98H :  1.86  346O :  1.84  661O :  1.83  418O :  1.82  292O :  1.77   22O :  1.75
  274O :  1.69  600H :  1.68  739O :  1.66   19O :  1.64  556O :  1.63  391O :  1.62  351H :  1.62  163O :  1.61  241O :  1.60  466O :  1.60  265O :  1.57   51H :  1.55
  385O :  1.51  640O :  1.47  649O :  1.45  154O :  1.44  307O :  1.44  574O :  1.43  526O :  1.41  703O :  1.39  538O :  1.36  748O :  1.36  370O :  1.35  109O :  1.34
  604O :  1.28  188H :  1.26  379O :  1.26  352O :  1.25  473H :  1.25  427O :  1.24   26H :  1.22  333H :  1.21  217O :  1.21  116H :  1.20  442O :  1.20  151O :  1.19
  404H :  1.18  184O :  1.17  625O :  1.15  439O :  1.13  501H :  1.07   70O :  1.07   32H :  1.07  277O :  1.06  633H :  1.05  360H :  1.04  303H :  0.99  552H :  0.97
  101H :  0.96  752H :  0.94  369H :  0.93  298O :  0.93  637O :  0.93  662H :  0.91   38H :  0.89   67O :  0.89  690H :  0.88  610O :  0.87  621H :  0.82   99H :  0.80
  373O :  0.80  622O :  0.79   27H :  0.79  200H :  0.78   62H :  0.77  646O :  0.76  158H :  0.74  300H :  0.73  481O :  0.73  727O :  0.72  371H :  0.72  325O :  0.72
  565O :  0.72  297H :  0.71  253O :  0.71  400O :  0.71  114H :  0.70  698H :  0.70  332H :  0.69  434H :  0.67   21H :  0.65  456H :  0.64  213H :  0.64   78H :  0.64
  656H :  0.64  577O :  0.63  616O :  0.63  535O :  0.62  161H :  0.62    6H :  0.62  686H :  0.61  719H :  0.61  310O :  0.60  678H :  0.59   56H :  0.59  128H :  0.58
  345H :  0.58   28O :  0.58  660H :  0.57  568O :  0.55  230H :  0.55  509H :  0.54  419H :  0.53  720H :  0.53  572H :  0.53    8H :  0.52  445O :  0.51  282H :  0.51
  334O :  0.51  665H :  0.50  356H :  0.50  182H :  0.50  666H :  0.49   35H :  0.49  233H :  0.49  753H :  0.49  206H :  0.49  455H :  0.48  518H :  0.47  224H :  0.47
  378H :  0.47  694O :  0.46  383H :  0.45  668H :  0.45  398H :  0.45  435H :  0.44   39H :  0.44  152H :  0.43  291H :  0.43  172O :  0.43  119H :  0.43  344H :  0.42
  156H :  0.42  680H :  0.42   36H :  0.41   95H :  0.40  669H :  0.39  743H :  0.39  320H :  0.39  162H :  0.38  105H :  0.38  755H :  0.38  107H :  0.38  263H :  0.38
  716H :  0.38   71H :  0.37  458H :  0.37  564H :  0.37  413H :  0.36  701H :  0.36  197H :  0.36  636H :  0.36  741H :  0.35  533H :  0.35  717H :  0.35  138H :  0.35
  606H :  0.34   90H :  0.34  304O :  0.34  137H :  0.33  563H :  0.33  687H :  0.32  594H :  0.32  183H :  0.31  149H :  0.31  225H :  0.31  653H :  0.31  326H :  0.31
   18H :  0.30  460O :  0.30   14H :  0.30   57H :  0.30   75H :  0.30  219H :  0.29  702H :  0.29  411H :  0.29  595O :  0.28  567H :  0.28  208O :  0.28  246H :  0.28
  437H :  0.28  207H :  0.28  674H :  0.27  386H :  0.27  422H :  0.27   77H :  0.26  468H :  0.26  249H :  0.26  368H :  0.25  324H :  0.25  540H :  0.25  432H :  0.25
  236H :  0.24  632H :  0.24  363H :  0.24  569H :  0.24  644H :  0.24  384H :  0.24   24H :  0.23  677H :  0.23  281H :  0.22  293H :  0.22  672H :  0.22  579H :  0.22
  693H :  0.22  609H :  0.22  494H :  0.22  491H :  0.22  530H :  0.22  294H :  0.22  330H :  0.22  285H :  0.22  144H :  0.21  470H :  0.21  414H :  0.21  520O :  0.21
   92H :  0.20  465H :  0.20  113H :  0.20  122H :  0.20  270H :  0.20  321H :  0.20  108H :  0.20  721O :  0.20  146H :  0.20  545H :  0.20  174H :  0.20  401H :  0.19
  651H :  0.19  374H :  0.19  428H :  0.19  288H :  0.19  203H :  0.19  252H :  0.18  608H :  0.18  513H :  0.18  117H :  0.18  416H :  0.17   84H :  0.17  104H :  0.16
  746H :  0.16  441H :  0.16  539H :  0.16  443H :  0.16  480H :  0.16  735H :  0.16  186H :  0.16  365H :  0.16  245H :  0.16  675H :  0.16   44H :  0.15  627H :  0.15
  497H :  0.15  486H :  0.15  216H :  0.15  438H :  0.15  407H :  0.15  731H :  0.15   20H :  0.15  164H :  0.15  204H :  0.15  329H :  0.15  284H :  0.15  635H :  0.15
  713H :  0.14  143H :  0.14  599H :  0.14  189H :  0.14  389H :  0.14   29H :  0.14  612H :  0.14  110H :  0.14  387H :  0.13  173H :  0.13   45H :  0.13  336H :  0.13
  582H :  0.13   81H :  0.13  129H :  0.13  120H :  0.13  359H :  0.13  467H :  0.13  341H :  0.13  476H :  0.12  375H :  0.12   31O :  0.12  507H :  0.12  178O :  0.12
  447H :  0.12  714H :  0.12  257H :  0.11  327H :  0.11  308H :  0.11   42H :  0.11  527H :  0.11  489H :  0.11  347H :  0.11  380H :  0.11  560H :  0.11  704H :  0.11
  578H :  0.10  317H :  0.10  131H :  0.10   69H :  0.10  554H :  0.10   54H :  0.10   17H :  0.10  504H :  0.10  402H :  0.10  185H :  0.10  191H :  0.10  155H :  0.10
   96H :  0.09  261H :  0.09  318H :  0.09  689H :  0.09  357H :  0.09  596H :  0.09  630H :  0.09  738H :  0.09  638H :  0.09  707H :  0.09  195H :  0.08   48H :  0.08
  179H :  0.08  593H :  0.08  462H :  0.08  390H :  0.08  237H :  0.08  194H :  0.08  264H :  0.08  452H :  0.08   11H :  0.08  710H :  0.08  618H :  0.07  528H :  0.07
  396H :  0.07  543H :  0.07   74H :  0.07  269H :  0.07  314H :  0.07
    4 LP   *******   0.00   3.23255  20.15756 -13.23606   49O : 25.24  124O : 23.91  706O : 20.20  115O : 18.61  421O : 17.75   58O : 16.89    7O : 16.80  358O : 16.73  508O : 16.52  472O : 15.87  112O : 15.58  670O : 14.77
  541O : 13.91  598O : 13.70  586O : 13.41  322O : 12.58  631O : 11.64  229O : 11.61  403O : 11.53   97O : 11.46  562O : 11.15  187O : 11.07  313O : 10.72  754O : 10.61
  475O : 10.27  376O :  9.71  361O :  9.68  190O :  9.62  349O :  9.43  499O :  9.21  226O :  8.77  118O :  8.52   85O :  8.45   52O :  8.42  382O :  8.31  718O :  8.21
  691O :  8.19  199O :  8.18  733O :  8.07   55O :  8.02  658O :  7.68  544O :  7.46  100O :  7.43  121O :  7.27  688O :  7.15   43O :  7.08   73O :  7.07   37O :  6.85
   40O :  6.81  715O :  6.57  628O :  6.53  550O :  6.50  664O :  6.48  193O :  6.43  409O :  6.23   88O :  6.20  175O :  6.17  652O :  6.07  331O :  6.05   82O :  5.97
  469O :  5.97  160O :  5.91  676O :  5.82   79O :  5.77  127O :  5.74  730O :  5.67  268O :  5.62  667O :  5.61  448O :  5.54   91O :  5.53  559O :  5.52  511O :  5.44
  286O :  5.36  106O :  5.25  259O :  5.24  145O :  5.22  490O :  5.20  436O :  5.17  181O :  5.14   46O :  5.13  454O :  5.13  580O :  5.11  247O :  5.09  589O :  5.01
  262O :  4.90  103O :  4.89  592O :  4.85  136O :  4.81  709O :  4.68   61O :  4.66  679O :  4.60  283O :  4.52  157O :  4.50  457O :  4.37  484O :  4.34  211O :  4.18
  367O :  4.17   10O :  4.10  571O :  4.06  289O :  4.05  235O :  4.03  343O :  4.00  271O :  3.93  295O :  3.82  514O :  3.77  337O :  3.76  751O :  3.66  319O :  3.65
  316O :  3.63  130O :  3.58  745O :  3.53  547O :  3.52  394O :  3.39  502O :  3.35   50H :  3.34  412O :  3.34  685O :  3.33  700O :  3.30  532O :  3.28  139O :  3.23
  214O :  3.17  517O :  3.15   25O :  3.12  196O :  3.10   34O :  3.05  451O :  3.01  682O :  2.98  355O :  2.96  505O :  2.93  712O :  2.89  328O :  2.88    1O :  2.87
  673O :  2.86  493O :  2.86  415O :  2.85  406O :  2.80  424O :  2.79  742O :  2.78  340O :  2.74  280O :  2.73  583O :  2.72  619O :  2.63  643O :  2.63  697O :  2.62
  223O :  2.61  256O :  2.57  205O :  2.55  244O :  2.52  553O :  2.45  133O :  2.45   13O :  2.43  523O :  2.40  433O :  2.40  607O :  2.39  634O :  2.38    4O :  2.37
  148O :  2.37  529O :  2.32  142O :  2.30  220O :  2.25  388O :  2.24  736O :  2.23  232O :  2.22  301O :  2.22  655O :  2.18  202O :  2.15  238O :  2.13  496O :  2.11
  601O :  2.09  397O :  2.05  166O :  2.05  169O :  2.05  364O :  2.05   80H :  1.99   16O :  1.99  478O :  1.99  250O :  1.98  487O :  1.97   94O :  1.97  463O :  1.94
  613O :  1.94  724O :  1.93  125H :  1.87   64O :  1.86  430O :  1.85   98H :  1.84   76O :  1.84  346O :  1.82  661O :  1.81  418O :  1.81  292O :  1.76   22O :  1.73
  274O :  1.67  600H :  1.67  739O :  1.65   19O :  1.62  556O :  1.62  391O :  1.61  351H :  1.61  163O :  1.60  241O :  1.59  466O :  1.59  265O :  1.56   51H :  1.54
  385O :  1.50  640O :  1.46  649O :  1.44  307O :  1.43  154O :  1.43  574O :  1.42  526O :  1.40  703O :  1.38  538O :  1.35  748O :  1.35  370O :  1.34  109O :  1.33
  604O :  1.27  379O :  1.25  188H :  1.25  352O :  1.24  473H :  1.24  427O :  1.23   26H :  1.21  333H :  1.20  217O :  1.20  116H :  1.19  442O :  1.19  151O :  1.18
  404H :  1.17  184O :  1.16  625O :  1.14  439O :  1.12  501H :  1.06   70O :  1.06  277O :  1.05  633H :  1.04  360H :  1.03  303H :  0.98  552H :  0.96  101H :  0.96
  752H :  0.94  369H :  0.93  298O :  0.92  637O :  0.92  662H :  0.91   67O :  0.90   38H :  0.88  690H :  0.88  610O :  0.87  621H :  0.82   99H :  0.80  373O :  0.80
   27H :  0.78  622O :  0.78  200H :  0.77   32H :  0.77   62H :  0.77  646O :  0.75  158H :  0.74  300H :  0.72  481O :  0.72  727O :  0.72  371H :  0.72  325O :  0.71
  565O :  0.71  297H :  0.71  253O :  0.70  400O :  0.70  114H :  0.70  698H :  0.69  332H :  0.68  434H :  0.66  456H :  0.66   21H :  0.64  213H :  0.64   78H :  0.64
  656H :  0.64    8H :  0.63  577O :  0.63  616O :  0.62  535O :  0.62  161H :  0.61    6H :  0.61  686H :  0.61  719H :  0.60  310O :  0.60  678H :  0.59   56H :  0.58
  128H :  0.58  345H :  0.58   28O :  0.57  660H :  0.56  568O :  0.55  230H :  0.54  509H :  0.53  419H :  0.53  720H :  0.53  572H :  0.53  445O :  0.51  282H :  0.51
  334O :  0.50  665H :  0.50  356H :  0.50  182H :  0.49  666H :  0.49   35H :  0.49  233H :  0.49  206H :  0.48  753H :  0.48  455H :  0.48  518H :  0.47  224H :  0.46
  378H :  0.46  694O :  0.46  383H :  0.45  668H :  0.45   39H :  0.45  398H :  0.45  435H :  0.44  291H :  0.43  152H :  0.43  172O :  0.43  119H :  0.43   36H :  0.42
  344H :  0.42  156H :  0.41  680H :  0.41   95H :  0.40  669H :  0.39  743H :  0.39  320H :  0.38  105H :  0.38  162H :  0.38  755H :  0.38  107H :  0.38  263H :  0.37
  716H :  0.37  564H :  0.37   71H :  0.37  458H :  0.36  413H :  0.36  197H :  0.36  701H :  0.36  636H :  0.36  741H :  0.35  533H :  0.35  717H :  0.35  138H :  0.34
  563H :  0.34  606H :  0.34   90H :  0.34  304O :  0.33  137H :  0.33  687H :  0.32  594H :  0.32  183H :  0.31  225H :  0.31  653H :  0.31  326H :  0.31   14H :  0.30
   18H :  0.30  460O :  0.30   57H :  0.30   75H :  0.29  149H :  0.29  219H :  0.29  702H :  0.29  411H :  0.28  595O :  0.28  567H :  0.28  208O :  0.28  246H :  0.28
  437H :  0.28  207H :  0.27  674H :  0.27  386H :  0.27  422H :  0.26   77H :  0.26  468H :  0.26  249H :  0.26  368H :  0.25  324H :  0.25  540H :  0.25  432H :  0.24
  236H :  0.24  632H :  0.24  363H :  0.24  569H :  0.24  644H :  0.24  384H :  0.23   24H :  0.23  677H :  0.23  281H :  0.22  293H :  0.22  672H :  0.22  579H :  0.22
  693H :  0.22  609H :  0.22  491H :  0.22  494H :  0.22  530H :  0.22  294H :  0.22  330H :  0.21  285H :  0.21  144H :  0.21  470H :  0.21  414H :  0.21  520O :  0.21
  465H :  0.20   92H :  0.20  113H :  0.20  122H :  0.20  270H :  0.20  321H :  0.20  108H :  0.20  721O :  0.20  146H :  0.19  545H :  0.19  174H :  0.19  203H :  0.19
  401H :  0.19  651H :  0.19  374H :  0.19  428H :  0.19  288H :  0.19  252H :  0.18  608H :  0.18  513H :  0.18  117H :  0.17  416H :  0.17   84H :  0.17  104H :  0.16
  746H :  0.16  441H :  0.16  539H :  0.16  443H :  0.16  480H :  0.16  735H :  0.16  186H :  0.16  365H :  0.16  245H :  0.16  675H :  0.16  627H :  0.15  497H :  0.15
  486H :  0.15  204H :  0.15  216H :  0.15  438H :  0.15  407H :  0.15   44H :  0.15  731H :  0.15   20H :  0.15  164H :  0.15  329H :  0.15  284H :  0.15  635H :  0.14
  713H :  0.14  143H :  0.14  599H :  0.14   45H :  0.14  189H :  0.14   29H :  0.14  612H :  0.14  389H :  0.13  110H :  0.13  387H :  0.13  173H :  0.13  336H :  0.13
  582H :  0.13   81H :  0.13  129H :  0.13  120H :  0.13  359H :  0.12  467H :  0.12  341H :  0.12  476H :  0.12  375H :  0.12  507H :  0.12  178O :  0.12  447H :  0.12
  714H :  0.11  257H :  0.11   42H :  0.11  327H :  0.11  308H :  0.11  527H :  0.11  560H :  0.11  489H :  0.11  347H :  0.11  380H :  0.11   69H :  0.11  704H :  0.11
  578H :  0.10  317H :  0.10  131H :  0.10  554H :  0.10   54H :  0.10   17H :  0.10  504H :  0.10  402H :  0.10  185H :  0.10  191H :  0.09  155H :  0.09   96H :  0.09
  261H :  0.09  318H :  0.09  689H :  0.09  357H :  0.09  596H :  0.09   15H :  0.09  630H :  0.09  738H :  0.09  638H :  0.09  390H :  0.09  707H :  0.08  195H :  0.08
   48H :  0.08  179H :  0.08  593H :  0.08  462H :  0.08  237H :  0.08  194H :  0.08  264H :  0.08   11H :  0.08  710H :  0.07  618H :  0.07  452H :  0.07  528H :  0.07
  396H :  0.07  543H :  0.07   74H :  0.07  269H :  0.07
    5 LP   *******   0.00 -26.96916   0.29112   5.77081   49O : 24.40  124O : 19.98  706O : 19.52  115O : 17.98  421O : 17.15   58O : 16.32  670O : 16.27    7O : 16.25  358O : 16.16  508O : 15.96  472O : 15.34  112O : 15.06
  541O : 13.44  598O : 13.26  586O : 12.95  322O : 12.16  631O : 11.25  229O : 11.22   97O : 11.08  403O : 10.92  562O : 10.77  187O : 10.71  313O : 10.36  754O : 10.25
  475O :  9.92  376O :  9.38  361O :  9.36  190O :  9.29  349O :  9.12  499O :  8.90  226O :  8.48  118O :  8.24   85O :  8.17   52O :  8.16  382O :  8.03  718O :  7.94
  691O :  7.91  199O :  7.90  733O :  7.80   55O :  7.75  658O :  7.42  544O :  7.21  100O :  7.19  121O :  7.02  688O :  6.91   43O :  6.89   73O :  6.83   37O :  6.61
   40O :  6.59  715O :  6.34  628O :  6.31  550O :  6.28  664O :  6.26  193O :  6.21  409O :  6.02   88O :  5.99  175O :  5.96  652O :  5.87  331O :  5.84  469O :  5.78
   82O :  5.77  160O :  5.71  676O :  5.63   79O :  5.57  127O :  5.54  730O :  5.47  667O :  5.42  559O :  5.42  268O :  5.41  448O :  5.36   91O :  5.35  511O :  5.26
  286O :  5.19  106O :  5.08  259O :  5.06  145O :  5.04  490O :  5.02  436O :  5.00  181O :  4.97   46O :  4.96  580O :  4.93  247O :  4.91  589O :  4.84  454O :  4.83
  262O :  4.74  103O :  4.73  592O :  4.69  136O :  4.66  709O :  4.52   61O :  4.51  679O :  4.45  283O :  4.36  157O :  4.35  457O :  4.22  484O :  4.19  211O :  4.04
  367O :  4.03   10O :  3.95  571O :  3.92  289O :  3.91  235O :  3.89  343O :  3.85  271O :  3.79  295O :  3.69  514O :  3.64  337O :  3.58  751O :  3.53  319O :  3.52
  316O :  3.51  130O :  3.46  745O :  3.41  547O :  3.40  394O :  3.28  502O :  3.24   50H :  3.23  412O :  3.23  685O :  3.22  700O :  3.19  532O :  3.17  139O :  3.06
  214O :  3.06  517O :  3.04  196O :  3.00   25O :  3.00  451O :  2.97   34O :  2.95  682O :  2.88  355O :  2.86  505O :  2.83  712O :  2.79  328O :  2.78    1O :  2.77
  673O :  2.77  415O :  2.76  493O :  2.76  406O :  2.71  424O :  2.70  742O :  2.69  340O :  2.65  280O :  2.64  583O :  2.63  643O :  2.54  619O :  2.54  697O :  2.53
  223O :  2.52   13O :  2.49  256O :  2.48  205O :  2.47  244O :  2.43  133O :  2.37  553O :  2.37    4O :  2.37  148O :  2.33  523O :  2.32  433O :  2.32  607O :  2.31
  634O :  2.30  529O :  2.24  142O :  2.22  220O :  2.17  736O :  2.15  232O :  2.15  301O :  2.15  388O :  2.14  655O :  2.10  202O :  2.08  238O :  2.05  496O :  2.04
  601O :  2.02  125H :  2.00  397O :  1.99  364O :  1.98  169O :  1.98  166O :  1.98   80H :  1.92   16O :  1.92  478O :  1.92  250O :  1.91  487O :  1.91   94O :  1.90
  463O :  1.88  613O :  1.87  724O :  1.87   76O :  1.85  661O :  1.80   64O :  1.80  430O :  1.79   98H :  1.78  346O :  1.76  418O :  1.75  292O :  1.70   22O :  1.67
  274O :  1.62  600H :  1.61  739O :  1.59   19O :  1.57  556O :  1.56  391O :  1.55  351H :  1.55  241O :  1.54  163O :  1.53  466O :  1.53  265O :  1.51   51H :  1.49
  385O :  1.45  640O :  1.41  649O :  1.39  307O :  1.39  154O :  1.39  574O :  1.37  526O :  1.35  703O :  1.33  538O :  1.31  748O :  1.30  370O :  1.29  109O :  1.29
  604O :  1.23  188H :  1.21  379O :  1.21  352O :  1.20  473H :  1.20  427O :  1.19   26H :  1.17  333H :  1.16  217O :  1.16  116H :  1.15  442O :  1.15  151O :  1.14
  184O :  1.12  625O :  1.11  404H :  1.10  439O :  1.08   70O :  1.03  501H :  1.03  277O :  1.02  633H :  1.00  360H :  0.99  303H :  0.95  552H :  0.93  101H :  0.92
  662H :  0.91  752H :  0.90  369H :  0.89  298O :  0.89  637O :  0.89   67O :  0.87   38H :  0.86  690H :  0.85  610O :  0.84  621H :  0.79   99H :  0.77  373O :  0.77
  622O :  0.75   27H :  0.75  200H :  0.75   32H :  0.75   62H :  0.74  646O :  0.73  158H :  0.71  300H :  0.70  481O :  0.70  727O :  0.69  371H :  0.69  325O :  0.69
  565O :  0.69  297H :  0.68  253O :  0.68  400O :  0.68  114H :  0.68  698H :  0.67  332H :  0.66  434H :  0.64   78H :  0.63   21H :  0.62  456H :  0.62  213H :  0.62
  656H :  0.61    8H :  0.61  577O :  0.60  616O :  0.60  535O :  0.60  161H :  0.59    6H :  0.59  686H :  0.59  719H :  0.58  310O :  0.58  678H :  0.57  345H :  0.56
   56H :  0.56  128H :  0.56   28O :  0.55  660H :  0.54  568O :  0.53  230H :  0.53  509H :  0.52  419H :  0.51  720H :  0.51  572H :  0.51  445O :  0.49  282H :  0.49
  334O :  0.48  665H :  0.48  356H :  0.48  182H :  0.48  666H :  0.47   35H :  0.47  233H :  0.47  753H :  0.47  206H :  0.47  455H :  0.47  518H :  0.45  224H :  0.45
  378H :  0.45  694O :  0.44  383H :  0.44  668H :  0.44   39H :  0.43  398H :  0.43  435H :  0.43  291H :  0.42  152H :  0.42  172O :  0.41  119H :  0.41   36H :  0.41
  344H :  0.40  156H :  0.40  680H :  0.40   95H :  0.39  669H :  0.38  743H :  0.37  320H :  0.37  162H :  0.37  105H :  0.37  755H :  0.37  107H :  0.36  263H :  0.36
  716H :  0.36  564H :  0.36   71H :  0.36  458H :  0.35  413H :  0.35  197H :  0.35  701H :  0.35  636H :  0.34  741H :  0.34  533H :  0.34  717H :  0.34  138H :  0.33
  563H :  0.33  606H :  0.33   90H :  0.33  304O :  0.32  137H :  0.31   77H :  0.31  687H :  0.31  594H :  0.31  183H :  0.30  149H :  0.30  225H :  0.30  653H :  0.30
  326H :  0.30   18H :  0.29  460O :  0.29   14H :  0.29   75H :  0.28   57H :  0.28  219H :  0.28  702H :  0.28  411H :  0.27  595O :  0.27  567H :  0.27  208O :  0.27
  246H :  0.27  437H :  0.27  207H :  0.27  674H :  0.26  386H :  0.26  422H :  0.26  468H :  0.25  249H :  0.25  368H :  0.24  324H :  0.24  540H :  0.24  432H :  0.24
  236H :  0.23  363H :  0.23  632H :  0.23  569H :  0.23  644H :  0.23  384H :  0.23   24H :  0.22  677H :  0.22  281H :  0.21  293H :  0.21  470H :  0.21  579H :  0.21
  693H :  0.21  609H :  0.21  494H :  0.21  491H :  0.21  530H :  0.21  294H :  0.21  330H :  0.21  285H :  0.21  144H :  0.20  414H :  0.20  520O :  0.20  465H :  0.20
   92H :  0.19  113H :  0.19  122H :  0.19  270H :  0.19  321H :  0.19  108H :  0.19  721O :  0.19  146H :  0.19  545H :  0.19  174H :  0.19  203H :  0.19  401H :  0.19
  651H :  0.18  374H :  0.18  428H :  0.18  288H :  0.18  252H :  0.18  608H :  0.17  513H :  0.17  117H :  0.17  416H :  0.17   84H :  0.16  104H :  0.16  746H :  0.16
  441H :  0.16  539H :  0.15  443H :  0.15  480H :  0.15  735H :  0.15  186H :  0.15  365H :  0.15  245H :  0.15  675H :  0.15  627H :  0.15  497H :  0.15  486H :  0.15
  204H :  0.15  216H :  0.14  438H :  0.14  407H :  0.14   44H :  0.14   20H :  0.14  731H :  0.14  329H :  0.14  284H :  0.14  635H :  0.14  713H :  0.14  143H :  0.14
  599H :  0.14  672H :  0.14  164H :  0.14  189H :  0.13  389H :  0.13   29H :  0.13  612H :  0.13  110H :  0.13  387H :  0.13  173H :  0.13  336H :  0.12  582H :  0.12
  129H :  0.12   81H :  0.12  120H :  0.12  359H :  0.12  467H :  0.12   45H :  0.12  341H :  0.12  476H :  0.12  375H :  0.11  507H :  0.11  178O :  0.11  447H :  0.11
  714H :  0.11  257H :  0.11   42H :  0.11  327H :  0.11  308H :  0.11  527H :  0.11  489H :  0.10  347H :  0.10   69H :  0.10  380H :  0.10  560H :  0.10  704H :  0.10
  578H :  0.10  317H :  0.10  131H :  0.10  554H :  0.10   54H :  0.10   17H :  0.10  504H :  0.09  402H :  0.09  185H :  0.09  191H :  0.09  155H :  0.09   96H :  0.09
  261H :  0.09  318H :  0.09  689H :  0.09  357H :  0.09  596H :  0.09  638H :  0.08  630H :  0.08  738H :  0.08  707H :  0.08  195H :  0.08   48H :  0.08  179H :  0.08
  593H :  0.08  462H :  0.08  390H :  0.08  237H :  0.08  194H :  0.08  264H :  0.07  452H :  0.07   11H :  0.07  710H :  0.07  618H :  0.07  528H :  0.07  396H :  0.07
    6 LP   *******   0.00  51.84471 -29.97059 -26.30594   49O : 22.99  124O : 18.83  508O : 18.42  706O : 18.40  115O : 16.95  421O : 16.16   58O : 15.38    7O : 15.31  358O : 15.24  472O : 14.46  112O : 14.19  670O : 13.45
  541O : 12.67  598O : 12.48  586O : 12.21  322O : 11.46  631O : 10.60  229O : 10.58  403O : 10.50   97O : 10.44  562O : 10.15  187O : 10.09  313O :  9.77  754O :  9.66
  475O :  9.36  376O :  8.84  361O :  8.82  190O :  8.76  349O :  8.59  499O :  8.39  226O :  7.99  118O :  7.76   85O :  7.70   52O :  7.67  691O :  7.58  382O :  7.57
  718O :  7.48  199O :  7.45  733O :  7.36   55O :  7.30  658O :  7.00  544O :  6.79  100O :  6.78  121O :  6.62  688O :  6.51   43O :  6.49   73O :  6.44   37O :  6.24
   40O :  6.22  715O :  5.98  550O :  5.92  664O :  5.90  628O :  5.87  193O :  5.86  409O :  5.67   88O :  5.64  175O :  5.62  652O :  5.54  331O :  5.51   82O :  5.44
  469O :  5.44  160O :  5.39  676O :  5.30   79O :  5.25  127O :  5.22  730O :  5.16  667O :  5.11  559O :  5.11  268O :  5.10  448O :  5.05   91O :  5.04  511O :  4.96
  286O :  4.88  106O :  4.79  259O :  4.77  145O :  4.75  490O :  4.73  436O :  4.71   46O :  4.68  181O :  4.68  580O :  4.65  247O :  4.63  589O :  4.56  454O :  4.56
  262O :  4.47  103O :  4.46  592O :  4.42  136O :  4.37  709O :  4.26   61O :  4.25  679O :  4.19  283O :  4.11  157O :  4.10  457O :  3.97  484O :  3.95  211O :  3.81
  367O :  3.80   10O :  3.73  571O :  3.70  289O :  3.69  235O :  3.67  343O :  3.64  271O :  3.58  295O :  3.48  514O :  3.43  337O :  3.43  751O :  3.33  319O :  3.32
  316O :  3.30  130O :  3.26  745O :  3.21  547O :  3.21  394O :  3.09  502O :  3.05   50H :  3.04  412O :  3.04  685O :  3.03  700O :  3.01  532O :  2.99  139O :  2.94
  517O :  2.86  214O :  2.85   25O :  2.84  196O :  2.83  451O :  2.80   34O :  2.78  682O :  2.72  355O :  2.69  505O :  2.67  712O :  2.63  328O :  2.62  673O :  2.61
  493O :  2.60  415O :  2.60  406O :  2.55  424O :  2.54  742O :  2.53    1O :  2.53  340O :  2.50  280O :  2.48  583O :  2.48  619O :  2.39  643O :  2.39  697O :  2.38
  223O :  2.37   13O :  2.35  256O :  2.34  205O :  2.32  244O :  2.29  133O :  2.24  553O :  2.23    4O :  2.23  148O :  2.19  523O :  2.19  433O :  2.18  607O :  2.18
  634O :  2.16  529O :  2.11  142O :  2.09  220O :  2.05  736O :  2.03  232O :  2.02  301O :  2.02  388O :  2.02  655O :  1.98  202O :  1.96  238O :  1.94  496O :  1.93
  601O :  1.91  125H :  1.88  397O :  1.87  166O :  1.87  364O :  1.86  169O :  1.86   80H :  1.81   16O :  1.81  478O :  1.81  250O :  1.80  487O :  1.80   94O :  1.79
  463O :  1.77  613O :  1.76  724O :  1.76   64O :  1.69  430O :  1.68   76O :  1.68   98H :  1.68  346O :  1.66  661O :  1.65  418O :  1.64  292O :  1.60   22O :  1.58
  274O :  1.52  600H :  1.52  739O :  1.50   19O :  1.48  556O :  1.47  391O :  1.46  351H :  1.46  163O :  1.46  241O :  1.45  466O :  1.44  265O :  1.42   51H :  1.40
  385O :  1.37  640O :  1.33  649O :  1.31  307O :  1.31  154O :  1.31  574O :  1.29  526O :  1.27  703O :  1.25  538O :  1.23  748O :  1.23  370O :  1.22  109O :  1.21
  604O :  1.16  188H :  1.14  352O :  1.13  473H :  1.13  379O :  1.13  427O :  1.12   26H :  1.11  151O :  1.10  333H :  1.09  217O :  1.09  116H :  1.08  442O :  1.08
  404H :  1.07  184O :  1.06  625O :  1.04  439O :  1.02   70O :  0.97  501H :  0.96  277O :  0.96  633H :  0.95  360H :  0.94  303H :  0.89  101H :  0.87  552H :  0.86
  752H :  0.85  369H :  0.84  298O :  0.84  637O :  0.84  662H :  0.82   67O :  0.82   38H :  0.80  690H :  0.80  610O :  0.79  621H :  0.74   99H :  0.73  373O :  0.72
  622O :  0.71   27H :  0.71  200H :  0.70   32H :  0.70   62H :  0.70  646O :  0.68  158H :  0.67  300H :  0.66  481O :  0.66  727O :  0.65  371H :  0.65  325O :  0.65
  565O :  0.65  297H :  0.64  253O :  0.64  400O :  0.64  114H :  0.64  698H :  0.63  332H :  0.62  434H :  0.60   21H :  0.58  456H :  0.58  213H :  0.58   78H :  0.58
  656H :  0.58    8H :  0.58  577O :  0.57  616O :  0.57  535O :  0.56  161H :  0.56    6H :  0.56  686H :  0.55  719H :  0.55  310O :  0.54  678H :  0.54   56H :  0.53
  128H :  0.53  345H :  0.53   28O :  0.52  660H :  0.51  568O :  0.50  230H :  0.50  720H :  0.48  572H :  0.48  419H :  0.47  445O :  0.46  282H :  0.46  665H :  0.46
  334O :  0.46  356H :  0.45  182H :  0.45  666H :  0.45   35H :  0.44  233H :  0.44  753H :  0.44  206H :  0.44  455H :  0.44  518H :  0.43  224H :  0.42  378H :  0.42
  694O :  0.42  509H :  0.41  383H :  0.41  668H :  0.41   39H :  0.41  398H :  0.41  435H :  0.40  291H :  0.39  172O :  0.39  152H :  0.39  119H :  0.39   36H :  0.38
  344H :  0.38  156H :  0.38  680H :  0.38   95H :  0.37  669H :  0.36  743H :  0.35  320H :  0.35  162H :  0.35  105H :  0.35  755H :  0.35  107H :  0.34  263H :  0.34
  716H :  0.34  564H :  0.34   71H :  0.34  458H :  0.33  197H :  0.33  413H :  0.33  701H :  0.33  636H :  0.32  741H :  0.32  533H :  0.32  717H :  0.32  138H :  0.31
  606H :  0.31  563H :  0.31   90H :  0.31  304O :  0.30  137H :  0.30  687H :  0.29  594H :  0.29  183H :  0.28  653H :  0.28  149H :  0.28  225H :  0.28  326H :  0.28
   18H :  0.27  460O :  0.27   14H :  0.27   57H :  0.27   75H :  0.27  219H :  0.26  702H :  0.26  411H :  0.26  595O :  0.26  567H :  0.26  208O :  0.26  246H :  0.25
  437H :  0.25  207H :  0.25  674H :  0.25  386H :  0.25  422H :  0.24   77H :  0.24  468H :  0.23  249H :  0.23  368H :  0.23  324H :  0.23  540H :  0.23  432H :  0.22
  236H :  0.22  632H :  0.22  363H :  0.22  569H :  0.22  644H :  0.22  384H :  0.21   24H :  0.21  677H :  0.21  281H :  0.20  293H :  0.20  672H :  0.20  579H :  0.20
  693H :  0.20  609H :  0.20  494H :  0.20  491H :  0.20  530H :  0.20  294H :  0.20  330H :  0.19  285H :  0.19  144H :  0.19  470H :  0.19  414H :  0.19  520O :  0.19
  465H :  0.18   92H :  0.18  113H :  0.18  122H :  0.18  270H :  0.18  321H :  0.18  108H :  0.18  721O :  0.18  146H :  0.18  545H :  0.18  174H :  0.18  203H :  0.17
  401H :  0.17  651H :  0.17  374H :  0.17  428H :  0.17  288H :  0.17  252H :  0.17  608H :  0.16  513H :  0.16  117H :  0.16  416H :  0.16   84H :  0.16  104H :  0.15
  746H :  0.15  441H :  0.15  539H :  0.15  443H :  0.15  735H :  0.15  480H :  0.14  186H :  0.14  365H :  0.14  245H :  0.14  675H :  0.14  627H :  0.14  497H :  0.14
  486H :  0.14  204H :  0.14  438H :  0.14  407H :  0.14   44H :  0.14   20H :  0.13  731H :  0.13  164H :  0.13  216H :  0.13  329H :  0.13  284H :  0.13  635H :  0.13
  713H :  0.13  143H :  0.13  599H :  0.13  189H :  0.13  389H :  0.13   29H :  0.13  612H :  0.12  110H :  0.12  387H :  0.12  173H :  0.12  336H :  0.12  582H :  0.11
   81H :  0.11  129H :  0.11  120H :  0.11  359H :  0.11  467H :  0.11   45H :  0.11  341H :  0.11  476H :  0.11  375H :  0.11  507H :  0.11  447H :  0.11  178O :  0.11
  714H :  0.10  257H :  0.10   42H :  0.10  327H :  0.10  308H :  0.10  527H :  0.10  489H :  0.10  347H :  0.10   69H :  0.10  560H :  0.10  704H :  0.10  578H :  0.09
  317H :  0.09  131H :  0.09  554H :  0.09   54H :  0.09   17H :  0.09  504H :  0.09  402H :  0.09  185H :  0.09  191H :  0.09  155H :  0.09   96H :  0.09  261H :  0.09
  318H :  0.08  689H :  0.08  357H :  0.08  596H :  0.08  738H :  0.08  638H :  0.08  707H :  0.08  195H :  0.08  630H :  0.08   48H :  0.08  179H :  0.07  593H :  0.07
  462H :  0.07  390H :  0.07  237H :  0.07  194H :  0.07  264H :  0.07  452H :  0.07
    7 LP   *******   0.00 -27.32478  25.49652 -21.60108   49O : 22.59  124O : 18.51  706O : 18.07  115O : 16.65  112O : 15.99  421O : 15.88   58O : 15.11    7O : 15.05  358O : 14.97  508O : 14.78  472O : 14.22  670O : 13.22
  541O : 12.45  598O : 12.26  586O : 12.00  322O : 11.30  631O : 10.41  229O : 10.39  403O : 10.32   97O : 10.26  562O :  9.97  187O :  9.91  313O :  9.58  754O :  9.49
  475O :  9.19  376O :  8.69  361O :  8.67  190O :  8.60  349O :  8.55  499O :  8.24  226O :  7.85  118O :  7.63   85O :  7.56   52O :  7.54  382O :  7.44  718O :  7.35
  691O :  7.33  199O :  7.32  733O :  7.22   55O :  7.17  658O :  6.87  544O :  6.67  100O :  6.65  121O :  6.50  688O :  6.40   43O :  6.38   73O :  6.32   37O :  6.13
   40O :  6.01  715O :  5.87  628O :  5.84  550O :  5.82  664O :  5.80  193O :  5.75  409O :  5.57   88O :  5.55  175O :  5.52  652O :  5.43  331O :  5.41   82O :  5.34
  469O :  5.34  160O :  5.29  676O :  5.21   79O :  5.17  127O :  5.13  730O :  5.07  667O :  5.02  559O :  5.02  268O :  5.01  448O :  4.96   91O :  4.95  511O :  4.87
  286O :  4.79  106O :  4.70  259O :  4.69  145O :  4.67  490O :  4.65  436O :  4.63   46O :  4.60  181O :  4.59  580O :  4.57  247O :  4.55  589O :  4.48  454O :  4.48
  262O :  4.39  103O :  4.38  592O :  4.34  136O :  4.19  709O :  4.18   61O :  4.17  679O :  4.12  283O :  4.04  157O :  4.03  457O :  3.90  484O :  3.88  211O :  3.74
  367O :  3.73   10O :  3.67  571O :  3.63  289O :  3.62  235O :  3.60  343O :  3.57  271O :  3.52  295O :  3.40  514O :  3.37  337O :  3.37  751O :  3.27  319O :  3.26
  316O :  3.24  130O :  3.21  745O :  3.16  547O :  3.15  394O :  3.03  502O :  3.00   50H :  2.99  412O :  2.99  685O :  2.98  700O :  2.95  532O :  2.93  139O :  2.89
  214O :  2.83  517O :  2.81   25O :  2.79  196O :  2.78  451O :  2.75   34O :  2.72  682O :  2.67  355O :  2.64  505O :  2.62  712O :  2.58  328O :  2.57    1O :  2.57
  415O :  2.56  673O :  2.56  493O :  2.55  406O :  2.51  424O :  2.50  742O :  2.49  340O :  2.46  280O :  2.44  583O :  2.43  643O :  2.35  619O :  2.35  697O :  2.34
  223O :  2.34   13O :  2.31  256O :  2.30  205O :  2.28  244O :  2.25  133O :  2.20  553O :  2.20    4O :  2.19  148O :  2.16  523O :  2.15  433O :  2.14  607O :  2.14
  634O :  2.13  529O :  2.07  142O :  2.06  220O :  2.01  736O :  1.99  232O :  1.99  301O :  1.99  388O :  1.99  655O :  1.95  202O :  1.93  238O :  1.90  496O :  1.89
  601O :  1.87  125H :  1.85  397O :  1.84  166O :  1.84  364O :  1.83  169O :  1.83   80H :  1.78   16O :  1.78  478O :  1.78  250O :  1.77  487O :  1.76   94O :  1.76
  463O :  1.74  613O :  1.73  724O :  1.73   64O :  1.66  430O :  1.65   76O :  1.65   98H :  1.65  346O :  1.63  661O :  1.62  418O :  1.62  292O :  1.56   22O :  1.55
  351H :  1.50  274O :  1.50  600H :  1.49  739O :  1.47   19O :  1.45  556O :  1.45  391O :  1.44  241O :  1.43  163O :  1.43  466O :  1.42  265O :  1.40   51H :  1.38
  385O :  1.34  640O :  1.31  649O :  1.29  307O :  1.28  154O :  1.27  574O :  1.27  526O :  1.25  703O :  1.23  538O :  1.21  748O :  1.21  370O :  1.20  109O :  1.19
  604O :  1.14  188H :  1.12  379O :  1.12  352O :  1.11  473H :  1.11  427O :  1.10   26H :  1.09  333H :  1.07  217O :  1.07  116H :  1.07  442O :  1.06  151O :  1.06
  404H :  1.05  184O :  1.04  625O :  1.02  439O :  1.00   70O :  0.95  501H :  0.95  277O :  0.94  633H :  0.93  360H :  0.92  303H :  0.88  552H :  0.86  101H :  0.85
  752H :  0.84  369H :  0.83  298O :  0.83  637O :  0.82  662H :  0.81   67O :  0.80   38H :  0.79  690H :  0.78  610O :  0.78  621H :  0.73   99H :  0.71  373O :  0.71
  622O :  0.70   27H :  0.70  200H :  0.69   32H :  0.69   62H :  0.69  646O :  0.67  158H :  0.66  300H :  0.65  481O :  0.64  727O :  0.64  371H :  0.64  325O :  0.64
  565O :  0.63  253O :  0.63  400O :  0.63  297H :  0.63  698H :  0.62  332H :  0.61  434H :  0.59  310O :  0.58   21H :  0.57  456H :  0.57  213H :  0.57   78H :  0.57
  656H :  0.57    8H :  0.57  577O :  0.56  616O :  0.56  535O :  0.55  161H :  0.55    6H :  0.55  686H :  0.55  719H :  0.54  114H :  0.53  678H :  0.53   56H :  0.52
  128H :  0.52  345H :  0.52   28O :  0.51  660H :  0.50  568O :  0.49  230H :  0.49  509H :  0.48  419H :  0.47  720H :  0.47  572H :  0.47  445O :  0.46  282H :  0.45
  334O :  0.45  665H :  0.45  356H :  0.45  182H :  0.44  666H :  0.44   35H :  0.44  233H :  0.43  753H :  0.43  206H :  0.43  455H :  0.43  518H :  0.42  224H :  0.41
  378H :  0.41  694O :  0.41  383H :  0.40  668H :  0.40   39H :  0.40  398H :  0.40  435H :  0.39  291H :  0.39  152H :  0.39  172O :  0.38  119H :  0.38   36H :  0.38
  344H :  0.38  680H :  0.37  156H :  0.37   95H :  0.36  669H :  0.35  743H :  0.35  320H :  0.34  105H :  0.34  162H :  0.34  755H :  0.34  107H :  0.34  263H :  0.34
  716H :  0.33  564H :  0.33   71H :  0.33  458H :  0.33  413H :  0.32  197H :  0.32  701H :  0.32  636H :  0.32  741H :  0.31  533H :  0.31  717H :  0.31  138H :  0.31
  563H :  0.30  606H :  0.30   90H :  0.30  304O :  0.30  137H :  0.29  687H :  0.28  594H :  0.28  183H :  0.28  149H :  0.28  225H :  0.28  653H :  0.28  326H :  0.27
   18H :  0.27  460O :  0.27   14H :  0.27   57H :  0.26   75H :  0.26  219H :  0.26  702H :  0.26  411H :  0.25  595O :  0.25  567H :  0.25  208O :  0.25  437H :  0.25
  246H :  0.25  207H :  0.25  674H :  0.24  386H :  0.24  422H :  0.24   77H :  0.23  468H :  0.23  249H :  0.23  368H :  0.22  540H :  0.22  324H :  0.22  432H :  0.22
  236H :  0.22  632H :  0.22  363H :  0.22  569H :  0.21  644H :  0.21  384H :  0.21   24H :  0.21  677H :  0.21  293H :  0.20  281H :  0.20  672H :  0.20  579H :  0.20
  693H :  0.20  609H :  0.20  494H :  0.19  491H :  0.19  530H :  0.19  294H :  0.19  330H :  0.19  285H :  0.19  144H :  0.19  470H :  0.19  414H :  0.19  520O :  0.18
  465H :  0.18   92H :  0.18  122H :  0.18  270H :  0.18  321H :  0.18  108H :  0.18  721O :  0.17  146H :  0.17  545H :  0.17  174H :  0.17  203H :  0.17  401H :  0.17
  651H :  0.17  374H :  0.17  428H :  0.17  288H :  0.17  252H :  0.16  608H :  0.16  513H :  0.16  117H :  0.16  416H :  0.16   84H :  0.15  104H :  0.15  746H :  0.15
  441H :  0.14  539H :  0.14  443H :  0.14  480H :  0.14  735H :  0.14  186H :  0.14  365H :  0.14  675H :  0.14  245H :  0.14  113H :  0.14  627H :  0.14  497H :  0.14
  486H :  0.14  204H :  0.13  216H :  0.13  438H :  0.13  407H :  0.13   44H :  0.13   20H :  0.13  731H :  0.13  164H :  0.13  329H :  0.13  284H :  0.13  635H :  0.13
  713H :  0.13  143H :  0.13  599H :  0.13  189H :  0.12  389H :  0.12   29H :  0.12  612H :  0.12  387H :  0.12  173H :  0.12  110H :  0.12  336H :  0.11  582H :  0.11
   81H :  0.11  129H :  0.11  120H :  0.11  359H :  0.11  467H :  0.11   45H :  0.11  341H :  0.11  476H :  0.11  375H :  0.11  507H :  0.10  178O :  0.10  447H :  0.10
  714H :  0.10  257H :  0.10  327H :  0.10  308H :  0.10  527H :  0.10  489H :  0.10  347H :  0.10   42H :  0.10   69H :  0.09  380H :  0.09  560H :  0.09  704H :  0.09
  578H :  0.09  317H :  0.09  131H :  0.09  554H :  0.09   54H :  0.09   17H :  0.09  504H :  0.09  402H :  0.09  185H :  0.09  155H :  0.09  191H :  0.08   96H :  0.08
  261H :  0.08  318H :  0.08  689H :  0.08  357H :  0.08  596H :  0.08  630H :  0.08  738H :  0.08  638H :  0.08  707H :  0.08  195H :  0.07   48H :  0.07  179H :  0.07
  593H :  0.07  462H :  0.07  390H :  0.07  237H :  0.07  194H :  0.07
    8 LP   *******   0.00  53.69744 -14.96881   7.54981   49O : 22.28  421O : 18.55  124O : 18.26  706O : 17.84  115O : 16.43   58O : 14.90    7O : 14.84  358O : 14.78  508O : 14.59  472O : 14.01  112O : 13.75  670O : 13.04
  541O : 12.28  598O : 12.10  586O : 11.84  322O : 11.11  631O : 10.27  229O : 10.25  403O : 10.18   97O : 10.11  562O :  9.84  187O :  9.78  313O :  9.47  754O :  9.37
  475O :  9.07  376O :  8.57  361O :  8.55  190O :  8.49  349O :  8.33  499O :  8.13  226O :  7.75  118O :  7.52   85O :  7.46   52O :  7.44  382O :  7.33  718O :  7.25
  691O :  7.23  199O :  7.22  733O :  7.13   55O :  7.08  544O :  6.58  100O :  6.56  658O :  6.50  121O :  6.41  688O :  6.31   43O :  6.30   73O :  6.24   37O :  6.05
   40O :  6.03  628O :  5.90  715O :  5.80  550O :  5.74  664O :  5.72  193O :  5.67  409O :  5.50   88O :  5.47  175O :  5.45  652O :  5.36  331O :  5.34   82O :  5.27
  469O :  5.27  160O :  5.22  676O :  5.14   79O :  5.09  127O :  5.06  730O :  4.99  667O :  4.95  559O :  4.95  268O :  4.95  448O :  4.89   91O :  4.89  511O :  4.80
  286O :  4.73  106O :  4.64  145O :  4.63  259O :  4.63  490O :  4.59  436O :  4.56   46O :  4.54  181O :  4.53  580O :  4.51  247O :  4.49  589O :  4.42  454O :  4.42
  103O :  4.32  262O :  4.29  592O :  4.28  136O :  4.24  709O :  4.13   61O :  4.12  679O :  4.07  157O :  4.00  283O :  3.99  457O :  3.85  484O :  3.83  211O :  3.69
  367O :  3.68   10O :  3.62  571O :  3.59  289O :  3.57  235O :  3.56  343O :  3.53  271O :  3.47  295O :  3.37  514O :  3.33  337O :  3.32  751O :  3.23  319O :  3.22
  316O :  3.20  130O :  3.17  745O :  3.12  547O :  3.11  394O :  2.99  502O :  2.96   50H :  2.95  412O :  2.95  685O :  2.94  700O :  2.91  532O :  2.90  139O :  2.85
  214O :  2.79  517O :  2.78   25O :  2.75  196O :  2.74  451O :  2.71   34O :  2.69  682O :  2.64  355O :  2.61  505O :  2.59  712O :  2.55  328O :  2.54    1O :  2.53
  673O :  2.53  493O :  2.52  415O :  2.52  406O :  2.48  424O :  2.46  742O :  2.45  340O :  2.42  280O :  2.41  583O :  2.40  619O :  2.32  643O :  2.32  697O :  2.31
  223O :  2.30   13O :  2.28  256O :  2.26  205O :  2.25  244O :  2.22  133O :  2.17  553O :  2.17    4O :  2.16  148O :  2.13  523O :  2.12  433O :  2.12  607O :  2.11
  634O :  2.10  529O :  2.06  142O :  2.03  220O :  1.98  736O :  1.97  232O :  1.96  301O :  1.96  388O :  1.96  655O :  1.92  202O :  1.90  238O :  1.88  496O :  1.87
  601O :  1.85  125H :  1.83  397O :  1.81  166O :  1.81  364O :  1.81  169O :  1.81   80H :  1.76   16O :  1.75  478O :  1.75  250O :  1.74  487O :  1.74   94O :  1.74
  463O :  1.72  613O :  1.71  724O :  1.71   64O :  1.63  430O :  1.63   76O :  1.63   98H :  1.63  346O :  1.61  661O :  1.60  418O :  1.59  292O :  1.55   22O :  1.53
  274O :  1.48  600H :  1.47  739O :  1.45   19O :  1.43  556O :  1.43  391O :  1.42  351H :  1.42  163O :  1.41  241O :  1.41  466O :  1.40  265O :  1.38   51H :  1.36
  385O :  1.33  640O :  1.29  649O :  1.27  307O :  1.27  154O :  1.27  574O :  1.25  526O :  1.24  703O :  1.22  538O :  1.19  748O :  1.19  370O :  1.18  109O :  1.18
  604O :  1.12  188H :  1.11  379O :  1.11  352O :  1.10  473H :  1.10  427O :  1.09   26H :  1.07  333H :  1.06  217O :  1.06  116H :  1.05  442O :  1.05  151O :  1.04
  404H :  1.04  184O :  1.02  625O :  1.01  439O :  1.00   70O :  0.94  501H :  0.94  277O :  0.93  633H :  0.92  360H :  0.91  303H :  0.87  552H :  0.85  101H :  0.84
  752H :  0.83  369H :  0.82  298O :  0.81  637O :  0.81  662H :  0.80   67O :  0.79   38H :  0.78  690H :  0.77  610O :  0.77  621H :  0.72   99H :  0.70  373O :  0.70
  622O :  0.69   27H :  0.69  200H :  0.68   32H :  0.68   62H :  0.68  300H :  0.67  646O :  0.66  158H :  0.65  481O :  0.64  727O :  0.63  371H :  0.63  325O :  0.63
  565O :  0.63  297H :  0.62  253O :  0.62  400O :  0.62  114H :  0.62  698H :  0.61  332H :  0.60  434H :  0.59   21H :  0.57  456H :  0.56  213H :  0.56   78H :  0.56
  656H :  0.56    8H :  0.56  577O :  0.55  616O :  0.55  535O :  0.54  161H :  0.54    6H :  0.54  686H :  0.54  719H :  0.53  310O :  0.53  678H :  0.52   56H :  0.51
  128H :  0.51  345H :  0.51   28O :  0.50  660H :  0.50  568O :  0.48  230H :  0.48  509H :  0.47  720H :  0.46  572H :  0.46  419H :  0.46  445O :  0.45  282H :  0.45
  334O :  0.44  665H :  0.44  356H :  0.44  182H :  0.43  666H :  0.43   35H :  0.43  233H :  0.43  753H :  0.43  206H :  0.43  455H :  0.42  518H :  0.41  224H :  0.41
  378H :  0.41  694O :  0.40  668H :  0.40   39H :  0.39  383H :  0.39  398H :  0.39  435H :  0.39  291H :  0.38  152H :  0.38  172O :  0.38  119H :  0.38   36H :  0.37
  344H :  0.37  156H :  0.37  680H :  0.37   95H :  0.35  669H :  0.34  743H :  0.34  320H :  0.34  162H :  0.34  105H :  0.34  755H :  0.33  107H :  0.33  716H :  0.33
  564H :  0.33   71H :  0.33  458H :  0.32  413H :  0.32  197H :  0.32  701H :  0.32  263H :  0.31  636H :  0.31  741H :  0.31  533H :  0.31  717H :  0.31  138H :  0.30
  563H :  0.30  606H :  0.30   90H :  0.30  304O :  0.30  137H :  0.29  687H :  0.28  594H :  0.28  183H :  0.27  149H :  0.27  225H :  0.27  653H :  0.27  326H :  0.27
   18H :  0.27  460O :  0.26   14H :  0.26   57H :  0.26   75H :  0.26  219H :  0.26  702H :  0.25  411H :  0.25  595O :  0.25  567H :  0.25  208O :  0.25  246H :  0.25
  437H :  0.24  207H :  0.24  674H :  0.24  386H :  0.24   77H :  0.23  468H :  0.23  249H :  0.23  368H :  0.22  324H :  0.22  540H :  0.22  432H :  0.22  236H :  0.21
  632H :  0.21  363H :  0.21  569H :  0.21  644H :  0.21   24H :  0.21  384H :  0.20  677H :  0.20  281H :  0.20  293H :  0.20  672H :  0.19  579H :  0.19  693H :  0.19
  609H :  0.19  494H :  0.19  491H :  0.19  294H :  0.19  330H :  0.19  285H :  0.19  144H :  0.19  530H :  0.19  470H :  0.18  146H :  0.18  520O :  0.18  414H :  0.18
  465H :  0.18   92H :  0.18  113H :  0.18  422H :  0.18  122H :  0.18  270H :  0.17  321H :  0.17  108H :  0.17  721O :  0.17  545H :  0.17  174H :  0.17  203H :  0.17
  401H :  0.17  651H :  0.17  374H :  0.17  428H :  0.17  288H :  0.16  252H :  0.16  608H :  0.16  513H :  0.16  117H :  0.15  416H :  0.15  441H :  0.15   84H :  0.15
  104H :  0.14  746H :  0.14  539H :  0.14  443H :  0.14  480H :  0.14  735H :  0.14  186H :  0.14  365H :  0.14  245H :  0.14  675H :  0.14  627H :  0.13  497H :  0.13
  486H :  0.13  204H :  0.13  216H :  0.13  438H :  0.13  407H :  0.13   44H :  0.13   20H :  0.13  164H :  0.13  731H :  0.13  329H :  0.13  284H :  0.13  635H :  0.13
  713H :  0.13  143H :  0.13  599H :  0.13  189H :  0.12  389H :  0.12   29H :  0.12  612H :  0.12  110H :  0.12  387H :  0.12  173H :  0.12  336H :  0.11  582H :  0.11
   81H :  0.11  129H :  0.11  120H :  0.11  359H :  0.11  467H :  0.11   45H :  0.11  341H :  0.11  476H :  0.11  375H :  0.10  507H :  0.10  178O :  0.10  447H :  0.10
  714H :  0.10  257H :  0.10   42H :  0.10  327H :  0.10  308H :  0.10  527H :  0.10  489H :  0.09  347H :  0.09   69H :  0.09  380H :  0.09  560H :  0.09  704H :  0.09
  578H :  0.09  317H :  0.09  131H :  0.09  554H :  0.09   54H :  0.09   17H :  0.09  504H :  0.09  402H :  0.09  185H :  0.09  191H :  0.08  155H :  0.08   96H :  0.08
  261H :  0.08  318H :  0.08  630H :  0.08  689H :  0.08  357H :  0.08  596H :  0.08  738H :  0.08  638H :  0.08  707H :  0.07  195H :  0.07   48H :  0.07  179H :  0.07
  593H :  0.07  462H :  0.07  390H :  0.07
    9 LP   *******   0.00  49.16009   2.83111 -19.52801   49O : 21.06  706O : 18.88  124O : 17.26  115O : 15.53  421O : 14.82   58O : 14.09    7O : 14.03  358O : 13.96  508O : 13.78  472O : 13.24  112O : 13.00  670O : 12.32
  541O : 11.61  598O : 11.43  586O : 11.19  322O : 10.50  229O :  9.75  631O :  9.71  403O :  9.62   97O :  9.56  562O :  9.30  187O :  9.24  313O :  8.95  754O :  8.85
  475O :  8.57  376O :  8.10  361O :  8.08  190O :  8.02  349O :  7.87  499O :  7.68  226O :  7.32  118O :  7.11   85O :  7.05   52O :  7.03  382O :  6.94  718O :  6.85
  691O :  6.84  199O :  6.82  733O :  6.74   55O :  6.69  658O :  6.41  544O :  6.22  100O :  6.19  121O :  6.06  688O :  5.97   43O :  5.95   73O :  5.90   37O :  5.71
   40O :  5.70  715O :  5.48  628O :  5.45  550O :  5.43  664O :  5.41  193O :  5.37  409O :  5.20   88O :  5.18  175O :  5.15  652O :  5.07  331O :  5.05   82O :  4.98
  469O :  4.98  160O :  4.93  676O :  4.86   79O :  4.81  127O :  4.79  730O :  4.73  667O :  4.68  559O :  4.68  268O :  4.68  448O :  4.62   91O :  4.62  511O :  4.54
  286O :  4.47  106O :  4.39  259O :  4.37  145O :  4.35  490O :  4.34  436O :  4.31   46O :  4.29  181O :  4.29  580O :  4.26  247O :  4.24  589O :  4.18  454O :  4.18
  103O :  4.09  592O :  4.05  136O :  4.01  709O :  3.90   61O :  3.89  262O :  3.88  679O :  3.84  283O :  3.77  157O :  3.75  457O :  3.64  484O :  3.62  211O :  3.49
  367O :  3.42   10O :  3.42  571O :  3.39  289O :  3.38  235O :  3.36  343O :  3.33  271O :  3.28  295O :  3.19  514O :  3.14  337O :  3.14  751O :  3.05  319O :  3.04
  316O :  3.03  130O :  2.99  547O :  2.94  745O :  2.92  394O :  2.83  502O :  2.80   50H :  2.79  685O :  2.78  700O :  2.75  412O :  2.74  532O :  2.74  139O :  2.70
  214O :  2.64  517O :  2.62   25O :  2.60  196O :  2.59  451O :  2.56   34O :  2.55  682O :  2.50  355O :  2.47  505O :  2.44  712O :  2.41  328O :  2.40    1O :  2.39
  673O :  2.39  493O :  2.38  415O :  2.38  406O :  2.34  424O :  2.33  742O :  2.32  340O :  2.29  280O :  2.28  583O :  2.27  643O :  2.19  619O :  2.19  697O :  2.18
  223O :  2.18   13O :  2.15  256O :  2.14  205O :  2.13  244O :  2.10  133O :  2.05  553O :  2.05    4O :  2.04  148O :  2.01  523O :  2.00  433O :  2.00  607O :  2.00
  634O :  1.98  529O :  1.93  142O :  1.92  220O :  1.87  736O :  1.86  232O :  1.86  301O :  1.85  388O :  1.85  655O :  1.82  202O :  1.79  238O :  1.77  496O :  1.76
  601O :  1.75  125H :  1.73  397O :  1.71  364O :  1.71  166O :  1.71  169O :  1.71   80H :  1.66   16O :  1.66  478O :  1.66  250O :  1.65  487O :  1.64   94O :  1.64
  463O :  1.63  613O :  1.61  724O :  1.61   64O :  1.55   76O :  1.54  430O :  1.54   98H :  1.54  346O :  1.52  661O :  1.51  418O :  1.51  292O :  1.47   22O :  1.45
  274O :  1.40  600H :  1.39  739O :  1.37   19O :  1.36  391O :  1.34  556O :  1.34  351H :  1.34  163O :  1.33  241O :  1.33  466O :  1.32  265O :  1.30   51H :  1.28
  385O :  1.25  640O :  1.22  649O :  1.20  307O :  1.20  154O :  1.20  574O :  1.18  526O :  1.17  703O :  1.15  538O :  1.13  748O :  1.13  370O :  1.12  109O :  1.11
  604O :  1.06  188H :  1.05  379O :  1.04  352O :  1.04  473H :  1.04  427O :  1.03   26H :  1.01  333H :  1.00  116H :  0.99  442O :  0.99  217O :  0.99  151O :  0.98
  404H :  0.98  184O :  0.97  625O :  0.96  439O :  0.94   70O :  0.89  501H :  0.89  277O :  0.88  633H :  0.87  360H :  0.86  303H :  0.82  552H :  0.80  101H :  0.80
  752H :  0.78  298O :  0.77  637O :  0.77  662H :  0.76   67O :  0.75  369H :  0.74   38H :  0.74  690H :  0.73  610O :  0.72  621H :  0.68   99H :  0.67  373O :  0.66
  622O :  0.65   27H :  0.65  200H :  0.65   32H :  0.64   62H :  0.64  646O :  0.63  158H :  0.62  300H :  0.60  481O :  0.60  727O :  0.60  371H :  0.60  325O :  0.59
  565O :  0.59  297H :  0.59  253O :  0.59  400O :  0.58  114H :  0.58  698H :  0.58  332H :  0.57  434H :  0.55   21H :  0.54  456H :  0.53  213H :  0.53   78H :  0.53
  656H :  0.53    8H :  0.53  577O :  0.52  616O :  0.52  535O :  0.52  161H :  0.51    6H :  0.51  686H :  0.51  719H :  0.50  310O :  0.50  678H :  0.49   56H :  0.49
  128H :  0.48  345H :  0.48   28O :  0.48  660H :  0.47  230H :  0.46  568O :  0.46  509H :  0.45  419H :  0.44  720H :  0.44  572H :  0.44  445O :  0.43  282H :  0.42
[...]
   370   8 o    1.854 --   372 h    0.899   371 h    0.808
   371   1 h    0.882 --   370 o    0.808
   372   1 h    0.909 --   370 o    0.899
   373   8 o    1.833 --   374 h    0.849   375 h    0.836
   374   1 h    0.890 --   373 o    0.849
   375   1 h    0.884 --   373 o    0.836
   376   8 o    1.870 --   377 h    0.826   378 h    0.818
   377   1 h    0.877 --   376 o    0.826
   378   1 h    0.877 --   376 o    0.818
   379   8 o    1.848 --   381 h    0.873   380 h    0.841
   380   1 h    0.887 --   379 o    0.841
   381   1 h    0.898 --   379 o    0.873
   382   8 o    1.839 --   383 h    0.819   384 h    0.818
   383   1 h    0.875 --   382 o    0.819
   384   1 h    0.891 --   382 o    0.818
   385   8 o    1.860 --   386 h    0.866   387 h    0.813
   386   1 h    0.893 --   385 o    0.866
   387   1 h    0.889 --   385 o    0.813
   388   8 o    1.841 --   389 h    0.810   390 h    0.767
   389   1 h    0.875 --   388 o    0.810
   390   1 h    0.867 --   388 o    0.767
   391   8 o    1.838 --   392 h    0.879   393 h    0.791
   392   1 h    0.907 --   391 o    0.879
   393   1 h    0.879 --   391 o    0.791
   394   8 o    1.870 --   395 h    0.914   396 h    0.791
   395   1 h    0.920 --   394 o    0.914
   396   1 h    0.870 --   394 o    0.791
   397   8 o    1.836 --   398 h    0.865   399 h    0.846
   398   1 h    0.897 --   397 o    0.865
   399   1 h    0.891 --   397 o    0.846
   400   8 o    1.852 --   402 h    0.910   401 h    0.769
   401   1 h    0.874 --   400 o    0.769   406 o    0.102
   402   1 h    0.920 --   400 o    0.910
   403   8 o    1.891 --   404 h    0.827   405 h    0.809
   404   1 h    0.881 --   403 o    0.827
   405   1 h    0.880 --   403 o    0.809
   406   8 o    1.893 --   407 h    0.806   408 h    0.770   401 h    0.102
   407   1 h    0.886 --   406 o    0.806
   408   1 h    0.872 --   406 o    0.770
   409   8 o    1.844 --   411 h    0.881   410 h    0.797
   410   1 h    0.879 --   409 o    0.797
   411   1 h    0.903 --   409 o    0.881
   412   8 o    1.830 --   413 h    0.815   414 h    0.802
   413   1 h    0.882 --   412 o    0.815
   414   1 h    0.879 --   412 o    0.802
   415   8 o    1.875 --   416 h    0.848   417 h    0.786
   416   1 h    0.897 --   415 o    0.848
   417   1 h    0.869 --   415 o    0.786
   418   8 o    1.879 --   419 h    0.811   420 h    0.806
   419   1 h    0.881 --   418 o    0.811
   420   1 h    0.875 --   418 o    0.806
   421   8 o    1.838 --   422 h    0.853   423 h    0.825
   422   1 h    0.886 --   421 o    0.853
   423   1 h    0.885 --   421 o    0.825
   424   8 o    1.826 --   425 h    0.881   426 h    0.815
   425   1 h    0.903 --   424 o    0.881
   426   1 h    0.884 --   424 o    0.815
   427   8 o    1.874 --   428 h    0.849   429 h    0.839
   428   1 h    0.889 --   427 o    0.849
   429   1 h    0.892 --   427 o    0.839
   430   8 o    1.860 --   432 h    0.898   431 h    0.797
   431   1 h    0.870 --   430 o    0.797
   432   1 h    0.906 --   430 o    0.898
   433   8 o    1.846 --   435 h    0.825   434 h    0.806
   434   1 h    0.878 --   433 o    0.806
   435   1 h    0.882 --   433 o    0.825
   436   8 o    1.867 --   438 h    0.827   437 h    0.816
   437   1 h    0.890 --   436 o    0.816
   438   1 h    0.892 --   436 o    0.827
   439   8 o    1.871 --   440 h    0.905   441 h    0.815
   440   1 h    0.913 --   439 o    0.905
   441   1 h    0.870 --   439 o    0.815
   442   8 o    1.829 --   443 h    0.842   444 h    0.829
   443   1 h    0.890 --   442 o    0.842
   444   1 h    0.880 --   442 o    0.829
   445   8 o    1.855 --   447 h    0.911   446 h    0.825
   446   1 h    0.874 --   445 o    0.825
   447   1 h    0.919 --   445 o    0.911
   448   8 o    1.831 --   449 h    0.874   450 h    0.786
   449   1 h    0.904 --   448 o    0.874
   450   1 h    0.871 --   448 o    0.786
   451   8 o    1.847 --   453 h    0.814   452 h    0.787
   452   1 h    0.872 --   451 o    0.787
   453   1 h    0.890 --   451 o    0.814
   454   8 o    1.849 --   455 h    0.843   456 h    0.825
   455   1 h    0.884 --   454 o    0.843
   456   1 h    0.884 --   454 o    0.825
   457   8 o    1.860 --   459 h    0.844   458 h    0.817
   458   1 h    0.875 --   457 o    0.817
   459   1 h    0.888 --   457 o    0.844
   460   8 o    1.889 --   461 h    0.810   462 h    0.810
   461   1 h    0.884 --   460 o    0.810
   462   1 h    0.877 --   460 o    0.810
   463   8 o    1.880 --   465 h    0.833   464 h    0.823
   464   1 h    0.884 --   463 o    0.823
   465   1 h    0.882 --   463 o    0.833
   466   8 o    1.851 --   468 h    0.865   467 h    0.850
   467   1 h    0.892 --   466 o    0.850
   468   1 h    0.898 --   466 o    0.865
   469   8 o    1.830 --   471 h    0.830   470 h    0.791
   470   1 h    0.877 --   469 o    0.791
   471   1 h    0.890 --   469 o    0.830
   472   8 o    1.843 --   474 h    0.845   473 h    0.788
   473   1 h    0.879 --   472 o    0.788
   474   1 h    0.894 --   472 o    0.845
   475   8 o    1.862 --   477 h    0.850   476 h    0.784
   476   1 h    0.874 --   475 o    0.784
   477   1 h    0.888 --   475 o    0.850
   478   8 o    1.874 --   480 h    0.916   479 h    0.801
   479   1 h    0.873 --   478 o    0.801
   480   1 h    0.921 --   478 o    0.916
   481   8 o    1.847 --   482 h    0.916   483 h    0.783
   482   1 h    0.923 --   481 o    0.916
   483   1 h    0.872 --   481 o    0.783
   484   8 o    1.828 --   486 h    0.845   485 h    0.840
   485   1 h    0.893 --   484 o    0.840
   486   1 h    0.900 --   484 o    0.845
   487   8 o    1.842 --   488 h    0.872   489 h    0.843
   488   1 h    0.898 --   487 o    0.872
   489   1 h    0.887 --   487 o    0.843
   490   8 o    1.845 --   492 h    0.830   491 h    0.818
   491   1 h    0.886 --   490 o    0.818
   492   1 h    0.893 --   490 o    0.830
   493   8 o    1.846 --   494 h    0.917   495 h    0.800
   494   1 h    0.922 --   493 o    0.917
   495   1 h    0.881 --   493 o    0.800
   496   8 o    1.851 --   498 h    0.918   497 h    0.842
   497   1 h    0.881 --   496 o    0.842
   498   1 h    0.921 --   496 o    0.918
   499   8 o    1.822 --   501 h    0.850   500 h    0.841
   500   1 h    0.889 --   499 o    0.841
   501   1 h    0.890 --   499 o    0.850
   502   8 o    1.863 --   504 h    0.859   503 h    0.850
   503   1 h    0.894 --   502 o    0.850
   504   1 h    0.892 --   502 o    0.859
   505   8 o    1.835 --   506 h    0.863   507 h    0.815
   506   1 h    0.898 --   505 o    0.863
   507   1 h    0.881 --   505 o    0.815
   508   8 o    1.853 --   510 h    0.830   509 h    0.807
   509   1 h    0.877 --   508 o    0.807
   510   1 h    0.894 --   508 o    0.830
   511   8 o    1.843 --   513 h    0.851   512 h    0.835
   512   1 h    0.890 --   511 o    0.835
   513   1 h    0.899 --   511 o    0.851
   514   8 o    1.854 --   515 h    0.832   516 h    0.782
   515   1 h    0.895 --   514 o    0.832
   516   1 h    0.875 --   514 o    0.782
   517   8 o    1.865 --   518 h    0.871   519 h    0.848
   518   1 h    0.898 --   517 o    0.871
   519   1 h    0.893 --   517 o    0.848
   520   8 o    1.857 --   521 h    0.911   522 h    0.832
   521   1 h    0.919 --   520 o    0.911
   522   1 h    0.881 --   520 o    0.832
   523   8 o    1.877 --   525 h    0.820   524 h    0.786
   524   1 h    0.878 --   523 o    0.786
   525   1 h    0.886 --   523 o    0.820
   526   8 o    1.865 --   527 h    0.854   528 h    0.783
   527   1 h    0.892 --   526 o    0.854
   528   1 h    0.867 --   526 o    0.783
   529   8 o    1.874 --   530 h    0.853   531 h    0.768
   530   1 h    0.887 --   529 o    0.853
   531   1 h    0.867 --   529 o    0.768
   532   8 o    1.870 --   534 h    0.836   533 h    0.784
   533   1 h    0.869 --   532 o    0.784
   534   1 h    0.889 --   532 o    0.836
   535   8 o    1.834 --   536 h    0.877   537 h    0.850
   536   1 h    0.898 --   535 o    0.877
   537   1 h    0.884 --   535 o    0.850
   538   8 o    1.868 --   540 h    0.914   539 h    0.835
   539   1 h    0.882 --   538 o    0.835
   540   1 h    0.918 --   538 o    0.914
   541   8 o    1.864 --   542 h    0.841   543 h    0.835
   542   1 h    0.892 --   541 o    0.841
   543   1 h    0.891 --   541 o    0.835
   544   8 o    1.858 --   546 h    0.868   545 h    0.855
   545   1 h    0.892 --   544 o    0.855
   546   1 h    0.891 --   544 o    0.868
   547   8 o    1.840 --   549 h    0.861   548 h    0.857
   548   1 h    0.892 --   547 o    0.857
   549   1 h    0.899 --   547 o    0.861
   550   8 o    1.830 --   551 h    0.838   552 h    0.814
   551   1 h    0.894 --   550 o    0.838
   552   1 h    0.890 --   550 o    0.814
   553   8 o    1.857 --   554 h    0.854   555 h    0.814
   554   1 h    0.896 --   553 o    0.854
   555   1 h    0.886 --   553 o    0.814
   556   8 o    1.892 --   558 h    0.832   557 h    0.780
   557   1 h    0.872 --   556 o    0.780
   558   1 h    0.890 --   556 o    0.832
   559   8 o    1.843 --   561 h    0.835   560 h    0.828
   560   1 h    0.886 --   559 o    0.828
   561   1 h    0.887 --   559 o    0.835
   562   8 o    1.833 --   564 h    0.856   563 h    0.819
   563   1 h    0.881 --   562 o    0.819
   564   1 h    0.896 --   562 o    0.856
   565   8 o    1.868 --   567 h    0.897   566 h    0.790
   566   1 h    0.870 --   565 o    0.790
   567   1 h    0.910 --   565 o    0.897
   568   8 o    1.842 --   570 h    0.859   569 h    0.843
   569   1 h    0.892 --   568 o    0.843
   570   1 h    0.891 --   568 o    0.859
   571   8 o    1.841 --   573 h    0.830   572 h    0.821
   572   1 h    0.884 --   571 o    0.821
   573   1 h    0.893 --   571 o    0.830
   574   8 o    1.820 --   575 h    0.856   576 h    0.842
   575   1 h    0.902 --   574 o    0.856
   576   1 h    0.892 --   574 o    0.842
   577   8 o    1.826 --   579 h    0.876   578 h    0.835
   578   1 h    0.893 --   577 o    0.835
   579   1 h    0.900 --   577 o    0.876
   580   8 o    1.847 --   581 h    0.884   582 h    0.814
   581   1 h    0.904 --   580 o    0.884
   582   1 h    0.882 --   580 o    0.814
   583   8 o    1.861 --   585 h    0.862   584 h    0.798
   584   1 h    0.877 --   583 o    0.798
   585   1 h    0.897 --   583 o    0.862
   586   8 o    1.815 --   587 h    0.880   588 h    0.842
   587   1 h    0.901 --   586 o    0.880
   588   1 h    0.883 --   586 o    0.842
   589   8 o    1.851 --   590 h    0.817   591 h    0.786
   590   1 h    0.878 --   589 o    0.817
   591   1 h    0.866 --   589 o    0.786
   592   8 o    1.862 --   593 h    0.870   594 h    0.833
   593   1 h    0.896 --   592 o    0.870
   594   1 h    0.889 --   592 o    0.833
   595   8 o    1.838 --   596 h    0.862   597 h    0.818
   596   1 h    0.896 --   595 o    0.862
   597   1 h    0.883 --   595 o    0.818
   598   8 o    1.838 --   599 h    0.859   600 h    0.844
   599   1 h    0.897 --   598 o    0.859
   600   1 h    0.895 --   598 o    0.844
   601   8 o    1.880 --   603 h    0.840   602 h    0.805
   602   1 h    0.886 --   601 o    0.805
   603   1 h    0.891 --   601 o    0.840
   604   8 o    1.830 --   605 h    0.867   606 h    0.859
   605   1 h    0.891 --   604 o    0.867
   606   1 h    0.896 --   604 o    0.859
   607   8 o    1.848 --   608 h    0.877   609 h    0.822
   608   1 h    0.902 --   607 o    0.877
   609   1 h    0.875 --   607 o    0.822
   610   8 o    1.855 --   611 h    0.807   612 h    0.775
   611   1 h    0.890 --   610 o    0.807
   612   1 h    0.870 --   610 o    0.775
   613   8 o    1.810 --   615 h    0.876   614 h    0.849
   614   1 h    0.897 --   613 o    0.849
   615   1 h    0.897 --   613 o    0.876
   616   8 o    1.823 --   617 h    0.854   618 h    0.786
   617   1 h    0.899 --   616 o    0.854
   618   1 h    0.873 --   616 o    0.786
   619   8 o    1.867 --   620 h    0.799   621 h    0.793
   620   1 h    0.885 --   619 o    0.799
   621   1 h    0.883 --   619 o    0.793
   622   8 o    1.851 --   624 h    0.829   623 h    0.803
   623   1 h    0.888 --   622 o    0.803
   624   1 h    0.887 --   622 o    0.829
   625   8 o    1.868 --   626 h    0.869   627 h    0.807
   626   1 h    0.897 --   625 o    0.869
   627   1 h    0.883 --   625 o    0.807
   628   8 o    1.872 --   630 h    0.834   629 h    0.824
   629   1 h    0.875 --   628 o    0.824
   630   1 h    0.890 --   628 o    0.834
   631   8 o    1.833 --   633 h    0.842   632 h    0.836
   632   1 h    0.892 --   631 o    0.836
   633   1 h    0.895 --   631 o    0.842
   634   8 o    1.874 --   635 h    0.884   636 h    0.813
   635   1 h    0.898 --   634 o    0.884
   636   1 h    0.882 --   634 o    0.813
   637   8 o    1.847 --   638 h    0.830   639 h    0.829
   638   1 h    0.890 --   637 o    0.830
   639   1 h    0.889 --   637 o    0.829
   640   8 o    1.850 --   641 h    0.853   642 h    0.796
   641   1 h    0.898 --   640 o    0.853
   642   1 h    0.873 --   640 o    0.796
   643   8 o    1.861 --   645 h    0.868   644 h    0.861
   644   1 h    0.887 --   643 o    0.861
   645   1 h    0.893 --   643 o    0.868
   646   8 o    1.847 --   648 h    0.846   647 h    0.824
   647   1 h    0.884 --   646 o    0.824
   648   1 h    0.891 --   646 o    0.846
   649   8 o    1.868 --   651 h    0.906   650 h    0.771
   650   1 h    0.874 --   649 o    0.771
   651   1 h    0.915 --   649 o    0.906
   652   8 o    1.858 --   654 h    0.908   653 h    0.779
   653   1 h    0.881 --   652 o    0.779
   654   1 h    0.917 --   652 o    0.908
   655   8 o    1.848 --   656 h    0.869   657 h    0.813
   656   1 h    0.895 --   655 o    0.869
   657   1 h    0.873 --   655 o    0.813
   658   8 o    1.851 --   660 h    0.885   659 h    0.804
   659   1 h    0.875 --   658 o    0.804
   660   1 h    0.905 --   658 o    0.885
   661   8 o    1.827 --   663 h    0.850   662 h    0.820
   662   1 h    0.882 --   661 o    0.820
   663   1 h    0.896 --   661 o    0.850
   664   8 o    1.854 --   665 h    0.849   666 h    0.825
   665   1 h    0.881 --   664 o    0.849
   666   1 h    0.889 --   664 o    0.825
   667   8 o    1.867 --   668 h    0.917   669 h    0.811
   668   1 h    0.922 --   667 o    0.917
   669   1 h    0.876 --   667 o    0.811
   670   8 o    1.865 --   672 h    0.825   671 h    0.824
   671   1 h    0.887 --   670 o    0.824
   672   1 h    0.876 --   670 o    0.825
   673   8 o    1.858 --   674 h    0.865   675 h    0.814
   674   1 h    0.901 --   673 o    0.865
   675   1 h    0.877 --   673 o    0.814
   676   8 o    1.814 --   678 h    0.840   677 h    0.833
   677   1 h    0.893 --   676 o    0.833
   678   1 h    0.891 --   676 o    0.840
   679   8 o    1.847 --   680 h    0.838   681 h    0.820
   680   1 h    0.885 --   679 o    0.838
   681   1 h    0.890 --   679 o    0.820
   682   8 o    1.886 --   684 h    0.815   683 h    0.812
   683   1 h    0.875 --   682 o    0.812
   684   1 h    0.881 --   682 o    0.815
   685   8 o    1.873 --   686 h    0.857   687 h    0.799
   686   1 h    0.898 --   685 o    0.857
   687   1 h    0.873 --   685 o    0.799
   688   8 o    1.861 --   689 h    0.849   690 h    0.831
   689   1 h    0.893 --   688 o    0.849
   690   1 h    0.877 --   688 o    0.831
   691   8 o    1.859 --   693 h    0.887   692 h    0.786
   692   1 h    0.875 --   691 o    0.786
   693   1 h    0.905 --   691 o    0.887
   694   8 o    1.852 --   696 h    0.900   695 h    0.824
   695   1 h    0.874 --   694 o    0.824
   696   1 h    0.910 --   694 o    0.900
   697   8 o    1.825 --   699 h    0.869   698 h    0.838
   698   1 h    0.890 --   697 o    0.838
   699   1 h    0.899 --   697 o    0.869
   700   8 o    1.839 --   701 h    0.813   702 h    0.810
   701   1 h    0.881 --   700 o    0.813
   702   1 h    0.884 --   700 o    0.810
   703   8 o    1.864 --   704 h    0.809   705 h    0.788
   704   1 h    0.891 --   703 o    0.809
   705   1 h    0.874 --   703 o    0.788
   706   8 o    1.824 --   708 h    0.846   707 h    0.838
   707   1 h    0.888 --   706 o    0.838
   708   1 h    0.889 --   706 o    0.846
   709   8 o    1.833 --   710 h    0.878   711 h    0.832
   710   1 h    0.907 --   709 o    0.878
   711   1 h    0.879 --   709 o    0.832
   712   8 o    1.856 --   714 h    0.882   713 h    0.824
   713   1 h    0.871 --   712 o    0.824
   714   1 h    0.902 --   712 o    0.882
   715   8 o    1.847 --   716 h    0.862   717 h    0.819
   716   1 h    0.902 --   715 o    0.862
   717   1 h    0.890 --   715 o    0.819
   718   8 o    1.873 --   720 h    0.910   719 h    0.849
   719   1 h    0.885 --   718 o    0.849
   720   1 h    0.913 --   718 o    0.910
   721   8 o    1.848 --   722 h    0.887   723 h    0.850
   722   1 h    0.904 --   721 o    0.887
   723   1 h    0.886 --   721 o    0.850
   724   8 o    1.888 --   725 h    0.848   726 h    0.845   279 h    0.105
   725   1 h    0.889 --   724 o    0.848
   726   1 h    0.889 --   724 o    0.845
   727   8 o    1.868 --   729 h    0.835   728 h    0.820
   728   1 h    0.887 --   727 o    0.820
   729   1 h    0.891 --   727 o    0.835
   730   8 o    1.833 --   731 h    0.810   732 h    0.785
   731   1 h    0.893 --   730 o    0.810
   732   1 h    0.877 --   730 o    0.785
   733   8 o    1.839 --   734 h    0.842   735 h    0.820
   734   1 h    0.891 --   733 o    0.842
   735   1 h    0.883 --   733 o    0.820
   736   8 o    1.890 --   738 h    0.847   737 h    0.834
   737   1 h    0.887 --   736 o    0.834
   738   1 h    0.891 --   736 o    0.847
   739   8 o    1.885 --   740 h    0.833   741 h    0.807
   740   1 h    0.885 --   739 o    0.833
   741   1 h    0.886 --   739 o    0.807
   742   8 o    1.849 --   743 h    0.850   744 h    0.821
   743   1 h    0.890 --   742 o    0.850
   744   1 h    0.887 --   742 o    0.821
   745   8 o    1.864 --   747 h    0.846   746 h    0.833
   746   1 h    0.883 --   745 o    0.833
   747   1 h    0.883 --   745 o    0.846
   748   8 o    1.874 --   749 h    0.822   750 h    0.808
   749   1 h    0.892 --   748 o    0.822
   750   1 h    0.879 --   748 o    0.808
   751   8 o    1.795 --   753 h    0.886   752 h    0.828
   752   1 h    0.882 --   751 o    0.828
   753   1 h    0.905 --   751 o    0.886
   754   8 o    1.839 --   755 h    0.884   756 h    0.835
   755   1 h    0.904 --   754 o    0.884
   756   1 h    0.882 --   754 o    0.835
 ---------------------------------------------------------------------------

Topologies differ in total number of bonds
Writing topology from bond orders to xtbtopo.mol

molecular dipole:
                 x           y           z       tot (Debye)
 q only:        3.860       0.333      -2.266
   full:        3.808      -0.011      -2.580      11.691
molecular quadrupole (traceless):
                xx          xy          yy          xz          yz          zz
 q only:      140.826      73.379    -141.204      73.657       2.059       0.378
  q+dip:      165.950      88.081    -177.053     101.764      -4.984      11.103
   full:      165.605      88.703    -178.075      99.738      -5.670      12.471


           -------------------------------------------------
          | TOTAL ENERGY            -1283.286162188330 Eh   |
          | GRADIENT NORM               0.109739406092 Eh/α |
          | HOMO-LUMO GAP               6.049903527689 eV   |
           -------------------------------------------------

------------------------------------------------------------------------
 * finished run on 2022/11/24 at 12:22:38.373     
------------------------------------------------------------------------
 total:
 * wall-time:     0 d,  0 h,  0 min, 57.538 sec
 *  cpu-time:     0 d,  0 h,  1 min, 14.041 sec
 * ratio c/w:     1.287 speedup
 SCF:
 * wall-time:     0 d,  0 h,  0 min, 56.520 sec
 *  cpu-time:     0 d,  0 h,  1 min, 12.313 sec
 * ratio c/w:     1.279 speedup

