756
 energy: -1283.279602302027 gnorm: 0.032736211412 xtb: 6.5.1 (579679a)
o            6.78665363075400       -4.68045267306156       -4.23127558023469
h            6.79347080882185       -4.63821027618035       -3.25053356822527
h            6.56483409993379       -5.58876013359146       -4.43766991418577
o            0.61567699957934        2.74602715923149        2.37403273714443
h            0.12529619347542        3.23823256846656        3.04350361023251
h            1.53336195133938        3.08558193342867        2.42241233245556
o           -2.29635473695089        0.51089531010051       -3.13569349177949
h           -1.67795203442450       -0.19676894314444       -2.89994545785184
h           -1.88578781304236        1.35997890302500       -2.85933161811968
o           -5.76460529487680        1.19710119793648       -0.11716755122940
h           -5.29191242253191        1.21073600017121       -0.96796712279479
h           -5.74949163247890        2.07382072689721        0.27271504739848
o           -3.46256022635410        3.40041107651970        0.33688907914467
h           -3.74329271260818        2.81051406534889        1.05841591430331
h           -2.48378819616136        3.45578402688256        0.35675705760136
o           -5.65792099127460       -4.56367109179601       -0.52395536948873
h           -5.86652074662126       -5.20910580271422       -1.21838520376197
h           -6.19410748362916       -3.77099588873828       -0.71820733036678
o           -0.73057188881976       -5.12944316830511       -0.36169999204265
h            0.23416302107528       -5.11428769051133       -0.51104128728705
h           -1.19325290499326       -4.54208747989870       -0.99116503044281
o            1.67641711986720       -2.88763287499400       -2.07778929792890
h            1.80934499753437       -3.81984333680620       -2.33007671082253
h            2.54702773539406       -2.51391063466680       -1.82104261894892
o           -1.89817309239320       -2.13643239268807        4.38595319028398
h           -2.67907073224374       -2.55797016057917        4.77766154094282
h           -2.17252290393964       -1.23606035722195        4.13101507643652
o           -2.03654543355535        4.93339472229423       -5.41771401356022
h           -2.60219505657609        4.63469820140638       -6.14065341898829
h           -1.11609870695185        4.77002433655115       -5.72298921543788
o           -4.73284199010076        0.12680542963554       -2.34534827350561
h           -3.81560507749939        0.34314925936384       -2.62417763873642
h           -5.27949011928429        0.21846214783156       -3.12992464871490
o           -3.93251303545302        2.60461702285119       -4.56927631137571
h           -4.25603447503771        3.49237674558771       -4.81720957237357
h           -3.95423607623770        2.59683652747334       -3.59311338914140
o           -4.27265953859516       -2.15715964776524       -1.11077447844544
h           -4.84121056244673       -2.06051056503179       -0.32534391281567
h           -4.38917670078512       -1.30877394337593       -1.58650538370854
o           -4.47461053485853        2.96054021482965       -2.00130124862491
h           -5.28075731446659        3.48139940750589       -1.83475883867637
h           -3.98972817354490        2.98677138769601       -1.14726591265994
o           -1.31457591593753        2.71421343598306       -2.20361528475530
h           -0.94772689247270        3.47845713397876       -2.66889166078815
h           -1.08805135685362        2.85301069640601       -1.27050881312615
o            0.80920786832385        2.46002993076562       -4.23812956129853
h           -0.02577330240898        2.28314748517624       -4.71540937941829
h            0.72716933133525        3.36413333118570       -3.87770369063814
o           -2.40278011117722        0.47722367392478        3.67830649113778
h           -1.99968564627480        1.05924606372632        4.35022265679910
h           -1.88507131120839        0.64386562426414        2.87260395358842
o           -2.55026711189378       -0.11681897866197        6.66558722798627
h           -2.45179450542951       -1.04772052449541        6.92104968468537
h           -1.71302764027046        0.09571299152004        6.20477930383858
o           -3.44769920153250       -4.29111405478280        2.97896192192067
h           -3.58546095845127       -3.31433446640581        2.93687115802546
h           -4.35315131932744       -4.65175064672433        2.93379877631080
o           -1.03931596867535        2.22696108288933        5.19662281567252
h           -1.31264202251701        2.83466061150841        4.47907052724483
h           -1.26228561098879        2.70247898547190        6.02409546930220
o           -3.83885376234245       -1.71213303575345        2.59308442332099
h           -4.58858361988494       -1.59593733673378        1.96518300697616
h           -4.12906527091762       -1.30257217895128        3.42685191646683
o            3.17038989706053        1.00097361413254        2.79198830986777
h            2.60349020215571        1.36216323932232        3.49406854303039
h            3.72687743083119        0.33108439418313        3.22396132879027
o           -0.65929023713277       -1.63982191416198       -2.85068684672177
h           -0.60180535056604       -1.42623862607781       -3.80985361773313
h            0.21764709960742       -1.92681509413558       -2.55426040262342
o            0.12466894363347        4.82641657631945       -3.21150342454622
h            0.03860791611782        5.54609595544967       -3.83767220785214
h            0.62491605172215        5.17888107791847       -2.44345756130320
o            0.58220768148452        0.66772547565031        7.82307642479797
h            0.37262543172886        0.31762927643103        6.93088637177288
h           -0.23004217125713        0.64597881556788        8.33144167693309
o           -4.33113890106955        1.87229413699387        2.43514805447392
h           -5.17162585079197        1.38137815554003        2.46284710540412
h           -3.65380614241063        1.27825076020747        2.81360107306234
o           -7.92838929862723       -0.08482289763031       -1.14101692553998
h           -7.20074938903547        0.49046253949638       -0.84587541642208
h           -7.83303746467394       -0.25598614575017       -2.10237162804794
o            0.20231563892984        0.21277451125928        2.90295734597194
h            0.45355671562045        1.12635080720044        2.64833718179517
h            1.01567654356872       -0.33538767788390        2.99547318338892
o           -3.37439450313351       -2.78529448138851       -4.75821387024695
h           -2.43804654650545       -3.04118059894807       -4.65138224205821
h           -3.39269246513578       -1.82648467844422       -4.95167516709833
o            3.75179820411914       -1.40425708371736       -1.29282665455541
h            3.29968318906499       -0.92237803452450       -0.56514204606792
h            3.72949672868843       -0.84845650338249       -2.08614374215354
o           -2.18490579979059       -3.61133828035040       -2.02177391182565
h           -1.63479387592872       -2.91263259917440       -2.43936355228294
h           -2.97670131093035       -3.16834553335001       -1.67111344035914
o           -7.55317021933899       -1.00156023607820       -3.59038586099442
h           -6.93094304426770       -1.74826682510069       -3.47564519113965
h           -7.09246708278165       -0.33665825956594       -4.11345350196569
o            2.43091261386709       -0.53813579977324        5.90944517823925
h            2.39237340424240       -0.94521039140620        5.02120031324796
h            2.22973037963229        0.39493429655893        5.73449021997067
o            3.84545179083005       -4.05704373549944       -0.04691071574766
h            4.56413911315237       -4.46178998114847        0.48216084876638
h            4.13000308263060       -4.00935214492406       -0.97856551931165
o            1.96985883224252       -1.54983981691064        3.46509082821893
h            2.65185717306868       -1.81594234272242        2.80354549469549
h            1.43990145061022       -2.33123883131469        3.70132444540178
o            1.68725046226178        1.93910960869529        4.94094700779320
h            0.72305953361651        2.06944563440296        5.03304293044916
h            2.11958494745132        2.74190026121468        5.26372743734698
o           -5.00145925557935        6.68508835547711       -2.80369616108110
h           -5.86459621170023        7.04668238092948       -2.60279216532074
h           -4.65507855231555        6.30437973399817       -1.96410929137549
o           -6.44221677910983        4.49442394402041       -0.95499686259800
h           -6.97390555068133        5.30706033122675       -0.95682399662870
h           -6.42580253533298        4.19195362848259       -0.02847346845819
o            0.47243456906874       -3.52802566837991        4.48016754754316
h           -0.43808579845573       -3.22250094202573        4.34586480170322
h            0.71062090537047       -3.32000056897988        5.40641653220837
o           -5.96393018798407       -5.41473811793665        5.20484387171001
h           -5.30056711122882       -4.70151864740691        5.30737131399793
h           -5.57777389871037       -6.00684627750223        4.54048443434701
o            1.08523605361487       -2.69912608278275        0.63718648518385
h            1.57880670622271       -1.86471424959729        0.76316038119633
h            1.21265634519355       -2.92026499026647       -0.29610551532825
o           -0.82340055860715        3.67496651484715        0.24089361275060
h           -0.20724077637264        3.52942616065046        0.98209007378451
h           -0.66458705394161        4.55532944656995       -0.13184942116734
o           -0.80340770826246       -3.68703761772752       -7.76046146840699
h            0.09602516489126       -4.05603971379266       -7.75470418014111
h           -0.68514591143415       -2.76800945339242       -8.05118379803470
o            2.18072196317904       -4.32588555475727        2.52372756645617
h            1.80286991333482       -3.83106163196538        1.76658556140114
h            1.52862743867829       -4.25637811240586        3.23541408432771
o           -4.20508289786494        4.85985188751709        2.56814455593493
h           -4.86646298810369        4.27393120697700        2.17015677635917
h           -4.64249614108293        5.38808607850944        3.25939218960321
o           -6.44003953811211        3.54146897723298        1.56448037605228
h           -6.79307260915884        4.14257735386410        2.24838666580132
h           -7.06398292352454        2.77853007921591        1.60292223548553
o           -6.36452243071822       -2.40704890168125        3.58421344286724
h           -6.21941613898079       -3.14299741480208        2.95750187971156
h           -7.10918053203099       -2.69200890084312        4.13511380055643
o            3.38464270278301       -6.68548835333985        2.59388943384668
h            2.70544118669729       -7.24630387540914        2.96928215931873
h            2.97464724432121       -5.80133584946917        2.47758821263658
o            7.44067941207575       -4.91516198888587        4.05350763842752
h            7.14693783732798       -4.40215038538131        4.82326392991192
h            6.80713110645423       -5.66467358834820        4.02244208730975
o            0.47376379044547        1.29805846926982       -0.25705500565145
h            1.00110570762045        2.13371929413998       -0.19709353181420
h            0.54258875086036        1.01041354905675       -1.18108054542258
o            4.35311635863068       -4.11735263790396       -2.60560078595991
h            4.54635404880250       -3.55112338553708       -3.36202202978121
h            4.56408185065777       -5.03138923770274       -2.86927702759682
o           -8.07980405637974        6.66750792260795       -0.60444858242113
h           -8.55714566139310        6.32354543601982        0.18174810713800
h           -8.69949013108710        6.46820832369880       -1.32916317378398
o            8.19724822738340       -0.08439337427006        1.71657491784136
h            8.45971266023269       -0.49440686223019        0.86937022714229
h            8.89579702167397       -0.36021869437971        2.34462680277224
o           -1.72509080165136        2.21375545871403       -8.17843057152909
h           -2.22690764099387        1.37446324508145       -8.17914307696332
h           -2.37090690483411        2.93155804991885       -8.08225911405162
o           -8.28086597312565       -1.04534216861598        1.66361186375483
h           -8.84580037301252       -1.31525831957433        0.91271590752095
h           -8.72348973966007       -1.38624790578802        2.45470634635943
o           -1.96042109411812        3.46215589619109        3.05267877018141
h           -2.79479872910673        3.95284290556672        2.95614073583813
h           -1.92348873754448        2.82530252797684        2.33106002563084
o            1.82658129623535       -5.65084711353124       -0.26839851109899
h            2.56260914594842       -5.01866500408300       -0.08045339683576
h            2.18097343615589       -6.30816579324706       -0.89287380806195
o           -4.72975893398692       -7.18022250884017        3.45776129879901
h           -4.60459608889924       -7.94123753123547        4.02402592506274
h           -3.85266887246072       -7.03574297764417        3.00834171959487
o            1.30952174120630        0.48017398005082       -2.60038894854354
h            1.87779703708374       -0.11621184351839       -3.10507151422038
h            1.06681878152366        1.21302460545938       -3.20730439673546
o            3.63973740061592       -2.07802032990719       -7.53144381615491
h            3.98795552230917       -2.33591496068067       -6.64536256746268
h            3.05931458146571       -2.81783812366913       -7.77564005699890
o           -4.34395174148095       -3.24532567240811        5.32443671821436
h           -5.00077609054280       -2.70360624966709        4.84654834855159
h           -4.38000339503613       -3.00747001057601        6.26402141824259
o           -0.67303109545805       -6.18795113889993       -4.13755901512948
h           -0.77264053391666       -5.34945555149344       -4.63616553037002
h           -1.52354123375009       -6.25864573954098       -3.66429740863736
o            2.30455593869017       -0.30671928994336        0.63226071434080
h            1.58836110893629        0.29576091746007        0.33019239956548
h            2.69755818802838        0.11428660689674        1.41950901960187
o           -1.13185478668958       -7.75015639476310       -0.49375912869036
h           -2.08246563829477       -7.91745680214171       -0.48857847907111
h           -1.03424982034556       -6.77016080328449       -0.48250604343428
o            5.54127505709656       -6.79802573979933        4.16015501503321
h            4.78141467779456       -6.72806573639008        3.54013951235642
h            5.17122442792909       -6.54405795986170        5.01334473077672
o           -4.93801593106529        1.72156373807841       -7.27829910994089
h           -4.62406500229292        1.07668465420811       -6.62917407586465
h           -5.90145612338029        1.75208955224611       -7.21805332953032
o           -5.65611963334202       -2.92330073098480       -3.30925199187743
h           -5.31366318631376       -2.80033895929279       -2.40890727460855
h           -4.86435965969900       -2.98528821573396       -3.86574856404723
o           -1.48304888930712        1.88788366714757       -5.47688284887092
h           -1.48356348645924        2.07479681820640       -6.43103249474786
h           -2.33036491549563        2.21448772224628       -5.11838717453130
o          -12.58009615285543        2.27157455585010        0.69040744644627
h          -12.45014488411201        1.32670478711224        0.82096703153300
h          -12.30759731223722        2.48062853145481       -0.22074311162036
o            3.47735317558139       -3.42490044094773        7.77653601211586
h            2.55469417618315       -3.18391591350545        7.58577765001384
h            4.00098849509985       -2.64375003432069        7.55859757883537
o           -3.29874154225236        4.89685502728426        5.70166510631646
h           -2.69731054775135        5.39749198293677        5.11713810214708
h           -2.74239537036876        4.54649152668970        6.41771998228257
o            6.29670474981023       -2.00445370713273       -1.15883166998702
h            5.32727191675144       -1.85464800083131       -1.07171966266899
h            6.48001978570284       -1.90411236104212       -2.11359527190705
o            4.56786381220706        2.35306828128924        0.72658720818911
h            4.05935179198508        1.87704433095322        1.40255715937480
h            5.48414254879741        2.34320030890475        1.05576804564880
o           -3.73579432540414       -0.20949924536314       -5.35827827317452
h           -3.18111654296541        0.19263297712790       -4.66548242225038
h           -3.20112030650950       -0.21127614209821       -6.18439835762992
o            5.90927869615441       -7.43330269245994        1.23102476198938
h            5.92474945951906       -7.82895586175248        2.10556657395166
h            5.71726186046935       -6.47855512913862        1.38021768724760
o           -2.64107156006929        7.43122349815299       -4.31609373546562
h           -2.39651187575851        6.59621146312281       -4.75074515733977
h           -3.39205809529489        7.22641531245426       -3.73991906852138
o            5.50727647685102        0.91802079722872       -3.94200581527243
h            4.88745286525638        1.15156684706102       -3.23338529361616
h            6.30331734879650        1.47262355707441       -3.77755434622983
o           -7.93935856270943       -6.31603295391723        3.10077736541899
h           -7.67338871308535       -6.38634327919396        4.02074100906771
h           -8.77339189763068       -5.82591916918822        3.07308991088771
o          -11.39781715444409       -4.16320854994963        0.59662175464736
h          -11.02671433107392       -4.67803449068557       -0.15378237553252
h          -12.14658102877598       -3.66235894021684        0.25711117184591
o           -7.37229940271965       -2.67226402937531       -0.99584200980869
h           -7.56433004540386       -1.71305732386761       -0.97701819385539
h           -7.89508137671730       -3.07004035467058       -0.27239448562812
o           -9.18707977474992        5.28065609757622        1.40336194910025
h           -8.62527325347254        5.19653694448046        2.18737348476210
h           -9.05550334985717        4.48724943788623        0.84155219882321
o           -6.06070720380521        6.98711608235613        1.31562360204041
h           -6.70676336546631        7.18805161651363        0.62466753204520
h           -6.54074662146855        6.51249938468935        2.00102544235055
o           -2.88699380545304        4.98986785445481       -2.83147944550363
h           -3.39249272985452        4.20863436163504       -2.55471786828087
h           -2.48713851995035        4.80404750629482       -3.69340951043626
o            0.21417116733002        4.69620300969988        4.46552922700158
h           -0.43873102559585        5.38220255095530        4.64370767287062
h            0.86786190018218        4.71435962001551        5.16906771752916
o            2.99942571372212        3.88414858784008        2.43839654577275
h            3.69107918405265        3.37687742220303        2.90318055855154
h            2.93932114999820        4.73644770456606        2.90416320116033
o            0.94541972058668        2.08308534413771       -7.63060007365526
h            1.49234483514453        2.47925093848243       -8.30757503024742
h            0.03037843638137        2.07941944177771       -7.95802244517816
o           -0.12115492135983       -1.08011851658979       -8.39857262140500
h            0.13070682507319       -0.71225122271956       -9.24429234884169
h            0.55023032375120       -0.78156012728916       -7.74264323756004
o            5.49810712610160       -0.20866170654078        1.28365999990566
h            6.36417801125048       -0.45902209041335        1.62304864061825
h            5.66954275019663        0.24719694296592        0.44329552417245
o           10.65430173882522        3.08748837845213       -4.52457200882342
h           10.29019073760635        3.39113037978090       -3.66498518427324
h            9.92783525282438        3.19778869451876       -5.16475815802903
o           -0.64072777965495        8.00643282208681       -2.64002562456612
h            0.20860265774660        7.85460311247287       -3.09780199459528
h           -1.33157803715997        7.88884962219554       -3.33051777430453
o           -5.92583510521833       -4.69733639499476        2.18738580706093
h           -6.64920681960608       -5.29698252986132        2.43788702752010
h           -5.93542713322855       -4.65417699139897        1.21297677986348
o            0.97484990025632       -7.54733223058059        1.36443818671125
h            1.30027433556412       -6.77044524565791        0.84826523360043
h            0.24669779611193       -7.90503018229450        0.83524852420825
o           12.61428840138349       -1.86884027761448       -2.22656750762554
h           13.55983188635854       -1.87232626609089       -2.37091897493289
h           12.20039999188283       -2.05577662457108       -3.11939876999160
o           -0.85228230632759       -4.11872281527690        2.06300935960021
h           -0.85611512707216       -4.49347394960872        1.15054309635620
h           -1.75240628191672       -4.17483028267157        2.41181016913942
o            6.14231907783377        6.22817365126810       -1.95191273770736
h            6.02309828639487        5.26426540449670       -1.85586020061897
h            6.45152210174675        6.52557309367665       -1.07888180710446
o           -5.98318675949774       -0.73134811064783        7.22300056537111
h           -5.54059580975999       -0.74451453722617        6.33746476492854
h           -5.88062977951265        0.19239406625022        7.51609347867898
o           -6.10709095850226       -1.55790465586240       -6.11440541482369
h           -6.26070496784994       -2.43104975015452       -5.70366604443058
h           -5.39537812563282       -1.11406105214048       -5.62870221828543
o           -3.02583747117191        8.51829109789822       -0.89780824050404
h           -3.33723917728061        7.60239687727213       -0.81566355102520
h           -2.41160954485791        8.53942292513748       -1.63651267166937
o           -9.69687001265304        5.21626055815092       -2.26736868564041
h           -9.56498106488922        4.52180895417969       -1.59152671854292
h           -8.98140352823189        5.08093853700547       -2.90289994997758
o            4.56151306949644       -0.88351856132981        4.20470240170011
h            4.53886421949729       -1.03213254924163        5.16732553519061
h            4.52798663270671       -1.74863384436711        3.77097284304005
o           -4.52759297084306       -2.03783277693612       -8.32941060552174
h           -5.20850909106998       -1.78681365852483       -7.68337063685951
h           -4.20914132068827       -2.90906967540504       -8.02694307538385
o            1.66440455578119       -5.31626918617206       -3.23546143482355
h            2.07856605785663       -6.07158618459621       -2.79582733311113
h            0.77553659534784       -5.62332015538462       -3.51714180588997
o            1.50274140058014       -2.68432311685634       -4.83896483655518
h            1.76779235588966       -2.69649414222734       -3.90379534911744
h            1.69916553205663       -1.80269270625140       -5.19677882545836
o           -4.14151532476218        5.99198291188164       -0.35562234380656
h           -4.81770873092714        6.29569161380440        0.27211418135381
h           -3.98149708580825        5.05249920354397       -0.15976182847800
o           -6.14033464591787        1.15364908046761       -4.55215481616460
h           -5.28633464224954        1.63453964345199       -4.65893675265740
h           -6.70904133515510        1.44520164491854       -5.29415049702424
o          -11.84101146662582        2.93942488088886       -1.90002481812129
h          -11.75445771765605        3.89508756202512       -1.87747259141354
h          -11.01147221168809        2.62020797180466       -2.31819881132452
o            6.72045612089573        6.28091669407491        0.74146607570895
h            5.83369668216670        5.86987731021021        0.69386068182571
h            7.33754812174385        5.55615806351616        0.49936287867034
o           -7.30996560780286        2.34668032338215       -2.46136999064149
h           -6.80887632439244        1.84857277719471       -3.13384542555101
h           -7.29777971013336        3.27168515526280       -2.77300038482905
o            3.22761059345151        6.21055531940284        3.81094494713168
h            4.19009849255505        6.11094014524484        3.95878298431557
h            3.11584136532147        6.75582141021479        3.01508596376917
o            2.96078767150705        1.48538512619007       -5.43252517168643
h            2.20531263189741        1.92834062299420       -4.99727242036767
h            3.45746920882639        2.20054903193934       -5.87558080158104
o            1.51344562078721       -6.12021768398423        5.51578880626131
h            0.99129330383060       -5.68024436790384        6.18733535315731
h            0.94433466068763       -6.17590084731782        4.72177269882756
o            6.45897322285554        3.52600246236810       -1.52144604544454
h            5.99678939083574        2.76831521716394       -1.14250209690182
h            7.18135509713491        3.75275068993100       -0.91740827558555
o           -5.75482611558397       -1.27089422149010        0.89796454498973
h           -5.72956599402769       -0.34540966505403        0.58940078311703
h           -6.67538118457758       -1.38956297108049        1.20725632019414
o            6.83939450186093        2.85629404770130        6.72334594442775
h            7.13573521956756        1.94832785683984        6.89045939492335
h            7.10273832692868        3.04365595421836        5.79822587675755
o           -8.56150600658844        0.83704802254121        4.58915881583151
h           -9.50765381860756        0.95571459293169        4.36823338712799
h           -8.53255170037490        0.10882207420364        5.24199491946308
o           -5.25009718441117        6.39951829647166        4.55421933277268
h           -4.68875085459151        5.98544382328833        5.22876768789003
h           -4.80474709822974        7.20074514873583        4.24298936664776
o           -9.05513414809141        3.30643121043902       -0.44947993709861
h           -9.53728906405841        2.47615066967011       -0.26825450871238
h           -8.19609205489071        3.04642270666195       -0.80759090067431
o           -2.95585643926414        1.68940976546177        8.59802794920003
h           -3.89141635646595        1.91273969034164        8.52244692791225
h           -2.82421998447736        0.98626454759752        7.92890448517956
o            1.03448033322376       -2.59165217865403        6.91792977977471
h            1.40789462447971       -1.72582324748305        6.62711725445526
h            0.13061122668216       -2.45364597425794        7.22980644984000
o            4.02698008498849       -5.28480083459178        5.97500887575647
h            3.80975559064202       -4.66927396929873        6.71271701321369
h            3.16908441008183       -5.69154906725454        5.74810391760803
o            0.40642035599326        4.45839270646334       -6.30044796496286
h            1.14971266153310        4.69313564328446       -5.72207873762229
h            0.61278277434757        3.57416405669981       -6.64594987040809
o            3.74893671178460        1.53467615891721       -1.79776632960840
h            3.93770099817168        1.72693838217984       -0.86166865535716
h            2.82331231346162        1.24685662442025       -1.86762264812732
o            7.77931086195822        2.14719168188988       -3.38601922875528
h            7.37069260736903        2.71072923780629       -2.69764493302061
h            8.23720751297626        1.39533546804493       -2.96685259884424
o            3.67460802768059        7.24965271499841       -1.76823787714802
h            4.55322582186518        6.85734467689585       -1.97059352317414
h            3.77852837723941        7.71314388779729       -0.93562485119537
o            2.65381558438701        4.43668193327749        5.83535778461277
h            3.47657569985363        4.36888256866812        6.34345427337293
h            2.81729881201930        5.12586901453700        5.17085242896330
o            4.92523407905123        2.85023202606401        3.98879496783111
h            4.47712312332579        2.58783233730826        4.81198226595848
h            5.59010864546617        2.15505025806053        3.83955056197751
o            6.64546394375341       -7.24878668537873       -1.49863087366156
h            6.83923237907604       -6.30379967805211       -1.37568694696760
h            6.33660677580838       -7.56857696640974       -0.64360741438778
o            4.56869081793008       -3.74090215653017        3.84862036263630
h            3.74631189882817       -3.77242209300560        3.32562299855820