      -----------------------------------------------------------      
     |                   =====================                   |     
     |                           x T B                           |     
     |                   =====================                   |     
     |                         S. Grimme                         |     
     |          Mulliken Center for Theoretical Chemistry        |     
     |                    University of Bonn                     |     
      -----------------------------------------------------------      

   * xtb version 6.5.1 (579679a) compiled by 'ehlert@majestix' on 2022-07-11

   xtb is free software: you can redistribute it and/or modify it under
   the terms of the GNU Lesser General Public License as published by
   the Free Software Foundation, either version 3 of the License, or
   (at your option) any later version.
   
   xtb is distributed in the hope that it will be useful,
   but WITHOUT ANY WARRANTY; without even the implied warranty of
   MERCHANTABILITY or FITNESS FOR A PARTICULAR PURPOSE.  See the
   GNU Lesser General Public License for more details.
   
   Cite this work as:
   * C. Bannwarth, E. Caldeweyher, S. Ehlert, A. Hansen, P. Pracht,
     J. Seibert, S. Spicher, S. Grimme, WIREs Comput. Mol. Sci., 2020, 11,
     e01493. DOI: 10.1002/wcms.1493
   
   for GFN2-xTB:
   * C. Bannwarth, S. Ehlert and S. Grimme., J. Chem. Theory Comput., 2019,
     15, 1652-1671. DOI: 10.1021/acs.jctc.8b01176
   for GFN1-xTB:
   * S. Grimme, C. Bannwarth, P. Shushkov, J. Chem. Theory Comput., 2017,
     13, 1989-2009. DOI: 10.1021/acs.jctc.7b00118
   for GFN0-xTB:
   * P. Pracht, E. Caldeweyher, S. Ehlert, S. Grimme, ChemRxiv, 2019, preprint.
     DOI: 10.26434/chemrxiv.8326202.v1
   for GFN-FF:
   * S. Spicher and S. Grimme, Angew. Chem. Int. Ed., 2020, 59, 15665-15673.
     DOI: 10.1002/anie.202004239
   
   for ALPB and GBSA implicit solvation:
   * S. Ehlert, M. Stahn, S. Spicher, S. Grimme, J. Chem. Theory Comput.,
     2021, 17, 4250-4261. DOI: 10.1021/acs.jctc.1c00471
   
   for DFT-D4:
   * E. Caldeweyher, C. Bannwarth and S. Grimme, J. Chem. Phys., 2017,
     147, 034112. DOI: 10.1063/1.4993215
   * E. Caldeweyher, S. Ehlert, A. Hansen, H. Neugebauer, S. Spicher,
     C. Bannwarth and S. Grimme, J. Chem. Phys., 2019, 150, 154122.
     DOI: 10.1063/1.5090222
   * E. Caldeweyher, J.-M. Mewes, S. Ehlert and S. Grimme, Phys. Chem. Chem. Phys.
     2020, 22, 8499-8512. DOI: 10.1039/D0CP00502A
   
   for sTDA-xTB:
   * S. Grimme and C. Bannwarth, J. Chem. Phys., 2016, 145, 054103.
     DOI: 10.1063/1.4959605
   
   in the mass-spec context:
   * V. Asgeirsson, C. Bauer and S. Grimme, Chem. Sci., 2017, 8, 4879.
     DOI: 10.1039/c7sc00601b
   * J. Koopman and S. Grimme, ACS Omega 2019, 4, 12, 15120-15133.
     DOI: 10.1021/acsomega.9b02011
   
   for metadynamics refer to:
   * S. Grimme, J. Chem. Theory Comput., 2019, 155, 2847-2862
     DOI: 10.1021/acs.jctc.9b00143
   
   for SPH calculations refer to:
   * S. Spicher and S. Grimme, J. Chem. Theory Comput., 2021, 17, 1701-1714
     DOI: 10.1021/acs.jctc.0c01306
   
   with help from (in alphabetical order)
   P. Atkinson, C. Bannwarth, F. Bohle, G. Brandenburg, E. Caldeweyher
   M. Checinski, S. Dohm, S. Ehlert, S. Ehrlich, I. Gerasimov, C. Hölzer
   A. Katbashev, J. Koopman, C. Lavigne, S. Lehtola, F. März, M. Müller,
   F. Musil, H. Neugebauer, J. Pisarek, C. Plett, P. Pracht, F. Pultar,
   J. Seibert, P. Shushkov, S. Spicher, M. Stahn, M. Steiner, T. Strunk,
   J. Stückrath, T. Rose, and J. Unsleber
   
 * started run on 2022/11/24 at 09:07:52.367     

           -------------------------------------------------
          |                Calculation Setup                |
           -------------------------------------------------

          program call               : xtb solvent_cluster.coord --gfn2 --input xcontrol --opt 1
          hostname                   : cn0341
          coordinate file            : solvent_cluster.coord
          omp threads                :                     2

   ID    Z sym.   atoms
    1    8 o      1, 4, 7, 10, 13, 16, 19, 22, 25, 28, 31, 34, 37, 40, 43,
                  46, 49, 52, 55, 58, 61, 64, 67, 70, 73, 76, 79, 82, 85, 88,
                  91, 94, 97, 100, 103, 106, 109, 112, 115, 118, 121, 124,
                  127, 130, 133, 136, 139, 142, 145, 148, 151, 154, 157, 160,
                  163, 166, 169, 172, 175, 178, 181, 184, 187, 190, 193, 196,
                  199, 202, 205, 208, 211, 214, 217, 220, 223, 226, 229, 232,
                  235, 238, 241, 244, 247, 250, 253, 256, 259, 262, 265, 268,
                  271, 274, 277, 280, 283, 286, 289, 292, 295, 298, 301, 304,
                  307, 310, 313, 316, 319, 322, 325, 328, 331, 334, 337, 340,
                  343, 346, 349, 352, 355, 358, 361, 364, 367, 370, 373, 376,
                  379, 382, 385, 388, 391, 394, 397, 400, 403, 406, 409, 412,
                  415, 418, 421, 424, 427, 430, 433, 436, 439, 442, 445, 448,
                  451, 454, 457, 460, 463, 466, 469, 472, 475, 478, 481, 484,
                  487, 490, 493, 496, 499, 502, 505, 508, 511, 514, 517, 520,
                  523, 526, 529, 532, 535, 538, 541, 544, 547, 550, 553, 556,
                  559, 562, 565, 568, 571, 574, 577, 580, 583, 586, 589, 592,
                  595, 598, 601, 604, 607, 610, 613, 616, 619, 622, 625, 628,
                  631, 634, 637, 640, 643, 646, 649, 652, 655, 658, 661, 664,
                  667, 670, 673, 676, 679, 682, 685, 688, 691, 694, 697, 700,
                  703, 706, 709, 712, 715, 718, 721, 724, 727, 730, 733, 736,
                  739, 742, 745, 748, 751, 754
    2    1 h      2, 3, 5, 6, 8, 9, 11, 12, 14, 15, 17, 18, 20, 21, 23, 24,
                  26, 27, 29, 30, 32, 33, 35, 36, 38, 39, 41, 42, 44, 45, 47,
                  48, 50, 51, 53, 54, 56, 57, 59, 60, 62, 63, 65, 66, 68, 69,
                  71, 72, 74, 75, 77, 78, 80, 81, 83, 84, 86, 87, 89, 90, 92,
                  93, 95, 96, 98, 99, 101, 102, 104, 105, 107, 108, 110, 111,
                  113, 114, 116, 117, 119, 120, 122, 123, 125, 126, 128, 129,
                  131, 132, 134, 135, 137, 138, 140, 141, 143, 144, 146, 147,
                  149, 150, 152, 153, 155, 156, 158, 159, 161, 162, 164, 165,
                  167, 168, 170, 171, 173, 174, 176, 177, 179, 180, 182, 183,
                  185, 186, 188, 189, 191, 192, 194, 195, 197, 198, 200, 201,
                  203, 204, 206, 207, 209, 210, 212, 213, 215, 216, 218, 219,
                  221, 222, 224, 225, 227, 228, 230, 231, 233, 234, 236, 237,
                  239, 240, 242, 243, 245, 246, 248, 249, 251, 252, 254, 255,
                  257, 258, 260, 261, 263, 264, 266, 267, 269, 270, 272, 273,
                  275, 276, 278, 279, 281, 282, 284, 285, 287, 288, 290, 291,
                  293, 294, 296, 297, 299, 300, 302, 303, 305, 306, 308, 309,
                  311, 312, 314, 315, 317, 318, 320, 321, 323, 324, 326, 327,
                  329, 330, 332, 333, 335, 336, 338, 339, 341, 342, 344, 345,
                  347, 348, 350, 351, 353, 354, 356, 357, 359, 360, 362, 363,
                  365, 366, 368, 369, 371, 372, 374, 375, 377, 378, 380, 381,
                  383, 384, 386, 387, 389, 390, 392, 393, 395, 396, 398, 399,
                  401, 402, 404, 405, 407, 408, 410, 411, 413, 414, 416, 417,
                  419, 420, 422, 423, 425, 426, 428, 429, 431, 432, 434, 435,
                  437, 438, 440, 441, 443, 444, 446, 447, 449, 450, 452, 453,
                  455, 456, 458, 459, 461, 462, 464, 465, 467, 468, 470, 471,
                  473, 474, 476, 477, 479, 480, 482, 483, 485, 486, 488, 489,
                  491, 492, 494, 495, 497, 498, 500, 501, 503, 504, 506, 507,
                  509, 510, 512, 513, 515, 516, 518, 519, 521, 522, 524, 525,
                  527, 528, 530, 531, 533, 534, 536, 537, 539, 540, 542, 543,
                  545, 546, 548, 549, 551, 552, 554, 555, 557, 558, 560, 561,
                  563, 564, 566, 567, 569, 570, 572, 573, 575, 576, 578, 579,
                  581, 582, 584, 585, 587, 588, 590, 591, 593, 594, 596, 597,
                  599, 600, 602, 603, 605, 606, 608, 609, 611, 612, 614, 615,
                  617, 618, 620, 621, 623, 624, 626, 627, 629, 630, 632, 633,
                  635, 636, 638, 639, 641, 642, 644, 645, 647, 648, 650, 651,
                  653, 654, 656, 657, 659, 660, 662, 663, 665, 666, 668, 669,
                  671, 672, 674, 675, 677, 678, 680, 681, 683, 684, 686, 687,
                  689, 690, 692, 693, 695, 696, 698, 699, 701, 702, 704, 705,
                  707, 708, 710, 711, 713, 714, 716, 717, 719, 720, 722, 723,
                  725, 726, 728, 729, 731, 732, 734, 735, 737, 738, 740, 741,
                  743, 744, 746, 747, 749, 750, 752, 753, 755, 756

molecular fragmentation (1/2 indicates fragments):
111222222222222222222222222222222222222222222222222222222222222222222222
222222222222222222222222222222222222222222222222222222222222222222222222
222222222222222222222222222222222222222222222222222222222222222222222222
222222222222222222222222222222222222222222222222222222222222222222222222
222222222222222222222222222222222222222222222222222222222222222222222222
222222222222222222222222222222222222222222222222222222222222222222222222
222222222222222222222222222222222222222222222222222222222222222222222222
222222222222222222222222222222222222222222222222222222222222222222222222
222222222222222222222222222222222222222222222222222222222222222222222222
222222222222222222222222222222222222222222222222222222222222222222222222
222222222222222222222222222222222222
# atoms in fragment 1/2:     3   753
 fragment masses (1/2) :       18.02     4521.84
CMA distance (Bohr)    :  16.269
constraining FC (au)   :  0.0500

           -------------------------------------------------
          |                 G F N 2 - x T B                 |
           -------------------------------------------------

        Reference                      10.1021/acs.jctc.8b01176
      * Hamiltonian:
        H0-scaling (s, p, d)           1.850000    2.230000    2.230000
        zeta-weighting                 0.500000
      * Dispersion:
        s8                             2.700000
        a1                             0.520000
        a2                             5.000000
        s9                             5.000000
      * Repulsion:
        kExp                           1.500000    1.000000
        rExp                           1.000000
      * Coulomb:
        alpha                          2.000000
        third order                    shell-resolved
        anisotropic                    true
        a3                             3.000000
        a5                             4.000000
        cn-shift                       1.200000
        cn-exp                         4.000000
        max-rad                        5.000000


          ...................................................
          :                      SETUP                      :
          :.................................................:
          :  # basis functions                1512          :
          :  # atomic orbitals                1512          :
          :  # shells                         1008          :
          :  # electrons                      2016          :
          :  max. iterations                   250          :
          :  Hamiltonian                  GFN2-xTB          :
          :  restarted?                      false          :
          :  GBSA solvation                  false          :
          :  PC potential                    false          :
          :  electronic temp.          300.0000000     K    :
          :  accuracy                    1.0000000          :
          :  -> integral cutoff          0.2500000E+02      :
          :  -> integral neglect         0.1000000E-07      :
          :  -> SCF convergence          0.1000000E-05 Eh   :
          :  -> wf. convergence          0.1000000E-03 e    :
          :  Broyden damping             0.4000000          :
          ...................................................

 iter      E             dE          RMSdq      gap      omega  full diag
   1  -1291.0056553 -0.129101E+04  0.407E+00    8.54       0.0  T
   2  -1291.0748801 -0.692247E-01  0.242E+00    8.36       1.0  T
   3  -1291.1054337 -0.305536E-01  0.207E-01    8.01       1.0  T
   4  -1291.1103535 -0.491981E-02  0.451E-02    8.14       1.0  T
   5  -1291.1104242 -0.707417E-04  0.307E-02    8.13       1.0  T
   6  -1291.1104624 -0.381453E-04  0.404E-03    8.15       1.0  T
   7  -1291.1104645 -0.209644E-05  0.770E-04    8.14       4.7  T
   8  -1291.1104645 -0.337770E-07  0.403E-04    8.14       9.0  T
   9  -1291.1104645 -0.159214E-07  0.587E-05    8.14      61.9  T

   *** convergence criteria satisfied after 9 iterations ***

         #    Occupation            Energy/Eh            Energy/eV
      -------------------------------------------------------------
         1        2.0000           -0.6864767             -18.6800
       ...           ...                  ...                  ...
      1002        2.0000           -0.4117795             -11.2051
      1003        2.0000           -0.4106931             -11.1755
      1004        2.0000           -0.4106384             -11.1740
      1005        2.0000           -0.4090783             -11.1316
      1006        2.0000           -0.4087634             -11.1230
      1007        2.0000           -0.4080656             -11.1040
      1008        2.0000           -0.4027849             -10.9603 (HOMO)
      1009                         -0.1035539              -2.8178 (LUMO)
      1010                         -0.0936668              -2.5488
      1011                         -0.0828263              -2.2538
      1012                         -0.0777842              -2.1166
      1013                         -0.0715389              -1.9467
       ...                                ...                  ...
      1512                          0.4374106              11.9025
      -------------------------------------------------------------
                  HL-Gap            0.2992310 Eh            8.1425 eV
             Fermi-level           -0.2531694 Eh           -6.8891 eV

 SCC (total)                   0 d,  0 h,  0 min, 21.778 sec
 SCC setup                      ...        0 min,  0.041 sec (  0.190%)
 Dispersion                     ...        0 min,  0.110 sec (  0.505%)
 classical contributions        ...        0 min,  0.023 sec (  0.106%)
 integral evaluation            ...        0 min,  0.604 sec (  2.773%)
 iterations                     ...        0 min,  8.644 sec ( 39.691%)
 molecular gradient             ...        0 min, 12.291 sec ( 56.438%)
 printout                       ...        0 min,  0.065 sec (  0.296%)

         :::::::::::::::::::::::::::::::::::::::::::::::::::::
         ::                     SUMMARY                     ::
         :::::::::::::::::::::::::::::::::::::::::::::::::::::
         :: total energy           -1283.333538355872 Eh    ::
         :: gradient norm              0.040934860557 Eh/a0 ::
         :: HOMO-LUMO gap              8.142490384789 eV    ::
         ::.................................................::
         :: SCC energy             -1291.110464535073 Eh    ::
         :: -> isotropic ES            7.165065421520 Eh    ::
         :: -> anisotropic ES         -1.623073959639 Eh    ::
         :: -> anisotropic XC         -0.126590831279 Eh    ::
         :: -> dispersion             -0.785864601357 Eh    ::
         :: repulsion energy           7.622247100930 Eh    ::
         :: add. restraining           0.000000000000 Eh    ::
         :: total charge               0.000000000000 e     ::
         :::::::::::::::::::::::::::::::::::::::::::::::::::::

      ----------------------------------------------------------- 
     |                       L-ANC optimizer                     |
      ----------------------------------------------------------- 
          low memory version by Sebastian Ehlert

          ...................................................
          :                      SETUP                      :
          :.................................................:
          :   energy convergence        0.1000000E-05 Eh    :
          :   grad. convergence         0.8000000E-03 Eh/a0 :
          :   optimization log               true           :
          :   writing optlog all                1     steps :
          :   Hessian reset                    20     steps :
          :   maximium step len.        1.0000000     a0    :
          :   LBFGS images                     20           :
          ...................................................
 * calculating model hessian...
Using Lindh-Hessian (1995)
 Shifting diagonal of input Hessian by   1.000010761583269E-002
 Lowest  eigenvalues of input Hessian
    0.010000    0.010000   -0.000000   -0.000000   -0.000000   -0.000000
   -0.000000   -0.000000   -0.000000   -0.000000   -0.000000   -0.000000
   -0.000000   -0.000000   -0.000000   -0.000000   -0.000000   -0.000000
 Highest eigenvalues
    0.309470    0.317256    1.223661    1.224148    1.426202    1.446278
 

........................................................................
.............................. CYCLE    1 ..............................
........................................................................
   1  -1291.0975195 -0.129110E+04  0.519E-02    8.07       0.0  T
   2  -1291.0975590 -0.394324E-04  0.318E-02    8.07       1.0  T
   3  -1291.0975747 -0.157132E-04  0.341E-03    8.06       1.1  T
   4  -1291.0975756 -0.878550E-06  0.879E-04    8.06       4.1  T
   5  -1291.0975756 -0.126008E-07  0.108E-04    8.06      33.8  T
     SCC iter.                  ...        0 min,  3.772 sec
     gradient                   ...        0 min, 12.357 sec
 * total energy  : -1283.3331357 Eh     change        0.4026632E-03 Eh
   gradient norm :     0.0669074 Eh/a0  converged?    E=F G=F D=F
   step length   :     0.5047921 a0

........................................................................
.............................. CYCLE    2 ..............................
........................................................................
   1  -1291.1123136 -0.129111E+04  0.408E-02    8.12       0.0  T
   2  -1291.1123465 -0.328782E-04  0.247E-02    8.12       1.0  T
   3  -1291.1123573 -0.108407E-04  0.349E-03    8.13       1.0  T
   4  -1291.1123583 -0.998018E-06  0.877E-04    8.13       4.1  T
   5  -1291.1123583 -0.100424E-07  0.100E-04    8.13      36.2  T
     SCC iter.                  ...        0 min,  3.411 sec
     gradient                   ...        0 min, 12.422 sec
 * total energy  : -1283.3360182 Eh     change       -0.2882531E-02 Eh
   gradient norm :     0.0093183 Eh/a0  converged?    E=F G=F D=F
   step length   :     0.3840571 a0

........................................................................
.............................. CYCLE    3 ..............................
........................................................................
   1  -1291.1117316 -0.129111E+04  0.133E-02    8.12       0.0  T
   2  -1291.1117337 -0.210534E-05  0.816E-03    8.11       1.0  T
   3  -1291.1117345 -0.862901E-06  0.761E-04    8.11       4.8  T
   4  -1291.1117346 -0.586745E-07  0.241E-04    8.11      15.1  T
     SCC iter.                  ...        0 min,  2.664 sec
     gradient                   ...        0 min, 12.488 sec
 * total energy  : -1283.3368743 Eh     change       -0.8560670E-03 Eh
   gradient norm :     0.0077031 Eh/a0  converged?    E=F G=F D=F
   step length   :     0.2232161 a0

........................................................................
.............................. CYCLE    4 ..............................
........................................................................
   1  -1291.0948993 -0.129109E+04  0.492E-02    8.04       0.0  T
   2  -1291.0949411 -0.417958E-04  0.299E-02    8.04       1.0  T
   3  -1291.0949550 -0.139601E-04  0.361E-03    8.04       1.0  T
   4  -1291.0949563 -0.131653E-05  0.105E-03    8.03       3.5  T
   5  -1291.0949564 -0.305806E-07  0.142E-04    8.04      25.5  T
   6  -1291.0949564 -0.119394E-08  0.557E-05    8.04      65.2  T
     SCC iter.                  ...        0 min,  3.839 sec
     gradient                   ...        0 min, 12.425 sec
 * total energy  : -1283.3360023 Eh     change        0.8720111E-03 Eh
   gradient norm :     0.0674453 Eh/a0  converged?    E=F G=F D=F
   step length   :     1.1619451 a0

........................................................................
.............................. CYCLE    5 ..............................
........................................................................
   1  -1291.1146499 -0.129111E+04  0.354E-02    8.08       0.0  T
   2  -1291.1146674 -0.175054E-04  0.214E-02    8.08       1.0  T
   3  -1291.1146742 -0.683590E-05  0.245E-03    8.08       1.5  T
   4  -1291.1146747 -0.513292E-06  0.781E-04    8.08       4.7  T
   5  -1291.1146747 -0.176458E-07  0.779E-05    8.08      46.7  T
     SCC iter.                  ...        0 min,  3.194 sec
     gradient                   ...        0 min, 12.429 sec
 * total energy  : -1283.3384094 Eh     change       -0.2407142E-02 Eh
   gradient norm :     0.0122434 Eh/a0  converged?    E=F G=F D=F
   step length   :     0.4745794 a0

........................................................................
.............................. CYCLE    6 ..............................
........................................................................
   1  -1291.1140755 -0.129111E+04  0.967E-03    8.08       0.0  T
   2  -1291.1140769 -0.140321E-05  0.581E-03    8.08       1.0  T
   3  -1291.1140773 -0.392326E-06  0.641E-04    8.08       5.7  T
   4  -1291.1140773 -0.470657E-07  0.172E-04    8.08      21.1  T
     SCC iter.                  ...        0 min,  2.588 sec
     gradient                   ...        0 min, 12.459 sec
 * total energy  : -1283.3391977 Eh     change       -0.7882908E-03 Eh
   gradient norm :     0.0074283 Eh/a0  converged?    E=F G=F D=F
   step length   :     0.3316678 a0

........................................................................
.............................. CYCLE    7 ..............................
........................................................................
   1  -1291.1099875 -0.129111E+04  0.240E-02    8.07       0.0  T
   2  -1291.1100058 -0.182643E-04  0.143E-02    8.07       1.0  T
   3  -1291.1100093 -0.351574E-05  0.236E-03    8.07       1.5  T
   4  -1291.1100099 -0.581979E-06  0.484E-04    8.07       7.5  T
   5  -1291.1100099 -0.927639E-08  0.942E-05    8.07      38.6  T
     SCC iter.                  ...        0 min,  3.224 sec
     gradient                   ...        0 min, 12.490 sec
 * total energy  : -1283.3402781 Eh     change       -0.1080433E-02 Eh
   gradient norm :     0.0274478 Eh/a0  converged?    E=F G=F D=F
   step length   :     2.7449987 a0

........................................................................
.............................. CYCLE    8 ..............................
........................................................................
   1  -1291.1140518 -0.129111E+04  0.777E-03    8.08       0.0  T
   2  -1291.1140534 -0.155403E-05  0.461E-03    8.08       1.0  T
   3  -1291.1140538 -0.411163E-06  0.719E-04    8.08       5.1  T
   4  -1291.1140538 -0.490456E-07  0.185E-04    8.08      19.6  T
     SCC iter.                  ...        0 min,  2.606 sec
     gradient                   ...        0 min, 12.505 sec
 * total energy  : -1283.3408623 Eh     change       -0.5841397E-03 Eh
   gradient norm :     0.0114545 Eh/a0  converged?    E=F G=F D=F
   step length   :     0.1747204 a0

........................................................................
.............................. CYCLE    9 ..............................
........................................................................
   1  -1291.1178863 -0.129112E+04  0.158E-02    8.09       0.0  T
   2  -1291.1178930 -0.670491E-05  0.943E-03    8.10       1.0  T
   3  -1291.1178943 -0.131439E-05  0.145E-03    8.10       2.5  T
   4  -1291.1178945 -0.202321E-06  0.270E-04    8.10      13.5  T
   5  -1291.1178945 -0.217642E-08  0.463E-05    8.10      78.5  T
     SCC iter.                  ...        0 min,  3.194 sec
     gradient                   ...        0 min, 12.449 sec
 * total energy  : -1283.3414124 Eh     change       -0.5501316E-03 Eh
   gradient norm :     0.0233028 Eh/a0  converged?    E=F G=F D=F
   step length   :     0.5087763 a0

........................................................................
.............................. CYCLE   10 ..............................
........................................................................
   1  -1291.1171560 -0.129112E+04  0.227E-02    8.14       0.0  T
   2  -1291.1171724 -0.163615E-04  0.140E-02    8.15       1.0  T
   3  -1291.1171763 -0.397505E-05  0.224E-03    8.15       1.6  T
   4  -1291.1171769 -0.571423E-06  0.472E-04    8.15       7.7  T
   5  -1291.1171769 -0.596401E-08  0.700E-05    8.15      51.9  T
     SCC iter.                  ...        0 min,  3.154 sec
     gradient                   ...        0 min, 12.456 sec
 * total energy  : -1283.3422434 Eh     change       -0.8310045E-03 Eh
   gradient norm :     0.0140962 Eh/a0  converged?    E=F G=F D=F
   step length   :     0.5193850 a0

........................................................................
.............................. CYCLE   11 ..............................
........................................................................
   1  -1291.1099170 -0.129111E+04  0.328E-02    8.17       0.0  T
   2  -1291.1099791 -0.620938E-04  0.200E-02    8.17       1.0  T
   3  -1291.1099911 -0.119121E-04  0.441E-03    8.17       1.0  T
   4  -1291.1099928 -0.178998E-05  0.944E-04    8.17       3.9  T
   5  -1291.1099929 -0.331092E-07  0.134E-04    8.17      27.2  T
   6  -1291.1099929 -0.133582E-08  0.523E-05    8.17      69.5  T
     SCC iter.                  ...        0 min,  3.740 sec
     gradient                   ...        0 min, 12.519 sec
 * total energy  : -1283.3402330 Eh     change        0.2010379E-02 Eh
   gradient norm :     0.0668865 Eh/a0  converged?    E=F G=F D=F
   step length   :     0.6297016 a0

........................................................................
.............................. CYCLE   12 ..............................
........................................................................
   1  -1291.1202992 -0.129112E+04  0.320E-02    8.20       0.0  T
   2  -1291.1203848 -0.855956E-04  0.189E-02    8.19       1.0  T
   3  -1291.1204021 -0.173821E-04  0.539E-03    8.17       1.0  T
   4  -1291.1204041 -0.191763E-05  0.107E-03    8.17       3.4  T
   5  -1291.1204041 -0.373748E-07  0.134E-04    8.17      27.1  T
   6  -1291.1204041 -0.136697E-08  0.511E-05    8.17      71.2  T
     SCC iter.                  ...        0 min,  3.768 sec
     gradient                   ...        0 min, 12.556 sec
 * total energy  : -1283.3437027 Eh     change       -0.3469697E-02 Eh
   gradient norm :     0.0163887 Eh/a0  converged?    E=F G=F D=F
   step length   :     0.5830533 a0

........................................................................
.............................. CYCLE   13 ..............................
........................................................................
   1  -1291.1146494 -0.129111E+04  0.155E-02    8.17       0.0  T
   2  -1291.1146544 -0.495398E-05  0.935E-03    8.18       1.0  T
   3  -1291.1146554 -0.108436E-05  0.116E-03    8.18       3.1  T
   4  -1291.1146556 -0.167480E-06  0.291E-04    8.18      12.5  T
   5  -1291.1146556 -0.235877E-08  0.465E-05    8.18      78.2  T
     SCC iter.                  ...        0 min,  3.106 sec
     gradient                   ...        0 min, 12.537 sec
 * total energy  : -1283.3440820 Eh     change       -0.3792564E-03 Eh
   gradient norm :     0.0236678 Eh/a0  converged?    E=F G=F D=F
   step length   :     0.3243104 a0

........................................................................
.............................. CYCLE   14 ..............................
........................................................................
   1  -1291.1150640 -0.129112E+04  0.724E-03    8.19       0.0  T
   2  -1291.1150655 -0.141381E-05  0.439E-03    8.19       1.0  T
   3  -1291.1150659 -0.397849E-06  0.658E-04    8.19       5.5  T
   4  -1291.1150659 -0.442840E-07  0.182E-04    8.19      20.0  T
     SCC iter.                  ...        0 min,  2.438 sec
     gradient                   ...        0 min, 12.511 sec
 * total energy  : -1283.3447470 Eh     change       -0.6649634E-03 Eh
   gradient norm :     0.0215989 Eh/a0  converged?    E=F G=F D=F
   step length   :     0.2097865 a0

........................................................................
.............................. CYCLE   15 ..............................
........................................................................
   1  -1291.1158144 -0.129112E+04  0.129E-02    8.21       0.0  T
   2  -1291.1158217 -0.728823E-05  0.773E-03    8.21       1.0  T
   3  -1291.1158231 -0.149334E-05  0.153E-03    8.21       2.4  T
   4  -1291.1158234 -0.222818E-06  0.337E-04    8.21      10.8  T
   5  -1291.1158234 -0.425052E-08  0.474E-05    8.21      76.7  T
     SCC iter.                  ...        0 min,  3.020 sec
     gradient                   ...        0 min, 12.459 sec
 * total energy  : -1283.3452191 Eh     change       -0.4721369E-03 Eh
   gradient norm :     0.0298171 Eh/a0  converged?    E=F G=F D=F
   step length   :     0.3248624 a0

........................................................................
.............................. CYCLE   16 ..............................
........................................................................
   1  -1291.1175749 -0.129112E+04  0.823E-03    8.22       0.0  T
   2  -1291.1175778 -0.286051E-05  0.494E-03    8.22       1.0  T
   3  -1291.1175783 -0.478025E-06  0.927E-04    8.22       3.9  T
   4  -1291.1175783 -0.817461E-07  0.163E-04    8.22      22.3  T
     SCC iter.                  ...        0 min,  2.380 sec
     gradient                   ...        0 min, 12.496 sec
 * total energy  : -1283.3457341 Eh     change       -0.5149631E-03 Eh
   gradient norm :     0.0231981 Eh/a0  converged?    E=F G=F D=F
   step length   :     0.2575551 a0

........................................................................
.............................. CYCLE   17 ..............................
........................................................................
   1  -1291.1191257 -0.129112E+04  0.978E-03    8.22       0.0  T
   2  -1291.1191271 -0.142528E-05  0.587E-03    8.22       1.0  T
   3  -1291.1191275 -0.347185E-06  0.640E-04    8.22       5.7  T
   4  -1291.1191275 -0.468929E-07  0.164E-04    8.22      22.2  T
     SCC iter.                  ...        0 min,  2.376 sec
     gradient                   ...        0 min, 12.463 sec
 * total energy  : -1283.3462688 Eh     change       -0.5347651E-03 Eh
   gradient norm :     0.0085688 Eh/a0  converged?    E=F G=F D=F
   step length   :     0.1343495 a0

........................................................................
.............................. CYCLE   18 ..............................
........................................................................
   1  -1291.1162445 -0.129112E+04  0.192E-02    8.22       0.0  T
   2  -1291.1162536 -0.911616E-05  0.116E-02    8.21       1.0  T
   3  -1291.1162552 -0.163198E-05  0.155E-03    8.21       2.3  T
   4  -1291.1162556 -0.339989E-06  0.344E-04    8.21      10.6  T
   5  -1291.1162556 -0.471164E-08  0.582E-05    8.21      62.5  T
     SCC iter.                  ...        0 min,  2.973 sec
     gradient                   ...        0 min, 12.354 sec
 * total energy  : -1283.3464466 Eh     change       -0.1777492E-03 Eh
   gradient norm :     0.0238686 Eh/a0  converged?    E=F G=F D=F
   step length   :     0.3139645 a0

........................................................................
.............................. CYCLE   19 ..............................
........................................................................
   1  -1291.1215545 -0.129112E+04  0.103E-02    8.21       0.0  T
   2  -1291.1215570 -0.250073E-05  0.623E-03    8.21       1.0  T
   3  -1291.1215577 -0.638609E-06  0.826E-04    8.21       4.4  T
   4  -1291.1215577 -0.798825E-07  0.237E-04    8.21      15.4  T
     SCC iter.                  ...        0 min,  2.383 sec
     gradient                   ...        0 min, 12.298 sec
 * total energy  : -1283.3468699 Eh     change       -0.4232924E-03 Eh
   gradient norm :     0.0137980 Eh/a0  converged?    E=F G=F D=F
   step length   :     0.1950391 a0

........................................................................
.............................. CYCLE   20 ..............................
........................................................................
   1  -1291.1191171 -0.129112E+04  0.786E-03    8.20       0.0  T
   2  -1291.1191179 -0.776999E-06  0.471E-03    8.20       1.0  T
   3  -1291.1191182 -0.268644E-06  0.480E-04    8.20       7.6  T
   4  -1291.1191182 -0.216926E-07  0.148E-04    8.20      24.6  T
     SCC iter.                  ...        0 min,  2.395 sec
     gradient                   ...        0 min, 12.242 sec
 * total energy  : -1283.3469757 Eh     change       -0.1057877E-03 Eh
   gradient norm :     0.0116951 Eh/a0  converged?    E=F G=F D=F
   step length   :     0.1091209 a0
 * RMSD in coord.:     0.1385214 a0     energy gain  -0.1343730E-01 Eh
 * calculating model hessian...
Using Lindh-Hessian (1995)
 Shifting diagonal of input Hessian by   1.000019973259668E-002
 Lowest  eigenvalues of input Hessian
    0.010000    0.010000   -0.000000   -0.000000   -0.000000   -0.000000
   -0.000000   -0.000000   -0.000000   -0.000000   -0.000000   -0.000000
   -0.000000   -0.000000   -0.000000   -0.000000   -0.000000   -0.000000
 Highest eigenvalues
    0.291390    0.307212    1.211783    1.223968    1.377674    1.407660
 

........................................................................
.............................. CYCLE   21 ..............................
........................................................................
   1  -1291.1198816 -0.129112E+04  0.119E-02    8.19       0.0  T
   2  -1291.1198853 -0.371765E-05  0.717E-03    8.19       1.0  T
   3  -1291.1198861 -0.789408E-06  0.104E-03    8.19       3.5  T
   4  -1291.1198862 -0.120499E-06  0.200E-04    8.19      18.2  T
   5  -1291.1198862 -0.968839E-09  0.307E-05    8.19     118.6  T
     SCC iter.                  ...        0 min,  3.003 sec
     gradient                   ...        0 min, 12.356 sec
 * total energy  : -1283.3475709 Eh     change       -0.5952555E-03 Eh
   gradient norm :     0.0074245 Eh/a0  converged?    E=F G=F D=F
   step length   :     0.2130480 a0

........................................................................
.............................. CYCLE   22 ..............................
........................................................................
   1  -1291.1205915 -0.129112E+04  0.162E-02    8.18       0.0  T
   2  -1291.1206003 -0.879746E-05  0.964E-03    8.18       1.0  T
   3  -1291.1206017 -0.145079E-05  0.166E-03    8.18       2.2  T
   4  -1291.1206020 -0.260232E-06  0.283E-04    8.18      12.9  T
   5  -1291.1206020 -0.219643E-08  0.478E-05    8.18      76.1  T
     SCC iter.                  ...        0 min,  3.026 sec
     gradient                   ...        0 min, 12.262 sec
 * total energy  : -1283.3479397 Eh     change       -0.3688313E-03 Eh
   gradient norm :     0.0181723 Eh/a0  converged?    E=F G=F D=F
   step length   :     0.3868415 a0

........................................................................
.............................. CYCLE   23 ..............................
........................................................................
   1  -1291.1217873 -0.129112E+04  0.516E-03    8.18       0.0  T
   2  -1291.1217880 -0.702695E-06  0.310E-03    8.18       1.2  T
   3  -1291.1217882 -0.212638E-06  0.494E-04    8.18       7.4  T
   4  -1291.1217882 -0.211317E-07  0.131E-04    8.18      27.8  T
     SCC iter.                  ...        0 min,  2.405 sec
     gradient                   ...        0 min, 12.274 sec
 * total energy  : -1283.3481184 Eh     change       -0.1786442E-03 Eh
   gradient norm :     0.0060146 Eh/a0  converged?    E=F G=F D=F
   step length   :     0.0532319 a0

........................................................................
.............................. CYCLE   24 ..............................
........................................................................
   1  -1291.1217534 -0.129112E+04  0.524E-03    8.17       0.0  T
   2  -1291.1217538 -0.390013E-06  0.322E-03    8.17       1.1  T
   3  -1291.1217539 -0.147340E-06  0.325E-04    8.17      11.2  T
   4  -1291.1217539 -0.108087E-07  0.928E-05    8.17      39.2  T
     SCC iter.                  ...        0 min,  2.395 sec
     gradient                   ...        0 min, 12.267 sec
 * total energy  : -1283.3482258 Eh     change       -0.1073761E-03 Eh
   gradient norm :     0.0026901 Eh/a0  converged?    E=F G=F D=F
   step length   :     0.1116672 a0

........................................................................
.............................. CYCLE   25 ..............................
........................................................................
   1  -1291.1216306 -0.129112E+04  0.848E-03    8.16       0.0  T
   2  -1291.1216315 -0.877311E-06  0.517E-03    8.16       1.0  T
   3  -1291.1216317 -0.222171E-06  0.485E-04    8.15       7.5  T
   4  -1291.1216317 -0.315140E-07  0.109E-04    8.15      33.2  T
     SCC iter.                  ...        0 min,  2.393 sec
     gradient                   ...        0 min, 12.248 sec
 * total energy  : -1283.3483379 Eh     change       -0.1121393E-03 Eh
   gradient norm :     0.0055690 Eh/a0  converged?    E=F G=F D=F
   step length   :     0.2149391 a0

........................................................................
.............................. CYCLE   26 ..............................
........................................................................
   1  -1291.1218372 -0.129112E+04  0.618E-03    8.14       0.0  T
   2  -1291.1218378 -0.594956E-06  0.377E-03    8.14       1.0  T
   3  -1291.1218380 -0.136248E-06  0.404E-04    8.14       9.0  T
   4  -1291.1218380 -0.224361E-07  0.853E-05    8.14      42.6  T
     SCC iter.                  ...        0 min,  2.385 sec
     gradient                   ...        0 min, 12.228 sec
 * total energy  : -1283.3484059 Eh     change       -0.6803618E-04 Eh
   gradient norm :     0.0058116 Eh/a0  converged?    E=F G=F D=F
   step length   :     0.1447797 a0

........................................................................
.............................. CYCLE   27 ..............................
........................................................................
   1  -1291.1219091 -0.129112E+04  0.636E-03    8.13       0.0  T
   2  -1291.1219098 -0.745172E-06  0.386E-03    8.13       1.0  T
   3  -1291.1219099 -0.133413E-06  0.461E-04    8.13       7.9  T
   4  -1291.1219100 -0.287653E-07  0.842E-05    8.13      43.2  T
     SCC iter.                  ...        0 min,  2.380 sec
     gradient                   ...        0 min, 12.237 sec
 * total energy  : -1283.3484751 Eh     change       -0.6912243E-04 Eh
   gradient norm :     0.0030021 Eh/a0  converged?    E=F G=F D=F
   step length   :     0.1474045 a0

........................................................................
.............................. CYCLE   28 ..............................
........................................................................
   1  -1291.1213454 -0.129112E+04  0.729E-03    8.11       0.0  T
   2  -1291.1213461 -0.639677E-06  0.446E-03    8.11       1.0  T
   3  -1291.1213463 -0.180914E-06  0.399E-04    8.11       9.1  T
   4  -1291.1213463 -0.220598E-07  0.100E-04    8.11      36.2  T
     SCC iter.                  ...        0 min,  2.378 sec
     gradient                   ...        0 min, 12.279 sec
 * total energy  : -1283.3485193 Eh     change       -0.4420381E-04 Eh
   gradient norm :     0.0054163 Eh/a0  converged?    E=F G=F D=F
   step length   :     0.1604473 a0

........................................................................
.............................. CYCLE   29 ..............................
........................................................................
   1  -1291.1226877 -0.129112E+04  0.623E-03    8.10       0.0  T
   2  -1291.1226885 -0.834828E-06  0.374E-03    8.10       1.0  T
   3  -1291.1226886 -0.144531E-06  0.497E-04    8.10       7.3  T
   4  -1291.1226887 -0.299806E-07  0.931E-05    8.10      39.1  T
     SCC iter.                  ...        0 min,  2.353 sec
     gradient                   ...        0 min, 12.257 sec
 * total energy  : -1283.3485478 Eh     change       -0.2855231E-04 Eh
   gradient norm :     0.0046044 Eh/a0  converged?    E=F G=F D=F
   step length   :     0.1432293 a0

........................................................................
.............................. CYCLE   30 ..............................
........................................................................
   1  -1291.1213034 -0.129112E+04  0.685E-03    8.08       0.0  T
   2  -1291.1213038 -0.409042E-06  0.417E-03    8.08       1.0  T
   3  -1291.1213040 -0.143376E-06  0.331E-04    8.08      11.0  T
   4  -1291.1213040 -0.113391E-07  0.988E-05    8.08      36.8  T
     SCC iter.                  ...        0 min,  2.350 sec
     gradient                   ...        0 min, 12.139 sec
 * total energy  : -1283.3485755 Eh     change       -0.2769478E-04 Eh
   gradient norm :     0.0058899 Eh/a0  converged?    E=F G=F D=F
   step length   :     0.1679590 a0

........................................................................
.............................. CYCLE   31 ..............................
........................................................................
   1  -1291.1220487 -0.129112E+04  0.335E-03    8.09       0.0  T
   2  -1291.1220489 -0.234453E-06  0.203E-03    8.09       1.8  T
   3  -1291.1220490 -0.507973E-07  0.256E-04    8.09      14.2  T
   4  -1291.1220490 -0.839918E-08  0.610E-05    8.09      59.6  T
     SCC iter.                  ...        0 min,  2.302 sec
     gradient                   ...        0 min, 12.026 sec
 * total energy  : -1283.3485996 Eh     change       -0.2409341E-04 Eh
   gradient norm :     0.0018810 Eh/a0  converged?    E=F G=F D=F
   step length   :     0.0778152 a0

........................................................................
.............................. CYCLE   32 ..............................
........................................................................
   1  -1291.1220601 -0.129112E+04  0.357E-03    8.08       0.0  T
   2  -1291.1220602 -0.123019E-06  0.218E-03    8.08       1.7  T
   3  -1291.1220602 -0.463676E-07  0.178E-04    8.08      20.5  T
   4  -1291.1220602 -0.325372E-08  0.531E-05    8.08      68.6  T
     SCC iter.                  ...        0 min,  2.281 sec
     gradient                   ...        0 min, 12.006 sec
 * total energy  : -1283.3486143 Eh     change       -0.1464948E-04 Eh
   gradient norm :     0.0022571 Eh/a0  converged?    E=F G=F D=F
   step length   :     0.0828700 a0

........................................................................
.............................. CYCLE   33 ..............................
........................................................................
   1  -1291.1219919 -0.129112E+04  0.315E-03    8.08       0.0  T
   2  -1291.1219920 -0.135288E-06  0.190E-03    8.08       1.9  T
   3  -1291.1219921 -0.244254E-07  0.193E-04    8.08      18.9  T
   4  -1291.1219921 -0.515729E-08  0.340E-05    8.08     107.0  T
     SCC iter.                  ...        0 min,  2.281 sec
     gradient                   ...        0 min, 12.006 sec
 * total energy  : -1283.3486224 Eh     change       -0.8109594E-05 Eh
   gradient norm :     0.0013977 Eh/a0  converged?    E=F G=F D=F
   step length   :     0.0799792 a0

........................................................................
.............................. CYCLE   34 ..............................
........................................................................
   1  -1291.1219404 -0.129112E+04  0.470E-03    8.07       0.0  T
   2  -1291.1219408 -0.349246E-06  0.288E-03    8.07       1.3  T
   3  -1291.1219408 -0.988723E-07  0.300E-04    8.06      12.1  T
   4  -1291.1219409 -0.117909E-07  0.748E-05    8.06      48.6  T
     SCC iter.                  ...        0 min,  2.283 sec
     gradient                   ...        0 min, 12.006 sec
 * total energy  : -1283.3486258 Eh     change       -0.3440833E-05 Eh
   gradient norm :     0.0028074 Eh/a0  converged?    E=F G=F D=F
   step length   :     0.1132721 a0

........................................................................
.............................. CYCLE   35 ..............................
........................................................................
   1  -1291.1222845 -0.129112E+04  0.974E-04    8.07       0.0  T
   2  -1291.1222845 -0.131431E-07  0.589E-04    8.07       6.2  T
   3  -1291.1222845 -0.657496E-08  0.682E-05    8.07      53.3  T
     SCC iter.                  ...        0 min,  1.719 sec
     gradient                   ...        0 min, 12.006 sec
 * total energy  : -1283.3486305 Eh     change       -0.4735756E-05 Eh
   gradient norm :     0.0007819 Eh/a0  converged?    E=F G=T D=F
   step length   :     0.0181359 a0

........................................................................
.............................. CYCLE   36 ..............................
........................................................................
   1  -1291.1220626 -0.129112E+04  0.139E-03    8.06       0.0  T
   2  -1291.1220626 -0.360726E-07  0.836E-04    8.06       4.3  T
   3  -1291.1220626 -0.786417E-08  0.995E-05    8.06      36.6  T
     SCC iter.                  ...        0 min,  1.722 sec
     gradient                   ...        0 min, 12.009 sec
 * total energy  : -1283.3486328 Eh     change       -0.2227606E-05 Eh
   gradient norm :     0.0005185 Eh/a0  converged?    E=F G=T D=F
   step length   :     0.0411789 a0

........................................................................
.............................. CYCLE   37 ..............................
........................................................................
   1  -1291.1221685 -0.129112E+04  0.466E-04    8.06       0.0  T
   2  -1291.1221685 -0.551290E-08  0.284E-04    8.06      12.8  T
   3  -1291.1221685 -0.169962E-08  0.396E-05    8.06      91.9  T
     SCC iter.                  ...        0 min,  1.721 sec
     gradient                   ...        0 min, 12.008 sec
 * total energy  : -1283.3486339 Eh     change       -0.1107401E-05 Eh
   gradient norm :     0.0001589 Eh/a0  converged?    E=F G=T D=F
   step length   :     0.0126352 a0

........................................................................
.............................. CYCLE   38 ..............................
........................................................................
   1  -1291.1221422 -0.129112E+04  0.492E-04    8.06       0.0  T
   2  -1291.1221422 -0.431100E-08  0.302E-04    8.06      12.1  T
   3  -1291.1221422 -0.128944E-08  0.336E-05    8.06     108.3  T
     SCC iter.                  ...        0 min,  1.720 sec
     gradient                   ...        0 min, 12.007 sec
 * total energy  : -1283.3486341 Eh     change       -0.1966193E-06 Eh
   gradient norm :     0.0001568 Eh/a0  converged?    E=T G=T D=F
   step length   :     0.0101879 a0

   *** GEOMETRY OPTIMIZATION CONVERGED AFTER 38 CYCLES ***

------------------------------------------------------------------------
 total energy gain   :        -0.0150957 Eh       -9.4727 kcal/mol
 total RMSD          :         0.1505173 a0        0.0797 Å
 total power (kW/mol):        -1.0429945 (step)   -0.0639 (real)
------------------------------------------------------------------------

 L-ANCopt (total)              0 d,  0 h, 10 min, 20.291 sec
 setup                          ...        0 min,  0.030 sec (  0.005%)
 model hessian                  ...        0 min, 14.895 sec (  2.401%)
 ANC generation                 ...        0 min,  4.892 sec (  0.789%)
 coordinate transformation      ...        0 min,  0.003 sec (  0.000%)
 Rational function              ...        0 min,  0.000 sec (  0.000%)
 singlepoint calculation        ...       10 min,  0.205 sec ( 96.762%)
 optimization log               ...        0 min,  0.258 sec (  0.042%)
 hessian update                 ...        0 min,  0.001 sec (  0.000%)

================
 final structure:
================
$coord
       -5.73205713658200      -13.19161198253300       -7.31247008327600      o
       -6.51703869058900      -12.95674872178000       -8.97049842523500      h
       -6.96544534245500      -13.94768645160600       -6.16890816415700      h
        3.06019984777900       -5.57976128074700       -1.22563397641100      o
        3.80202713926100       -7.14856096877600       -1.86059493089300      h
        1.81778109531800       -5.12205703132400       -2.48935647593800      h
        6.77900095726000        1.72940934328900       -3.82056136444700      o
        7.85405820348400        3.18678174757500       -3.48283345036400      h
        5.31633172200200        1.87957671480400       -2.72640808639400      h
        8.80573405421800        0.15040659778200        4.32958201850900      o
       10.48951116077800        0.55442296065400        4.94537714678100      h
        8.39365340226400        1.43612831227900        3.10631292168500      h
        2.43331506629700       -0.52932386852800       -6.18707038960800      o
        0.61618370203600       -0.88129670764800       -6.21863890901100      h
        2.95959136566100       -0.80016006394500       -4.46578188261500      h
       -7.32677464844200       -8.38337598614900        2.50950609385600      o
       -5.53346555122200       -8.02091421558800        2.09833266947300      h
       -7.62151030601700      -10.08750495136500        1.92244942063500      h
        7.34592351814200       -4.96252876418000        3.33152681069500      o
        7.10810470408300       -4.74627063302000        5.12684886988500      h
        8.81884722200600       -3.98154207703500        2.84626364368000      h
       -2.84638917704100       -6.91201289677500        1.14499483613500      o
       -1.49299158263100       -8.13623714972200        1.15897021255200      h
       -3.18334960028300       -6.38150885073900       -0.58282524366200      h
        6.22625166281700       -9.62040418875900        1.80744464019500      o
        6.33900498351000       -9.74531663700000       -0.02786226830700      h
        6.76063798338600       -7.90833556472200        2.28490590544300      h
        4.22066777151400        4.23930076606100        5.78447629533400      o
        4.22696802239800        2.42773123376500        5.61701162177700      h
        2.78669519869400        4.83415463449800        4.73579202005000      h
        1.12091175516500        5.29177331259500        9.65214172770800      o
        0.99728993645700        3.73610316116000       10.61321265354400      h
        2.43484265858300        5.07589408396000        8.35601163889800      h
       -4.01703135656300        0.82370229665600        5.67301935215400      o
       -3.88859685240400        2.31756232779200        4.61527804369400      h
       -2.30796393140600        0.24380064082900        6.02677334906600      h
       -0.13193510450500       -9.45613326317200       -9.60050741182600      o
       -1.45275808412500       -8.61406882223200       -8.61345090282200      h
       -0.04996205770400      -11.14949646456800       -8.87511498623400      h
        0.27943795487400        5.56540700331700        3.21966209885900      o
        0.43665419050700        7.30432464709500        2.64697089818300      h
       -1.06002574619300        5.59048140050500        4.46915263346700      h
        9.39362296501600        6.07770525230100       -3.40388183082500      o
       11.14340514764400        6.13975463439200       -3.97385861592000      h
        9.45907521630800        6.85244553592500       -1.73385444170400      h
       -1.27322703794900       -3.59329453442500      -10.06865719759000      o
       -0.44845043246900       -4.39169916163800      -11.50722221831700      h
       -0.88978347633500       -1.78881214226800      -10.18109371687700      h
       -2.59742076596400       -0.92676787755400       -5.71231789778700      o
       -3.58315514313700       -0.63401632073200       -7.25189207355600      h
       -3.06167630729300        0.38850454401600       -4.55084372068400      h
      -14.62557538130000       -3.08885987145400       -7.32419250895200      o
      -15.99827791012800       -4.31649030440200       -7.22781245891000      h
      -15.44544892915500       -1.55727664979400       -7.93803156998800      h
      -11.49404864052500        1.52322847622000       -7.05750705765400      o
      -10.88303044900300       -0.22089739797200       -7.26412122244300      h
      -10.01332409635300        2.60951706031400       -7.32121483659400      h
       -4.91135190578700        4.60637496875800        2.16242251622800      o
       -4.98517909386400        6.06276203856500        3.23670819925300      h
       -6.60322070510000        3.89137234071600        2.16276156877900      h
       -7.85500656056200        4.61817398332600       -8.50932235844800      o
       -7.70368948204600        5.94312571386800       -7.22955031722300      h
       -8.08175940610100        5.48077158455400      -10.12838999525400      h
        4.48457688506900       -2.37695488332200      -10.65601851088600      o
        3.61898710726900       -1.33587236911900       -9.40666762400200      h
        3.24015385184900       -2.97487748150800      -11.83157000529500      h
       -8.95990694290200       -5.46860479378900       -1.23371369775000      o
       -8.49030455031300       -6.53144934950500        0.21654640828700      h
       -7.35092595324300       -5.01117485604000       -2.03678381210100      h
       -7.48470970615800       -0.54288326580800       -3.29325541672000      o
       -8.72340329136600        0.54629625732600       -2.48277649988200      h
       -6.16859517281601       -0.89795621433200       -1.99902738602200      h
       -6.70486681589500       -3.42692340105500        4.19679303320800      o
       -7.59658291401300       -4.92792533337500        3.68963654315000      h
       -5.04687947702100       -4.03054208678600        4.77327392658600      h
       -9.92872152405000        3.35295684757900       -1.46544382972900      o
       -9.33458657256000        4.93725984616200       -0.73777714522400      h
      -11.62388695443900        3.15794616231200       -0.86201181868600      h
        0.98778316721300       -5.43653203106300      -14.26519546493700      o
        2.41110588425500       -6.50693229013700      -13.80735357071100      h
       -0.40611857471000       -6.61506248057600      -14.60013547180800      h
        7.27500931993900       -3.07123692446600       -2.46953541200900      o
        5.69456472411500       -3.51605680259200       -1.62704466665900      h
        7.15619114075300       -1.30430254826100       -3.01469107364900      h
      -14.23273221302100       -5.02339214179400       -2.63234115067600      o
      -15.03376363942800       -6.58920787034600       -3.20534313681600      h
      -13.80371146466100       -4.10470749272200       -4.16212029991600      h
        6.94516224790200        4.05838732620500        1.35647010493200      o
        5.65182179975000        4.58616744680200        0.16067714058600      h
        6.33269140231000        4.59105725178000        3.00627982974900      h
      -13.25580918310800       -5.27833179774200      -11.64591657018700      o
      -12.28529146112600       -6.68602075682500      -10.96666672487000      h
      -13.57215624080300       -4.24185239649200      -10.12965323982400      h
       -8.89671749122400       -1.28153237348100        8.11180549576100      o
       -9.03003826449400       -2.60995259206700        9.37010369039700      h
       -7.90941963889400       -2.02499915245800        6.71527460911700      h
        7.82699088090100        8.99042164245700      -10.96825348655400      o
        9.08127724498200        9.44928551937400       -9.69107482415200      h
        8.75342901469300        7.86135255320700      -12.09677995932800      h
        8.81535670674900       -8.97962615041300        6.95618464255200      o
        9.47239997614400      -10.70949896108500        7.03800694629200      h
        9.64704410295300       -8.29255769493900        5.43621944469000      h
       11.28523105641400       -2.60496496334700        0.66361649024800      o
       11.68974170621000       -0.82910904486000        0.86867852182500      h
        9.95896424725400       -2.69144597823400       -0.60637539867100      h
      -12.96846811028900       -7.53069029175600        1.61220636578400      o
      -13.25135947773000       -9.34436174959600        1.42759807932800      h
      -13.00812630176100       -6.69625466634800       -0.02390902058000      h
        3.52243816504900        5.89869958603300       -1.83652471045300      o
        1.78248787825800        6.07441439131400       -1.26338968288200      h
        3.37408827261400        5.45489862168300       -3.62843058297700      h
        0.39079055891400       -0.67694509851000        7.51307719439800      o
        1.57486889270300       -0.72491327707500        6.09906173651500      h
        0.29592063328600       -2.38981847632700        8.17299156902500      h
       -4.89485681886600        3.74145671584600       -3.91054477813400      o
       -6.01256031806800        2.26915789389700       -3.79668527026300      h
       -6.02751600626200        5.19126206179000       -3.77209206986700      h
        9.57002106250700       -1.93742021284100       -7.41479280251000      o
       10.47674109333400       -3.32385671221000       -6.57660686723400      h
        9.82742176619600       -0.49199371851300       -6.30997996304700      h
       10.62114848510300      -12.53640931263800       -1.90183200597100      o
       10.16718048731000      -10.74586730408600       -1.80966954248900      h
       11.54135700370000      -12.69916681756100       -3.47459887581000      h
        7.02632177694100        3.50328023619200       -8.64060001954700      o
        8.77247009480300        4.06381575391200       -8.45800474457300      h
        6.67497759370800        2.51828490910600       -7.13073568618600      h
       -8.96846651195900       -2.84906721218500       -7.47186105824000      o
       -7.69445700350000       -2.08813400636300       -8.55602218999400      h
       -8.39465210334200       -2.49685536657400       -5.75244967272400      h
       -3.87919868419900        1.78111601998900      -14.16825784426200      o
       -2.60239357885500        0.79026343554500      -15.08865168318100      h
       -3.22442582132100        3.48219075116700      -14.03028435878000      h
       12.03444461955900        1.37850636401100       -4.46269462126900      o
       13.47919325501600        0.22797263340500       -4.41034565204100      h
       11.80533882181600        1.92323540792400       -2.70524069363800      h
       11.94856935594700        4.51797370809200       -8.33587052909300      o
       11.99906308389000        6.24492647227500       -7.72737717319900      h
       12.19839963417900        3.39145589343700       -6.87870749491400      h
        5.25202627244400       -5.48509118267900       -6.65061855171200      o
        6.20776966474300       -4.55626441034100       -5.39313921973900      h
        5.20145016227600       -4.42356531968100       -8.14479715095800      h
      -18.60313879700700       -0.79337122970900       -4.77302195033900      o
      -19.65577395729400       -2.26631948753800       -4.52366221481200      h
      -19.71201221231600        0.64514170790300       -4.63974816680500      h
        2.73601208279400        9.57180909739000        6.98915575435000      o
        1.48099261710500       10.41782526596100        8.04274939875500      h
        2.18551423090300        9.88500404117900        5.25997157474200      h
      -13.05127189025500        2.92482206623900      -11.66570457279300      o
      -12.47890648060000        2.35918503924400       -9.99436880186400      h
      -11.66806793228400        2.59994590942900      -12.82776779467100      h
        5.20717103849100       -9.77913111799200       -3.14746577621300      o
        6.45352195500600       -9.18557472046300       -4.37172560400600      h
        4.56627589156000      -11.33076805813600       -3.89538459286800      h
        0.09067155569000        1.18336943314600      -10.47753088048400      o
       -0.85295352770800        2.63323805788600       -9.90803484450600      h
        1.19261164170200        1.71319431186400      -11.85056432545900      h
        9.86258941021000       13.99170149412700       -0.77452885541600      o
       10.03497888344600       15.78625059153100       -0.63373906108500      h
        8.56471848110000       13.72530100329700       -2.10495907269300      h
        8.95650129410300        3.19547831004700        8.93662094436900      o
        9.94102266677100        1.65029538627600        8.79017616459900      h
        7.23077328190600        2.60988107765600        9.14990144871300      h
        6.67181254066000        5.74931360391400       14.32046299495200      o
        5.21037758859900        6.83062917707400       14.09392687490000      h
        6.01854359217900        4.07708684042800       14.65792793439400      h
       11.73982860733700        2.58950525330600        0.34922758169900      o
       10.14946747428300        3.44585762056400        0.67096390990000      h
       13.12318080070200        3.77733601477900        0.65333917523200      h
       -8.51268439218300        7.79000442082500        5.55685600057700      o
       -8.29716346806000        6.14028460784600        6.33850934940000      h
       -9.28123358683300        8.86249440121400        6.82991073917300      h
       -8.76004198404100        1.59032765410200        3.28801120327800      o
       -7.45804750132300        0.65655758507100        4.15874674206500      h
       -9.64078524009100        0.39811289547900        2.17959647188900      h
       -9.84249528031500       -7.76288336218400       -8.85020781826500      o
       -9.43456515402800       -6.00526524684800       -8.45423545845500      h
       -9.79362845089000       -8.62213665058100       -7.21685448993000      h
      -22.28263347918600       -1.04669956377200        0.09018340111600      o
      -22.35589140300500        0.12707707583700        1.49758600341200      h
      -20.47775363174100       -1.50417126937800       -0.02395109816300      h
       11.71834539810000       -7.98820611736000        3.07676016992900      o
       12.53458744996000       -9.63936665475800        2.90795378282100      h
       11.17170064828600       -7.52392732616700        1.37479057698000      h
      -12.80694932412600        6.50670853014400       -4.60395803175700      o
      -12.59109685741200        4.82907613962900       -5.27058217165300      h
      -13.29718596864900        6.33800991750900       -2.81963082030400      h
       -7.98400703083900        6.88300509360500      -13.04921310639800      o
       -6.14723694155000        6.94563631267900      -13.21812582366100      h
       -8.57036292451400        5.50428601240300      -14.08673429901400      h
        6.12144489768900       -6.22388483832400       13.22959983238900      o
        4.79302767488500       -5.23083581709500       14.01127689368200      h
        5.33762679163500       -7.87229421800900       12.88698383279000      h
      -17.84771963330400        3.10476267725500       10.57984555194200      o
      -16.09008773090500        3.45731188335600       10.98641868926900      h
      -17.86348961083500        1.29209835490700       10.24605696662000      h
      -14.34661496111900        0.89937199512300       -2.86267497076500      o
      -15.83104416240400       -0.05656410878300       -3.41754216573900      h
      -13.23575608804500        0.97583819115700       -4.32944706977800      h
       10.29384085627600        8.49602516612300        0.85839147188600      o
       11.93170500599400        9.19697396388500        1.21533705038600      h
        9.73131640180500        7.59787356414400        2.36801763514900      h
       -2.56307714469800       -5.53240762537700        6.02091812751000      o
       -2.93164004080600       -7.31899189451200        5.80225883534800      h
       -1.03296558170300       -5.26754946159300        5.01451028942600      h
      -17.82497330062900        4.71940167686000       -3.45767142771800      o
      -16.44331489849000        3.53252175329700       -3.17093657860500      h
      -17.68813888676900        5.33026111288300       -5.18801227702000      h
       -2.93431098853300       -8.69347242264300      -13.80680980169100      o
       -4.06332368571500       -7.42766159963100      -13.05698148801800      h
       -1.89809632579400       -9.29662756105600      -12.39943384169600      h
       -4.46533873904600       -8.26304653586200       -7.28208466800000      o
       -5.43835751842400       -7.44713954979800       -8.60419276179800      h
       -5.06936610635900      -10.00337391538700       -7.12988187701000      h
       -4.47140904165100       -5.15980209334800       -3.40660351202500      o
       -3.75548083509900       -3.64736106064000       -4.17078023269600      h
       -4.49156021575800       -6.42050304448100       -4.76037760957500      h
        5.82919991630000        8.70461194969000       -5.79715773047400      o
        6.17049410569900        8.52169727115600       -7.57398497622500      h
        7.10947012613500        7.68003262233900       -4.93296876022200      h
        6.17894786503100       -4.05119027998300        8.47549654117800      o
        6.28843483127000       -4.94892017071900       10.07745143659400      h
        5.49972050953200       -2.36657188330400        8.87551758327600      h
       -8.85914788345200        7.80054946862200        0.65106502025400      o
       -9.09535162263000        7.78540683475300        2.48567358998000      h
       -9.99640136293800        9.04451655745800       -0.07531770847400      h
       -5.20750161543200      -11.23760804498700       -1.70525340903700      o
       -3.67884076727000      -10.44492303713100       -2.36544969260400      h
       -6.59207540172800      -10.64927782478800       -2.77174544102700      h
       -3.14263115784700        6.00832137458100        7.01930718300300      o
       -4.58551364055200        5.11373903481800        7.71777732663700      h
       -1.76038783280300        5.91261830771000        8.24129262961900      h
        0.11936833264500        1.32931704831800       12.69978329492100      o
       -1.47618596384900        0.88878975147200       11.84440260622700      h
        0.74346796307900       -0.22177551639300       13.45767387812500      h
      -10.87207374292700       -7.02430583260500        6.13575013484100      o
      -11.51073622664700       -6.80841046136400        4.42037212313300      h
       -9.42198937856900       -8.12630766125500        5.93636473740400      h
      -21.23480253629900        2.89799533260400       -8.70240939699500      o
      -22.03623690670300        2.70125690000400       -7.06586922234700      h
      -20.34251480590800        4.50651276436200       -8.62945360785200      h
       -9.60000128803700       10.27703988130600       -9.36468868390100      o
       -9.24087372934400        9.63688326252000      -11.03434355512600      h
       -7.94717479092000       10.36603046132400       -8.55434192126800      h
      -16.55763863171300       -9.29133671295700       -3.96083699382700      o
      -17.20703179290100       -8.73113295023300       -5.58209970454900      h
      -17.93550503171700       -9.04131710894000       -2.75915877167500      h
      -16.62148334189600       -1.74723174234700        9.42304599729000      o
      -15.60106746820500       -2.00037479671700       10.91384571343800      h
      -15.44448343396300       -1.53515156112300        8.02498802310600      h
        3.27538949387200        6.59585420431700      -11.11663153042500      o
        2.08829224407700        8.01072192879200      -11.03635642714500      h
        4.95246943850200        7.33194025627600      -11.16431466915300      h
        5.61889234053600       10.21681598090600       -0.31958102073400      o
        4.94386048769400        8.65718107539200       -1.06230290073300      h
        7.38730094430000        9.86816981005600        0.01501668703600      h
        2.30136345673700        4.47120185474300       -6.50296466858800      o
        2.41276247603700        2.61358516142600       -6.52438374732900      h
        3.14277915060100        5.03734163917000       -8.04138657602200      h
        3.36234998079800        2.57797449176100      -14.18781320006100      o
        3.34549275605700        4.21877397112600      -13.34468473135100      h
        5.06313513434000        1.91622214492000      -13.92307116806200      h
       17.22321597530500        0.66091212744100       -8.78189028228500      o
       15.77317526739500        0.07718844740200       -9.77283487030400      h
       17.03684900556800        2.49677623071000       -8.72097778974900      h
       15.23014859236400       -5.79762716731300       -9.83709626619300      o
       14.60144642288700       -4.24682308079500      -10.58413235935300      h
       16.95332272441200       -5.48330634086600       -9.24890222909400      h
       -8.80902889761400        6.41318447999800       12.54600207688400      o
       -8.15776773212100        5.16967737162400       13.74932523498800      h
       -7.33326883112900        7.48001853915600       12.20352685771100      h
       16.06598816604500       -0.88468165374300        2.47244273043800      o
       15.28481020858700        0.28237028325800        3.69440089602500      h
       16.66792111834100        0.15356439182600        1.08026118582600      h
       13.86440921951200       -4.29554703786800        5.70699527923800      o
       14.47185910331800       -3.18803939439900        4.38953312714200      h
       13.12707620656300       -5.73428210879700        4.81219353983600      h
       13.51677451559400        1.66960244493500        5.85230053498500      o
       13.98157546225600        1.38574009075900        7.60545788381000      h
       13.74258388616300        3.49552337774300        5.55372139592700      h
       -9.54845656595300       -3.23244521316000      -14.19043249855400      o
       -9.52458022289200       -4.12590398839100      -15.76163956043800      h
      -11.02406914820900       -3.89402632191700      -13.22586358359400      h
      -17.45854257172700       -2.44973893908400        0.40716510342900      o
      -17.50760752833600       -3.56860803202300        1.87827954776400      h
      -16.35960088175400       -3.29928996476500       -0.81357632431100      h
      -11.61752426285300       -1.62737186420300        0.73283471837000      o
      -12.68243651380600       -0.85964256457300       -0.55916402171200      h
      -10.70654511533600       -3.02162892392600       -0.08069645812100      h
        0.76043464169300        9.65026459621500       -5.37072779809200      o
        2.55403275605600        9.25192806300900       -5.31404180765400      h
       -0.08948112226100        8.53035643349500       -4.14596688432900      h
       -6.06241171568900        2.77775967206100       14.69459468118500      o
       -4.66648850878400        3.68310457558200       15.43807810808000      h
       -5.40693694283100        2.08413263374200       13.09879049111100      h
       18.56287738989400        3.75765107348000        4.14312692253600      o
       17.86645531820500        4.62704252786700        5.60026795558100      h
       19.61446327946900        2.43800627921900        4.85004484527500      h
        3.98002208220400       -0.84220452160000        4.00753730158400      o
        5.80068687607600       -0.79596887118700        4.30155906869500      h
        3.53202092376400       -2.64177336890900        3.82735219555700      h
       16.06263980145300       -1.53265656729100       -4.42169264661900      o
       17.12056731784000       -0.70830634483400       -3.15641544101900      h
       16.55657328491400       -0.80727091920000       -6.04997466916900      h
       14.84213554773700        8.95616465057500      -11.37641161224500      o
       15.75658969586100        7.62042246373200      -10.48428338133800      h
       13.80598899563400        8.11131378850300      -12.61084609833800      h
        8.82671189763500       -9.18298530893000       -6.62658284730500      o
        8.94214124941800       -7.77674773250800       -7.81473783057100      h
       10.52808810019500       -9.85632936041100       -6.35902178128400      h
      -23.06764134120200        2.11041865725700       -3.87115923065201      o
      -22.90143946019100        1.02855088482100       -2.37025383517000      h
      -23.51712568714700        3.74934650290900       -3.24481902774900      h
      -21.16956223251200        8.83647320994100       -3.05860107272900      o
      -19.90587108864100        7.51108214532900       -3.06846805095100      h
      -21.68309443965900        9.05086005339700       -1.32818674124400      h
       -8.32588015970300       13.35587599777100        6.19391565937700      o
       -8.88088992618500       13.10111890635700        7.90522705208500      h
       -9.84935314945300       13.04853040132500        5.16838907590200      h
       -4.37706470210000        9.98885965092300        0.63970577477200      o
       -5.94492476528600        8.98558640237100        0.63513019474800      h
       -4.04180140091400       10.45829725222900        2.39882370739100      h
        8.87027354784700       -6.08689208111500      -10.71439971173400      o
        7.15950027879100       -6.58642460373300      -11.17744246342000      h
        8.77005497779700       -4.39339094654200      -10.05036821895900      h
      -12.41943992510200       12.27157441515900        3.48798282091700      o
      -11.95961281121600       12.05499185679300        1.72116494140400      h
      -12.88701711445400       10.63646211913900        4.18992667485400      h
       -1.43381612278700       14.05738860755300       -4.53793486023900      o
       -0.59981687024900       12.42271133079300       -4.85501012439600      h
       -0.32544488136200       15.33423972602300       -5.17851344897200      h
       12.48345609106500       -9.96271525745500      -11.15005705611800      o
       13.89668654450500       -8.80419899109000      -11.04003644487700      h
       11.04839713104800       -8.83281185098500      -11.28366097156200      h
       -8.96250724360300        1.85545778705600      -14.65502871703100      o
       -7.11931001400200        1.87579743997300      -14.62576053173600      h
       -9.36288938266200        0.06236176475200      -14.59762565798800      h
       -2.93159713930300       -4.27126584124200       15.33046089130900      o
       -3.40733553611100       -4.51118957738300       13.56534160443700      h
       -4.44275045794700       -3.72203789029000       16.17779657141700      h
       -7.37486349583500      -11.35836435280700      -11.71880960946800      o
       -6.01629141754900      -10.68058199760900      -12.73368553743200      h
       -8.27300217114400       -9.92714338367400      -10.98658183025500      h
       -9.37853179594300       -9.52014492213800       -4.13811746313500      o
      -10.74503542026700      -10.64271420544400       -3.62813086545000      h
       -9.53002731561100       -7.94265195560400       -3.16673979225800      h
      -14.08394552403900        6.19755325786300        0.29891028442900      o
      -15.08192587924100        7.70585220101900        0.62274741681100      h
      -14.97552897530000        4.77540395046500        1.03821515025000      h
      -13.08326087821700      -12.76074037780800       -2.79406608949900      o
      -14.49431369046400      -11.79531384530800       -3.47147443221600      h
      -13.41339783648300      -12.90777910335800       -1.00047330284000      h
       15.41114579526700       -4.00956617863700       10.54417233102600      o
       14.01467435505400       -4.95701240147800       11.23837130038400      h
       15.26026740491500       -4.25594474354400        8.72267877591700      h
       -2.85188399100900        6.74186418516900      -12.72871704729000      o
       -2.77007444008500        6.20264150598600      -10.95868730791600      h
       -1.85285736862500        8.25710694068800      -12.79616712498200      h
       11.55406040029000        9.71532305828900       -7.69609220377300      o
       12.04969469247400       10.81882578590000       -6.33176529316500      h
       12.85611655686000        9.80788478647000       -9.01712182681500      h
      -22.50444059330900       -4.23579416205500       -4.53785454650900      o
      -23.32139920165900       -3.28058639311100       -3.22228673299400      h
      -23.05480812535300       -3.51101562017200       -6.15371142384300      h
        8.87987727571700        6.63044912455200        5.28963606920700      o
        8.11766345609800        8.11048175860800        6.07621970604000      h
        8.63279918887700        5.20669206571700        6.45345362497200      h
       -1.44683172270100        5.55170209751600       15.09684085347900      o
       -0.05662212034600        6.74344645289600       15.00798947275200      h
       -0.76854865418800        3.98843030575400       14.37912244566200      h
       -4.64463897825100       -4.61381390859500       10.47930981444700      o
       -3.68615569988800       -4.82665008337700        8.90841966735300      h
       -5.59542164888200       -6.17707102191100       10.68062177104900      h
        3.58761004979700      -10.31155361003200       11.70305288723100      o
        1.78484557461900      -10.31009069267300       11.99504132377100      h
        3.75095912001200       -9.77695850101300        9.94108236491500      h
       -1.39198304118400        6.87907458117200       -1.86190612990400      o
       -2.56632208572200        5.53268418412400       -2.25470659944800      h
       -2.33859075898300        8.05105742469000       -0.78363934856200      h
        5.54387474227400        0.54620434748100       14.79902706439000      o
        7.11676167169400       -0.41824428906900       14.56058459371400      h
        4.29006936560400       -0.65609757796500       15.34603386944500      h
[...]
   385   8 o      386   1 h                                       0.9596675
   385   8 o      387   1 h                                       0.9684237
   388   8 o      390   1 h                                       0.9741861
   391   8 o      392   1 h                                       0.9597361
   391   8 o      393   1 h                                       0.9881555
   394   8 o      395   1 h                                       0.9825944
   394   8 o      396   1 h                                       0.9658934
   397   8 o      398   1 h                                       0.9888802
   397   8 o      399   1 h                                       0.9674566
   400   8 o      401   1 h                                       0.9710401
   400   8 o      402   1 h                                       0.9701958
   403   8 o      404   1 h                                       0.9730510
   403   8 o      405   1 h                                       0.9622107
   406   8 o      407   1 h                                       0.9731563
   406   8 o      408   1 h                                       0.9771737
   409   8 o      410   1 h                                       0.9693120
   409   8 o      411   1 h                                       0.9741149
   412   8 o      413   1 h                                       0.9805687
   412   8 o      414   1 h                                       0.9771605
   415   8 o      416   1 h                                       0.9749758
   415   8 o      417   1 h                                       0.9769240
   418   8 o      419   1 h                                       0.9632022
   418   8 o      420   1 h                                       0.9655068
   421   8 o      422   1 h                                       0.9761487
   421   8 o      423   1 h                                       0.9793616
   424   8 o      425   1 h                                       0.9707412
   424   8 o      426   1 h                                       0.9650479
   427   8 o      428   1 h                                       0.9751367
   427   8 o      429   1 h                                       0.9646678
   430   8 o      431   1 h                                       0.9767626
   430   8 o      432   1 h                                       0.9747165
   433   8 o      434   1 h                                       0.9866013
   433   8 o      435   1 h                                       0.9631905
   436   8 o      437   1 h                                       0.9732336
   436   8 o      438   1 h                                       0.9854885
   439   8 o      440   1 h                                       0.9682711
   439   8 o      441   1 h                                       0.9800983
   442   8 o      443   1 h                                       0.9699141
   442   8 o      444   1 h                                       0.9681182
   445   8 o      446   1 h                                       0.9841193
   445   8 o      447   1 h                                       0.9565314
   448   8 o      449   1 h                                       0.9756208
   448   8 o      450   1 h                                       0.9697456
   451   8 o      452   1 h                                       0.9731016
   451   8 o      453   1 h                                       0.9710758
   454   8 o      455   1 h                                       0.9686337
   454   8 o      456   1 h                                       0.9673872
   457   8 o      458   1 h                                       0.9608253
   457   8 o      459   1 h                                       0.9935912
   460   8 o      461   1 h                                       0.9662278
   460   8 o      462   1 h                                       0.9737199
   463   8 o      464   1 h                                       0.9742116
   463   8 o      465   1 h                                       0.9824662
   466   8 o      467   1 h                                       0.9665257
   466   8 o      468   1 h                                       0.9781765
   469   8 o      470   1 h                                       0.9711766
   469   8 o      471   1 h                                       0.9608854
   472   8 o      473   1 h                                       0.9572795
   472   8 o      474   1 h                                       0.9867437
   475   8 o      476   1 h                                       0.9779034
   475   8 o      477   1 h                                       0.9787737
   478   8 o      479   1 h                                       0.9762944
   478   8 o      480   1 h                                       0.9715190
   481   8 o      482   1 h                                       0.9891155
   481   8 o      483   1 h                                       0.9765020
   484   8 o      485   1 h                                       0.9720200
   484   8 o      486   1 h                                       0.9719985
   487   8 o      488   1 h                                       0.9636303
   487   8 o      489   1 h                                       0.9798321
   490   8 o      491   1 h                                       0.9723380
   490   8 o      492   1 h                                       0.9705210
   493   8 o      494   1 h                                       0.9813764
   493   8 o      495   1 h                                       0.9708493
   496   8 o      497   1 h                                       0.9763656
   496   8 o      498   1 h                                       0.9754400
   499   8 o      500   1 h                                       0.9625491
   499   8 o      501   1 h                                       0.9721894
   502   8 o      503   1 h                                       0.9636088
   502   8 o      504   1 h                                       0.9839106
   505   8 o      506   1 h                                       0.9677430
   505   8 o      507   1 h                                       0.9689093
   508   8 o      509   1 h                                       0.9757644
   508   8 o      510   1 h                                       0.9615095
   511   8 o      512   1 h                                       0.9721458
   511   8 o      513   1 h                                       0.9745370
   514   8 o      515   1 h                                       0.9661424
   514   8 o      516   1 h                                       0.9855875
   517   8 o      518   1 h                                       0.9657657
   517   8 o      519   1 h                                       0.9915698
   520   8 o      521   1 h                                       0.9792814
   520   8 o      522   1 h                                       0.9678695
   523   8 o      524   1 h                                       0.9843158
   523   8 o      525   1 h                                       0.9638379
   526   8 o      527   1 h                                       0.9705409
   526   8 o      528   1 h                                       0.9854477
   529   8 o      530   1 h                                       0.9851122
   529   8 o      531   1 h                                       0.9716290
   532   8 o      533   1 h                                       0.9953845
   532   8 o      534   1 h                                       0.9571981
   535   8 o      536   1 h                                       0.9706356
   535   8 o      537   1 h                                       0.9928808
   538   8 o      539   1 h                                       0.9634787
   538   8 o      540   1 h                                       0.9715681
   541   8 o      542   1 h                                       0.9581008
   541   8 o      543   1 h                                       0.9762294
   544   8 o      545   1 h                                       0.9704857
   544   8 o      546   1 h                                       0.9786362
   547   8 o      548   1 h                                       0.9654291
   547   8 o      549   1 h                                       0.9834230
   550   8 o      551   1 h                                       0.9633522
   550   8 o      552   1 h                                       0.9873325
   553   8 o      554   1 h                                       0.9683433
   553   8 o      555   1 h                                       0.9693457
   556   8 o      557   1 h                                       0.9781026
   556   8 o      558   1 h                                       0.9740090
   559   8 o      560   1 h                                       0.9673400
   559   8 o      561   1 h                                       0.9838488
   562   8 o      563   1 h                                       0.9714127
   562   8 o      564   1 h                                       0.9751824
   565   8 o      566   1 h                                       0.9637279
   565   8 o      567   1 h                                       0.9636384
   568   8 o      569   1 h                                       0.9578878
   568   8 o      570   1 h                                       0.9856963
   571   8 o      572   1 h                                       0.9673114
   571   8 o      573   1 h                                       0.9695120
   574   8 o      575   1 h                                       0.9771523
   574   8 o      576   1 h                                       0.9715561
   577   8 o      578   1 h                                       0.9725576
   577   8 o      579   1 h                                       0.9878469
   580   8 o      581   1 h                                       0.9686714
   580   8 o      582   1 h                                       0.9574972
   583   8 o      584   1 h                                       0.9583614
   583   8 o      585   1 h                                       0.9742668
   586   8 o      587   1 h                                       0.9731513
   586   8 o      588   1 h                                       0.9891189
   589   8 o      590   1 h                                       0.9617246
   589   8 o      591   1 h                                       0.9700915
   592   8 o      593   1 h                                       0.9770737
   592   8 o      594   1 h                                       0.9657341
   595   8 o      596   1 h                                       0.9643231
   595   8 o      597   1 h                                       0.9857593
   598   8 o      599   1 h                                       0.9586383
   598   8 o      600   1 h                                       0.9913546
   601   8 o      602   1 h                                       0.9861675
   601   8 o      603   1 h                                       0.9586293
   604   8 o      605   1 h                                       0.9685456
   604   8 o      606   1 h                                       0.9653579
   607   8 o      608   1 h                                       0.9759056
   607   8 o      609   1 h                                       0.9655199
   610   8 o      611   1 h                                       0.9821302
   610   8 o      612   1 h                                       0.9628631
   613   8 o      614   1 h                                       0.9657189
   613   8 o      615   1 h                                       0.9687883
   616   8 o      617   1 h                                       0.9795285
   616   8 o      618   1 h                                       0.9712405
   619   8 o      620   1 h                                       0.9856842
   619   8 o      621   1 h                                       0.9725382
   622   8 o      623   1 h                                       0.9758809
   622   8 o      624   1 h                                       0.9628210
   625   8 o      626   1 h                                       0.9974012
   625   8 o      627   1 h                                       0.9708090
   628   8 o      629   1 h                                       0.9693531
   628   8 o      630   1 h                                       0.9712118
   631   8 o      632   1 h                                       0.9843983
   631   8 o      633   1 h                                       0.9740279
   634   8 o      635   1 h                                       0.9834642
   634   8 o      636   1 h                                       0.9658642
   637   8 o      638   1 h                                       0.9712623
   637   8 o      639   1 h                                       0.9673683
   640   8 o      641   1 h                                       0.9912701
   640   8 o      642   1 h                                       0.9579839
   643   8 o      644   1 h                                       0.9629991
   643   8 o      645   1 h                                       0.9690349
   646   8 o      647   1 h                                       0.9698946
   646   8 o      648   1 h                                       0.9679895
   649   8 o      650   1 h                                       0.9627725
   649   8 o      651   1 h                                       0.9842422
   652   8 o      653   1 h                                       0.9771628
   652   8 o      654   1 h                                       0.9704500
   655   8 o      656   1 h                                       0.9563597
   655   8 o      657   1 h                                       0.9785732
   658   8 o      659   1 h                                       0.9837837
   658   8 o      660   1 h                                       0.9735791
   661   8 o      662   1 h                                       0.9658151
   661   8 o      663   1 h                                       0.9811626
   664   8 o      665   1 h                                       0.9769802
   664   8 o      666   1 h                                       0.9753201
   667   8 o      668   1 h                                       0.9777176
   667   8 o      669   1 h                                       0.9561749 (min)
   670   8 o      671   1 h                                       0.9709496
   670   8 o      672   1 h                                       0.9778698
   673   8 o      674   1 h                                       0.9864332
   673   8 o      675   1 h                                       0.9808749
   676   8 o      677   1 h                                       0.9742083
   676   8 o      678   1 h                                       0.9780927
   679   8 o      680   1 h                                       0.9748838
   679   8 o      681   1 h                                       0.9822468
   682   8 o      683   1 h                                       0.9704006
   682   8 o      684   1 h                                       0.9609731
   685   8 o      686   1 h                                       0.9684433
   685   8 o      687   1 h                                       0.9798905
   688   8 o      689   1 h                                       0.9689912
   688   8 o      690   1 h                                       0.9791386
   691   8 o      692   1 h                                       0.9776274
   691   8 o      693   1 h                                       0.9672867
   694   8 o      695   1 h                                       0.9757250
   694   8 o      696   1 h                                       0.9774179
   697   8 o      698   1 h                                       0.9802761
   697   8 o      699   1 h                                       0.9621527
   700   8 o      701   1 h                                       0.9631562
   700   8 o      702   1 h                                       0.9657499
   703   8 o      704   1 h                                       0.9724676
   703   8 o      705   1 h                                       0.9597674
   706   8 o      707   1 h                                       0.9683705
   706   8 o      708   1 h                                       0.9923508
   709   8 o      710   1 h                                       0.9752003
   709   8 o      711   1 h                                       0.9723133
   712   8 o      713   1 h                                       0.9660837
   712   8 o      714   1 h                                       0.9779370
   715   8 o      716   1 h                                       0.9763877
   715   8 o      717   1 h                                       0.9681234
   718   8 o      719   1 h                                       0.9787880
   718   8 o      720   1 h                                       0.9784930
   721   8 o      722   1 h                                       0.9794434
   721   8 o      723   1 h                                       0.9671729
   724   8 o      725   1 h                                       0.9698807
   724   8 o      726   1 h                                       0.9733410
   727   8 o      728   1 h                                       0.9778950
   727   8 o      729   1 h                                       0.9837803
   730   8 o      731   1 h                                       0.9566744
   730   8 o      732   1 h                                       0.9922907
   733   8 o      734   1 h                                       0.9785933
   733   8 o      735   1 h                                       0.9650538
   736   8 o      737   1 h                                       0.9884816
   736   8 o      738   1 h                                       0.9813556
   739   8 o      740   1 h                                       0.9928431
   739   8 o      741   1 h                                       0.9612505
   742   8 o      743   1 h                                       0.9849444
   742   8 o      744   1 h                                       0.9724229
   745   8 o      746   1 h                                       0.9975786 (max)
   745   8 o      747   1 h                                       0.9577365
   748   8 o      749   1 h                                       0.9760053
   748   8 o      750   1 h                                       0.9622456
   751   8 o      752   1 h                                       0.9604552
   751   8 o      753   1 h                                       0.9735663
   754   8 o      755   1 h                                       0.9630767
   754   8 o      756   1 h                                       0.9654689

 * 1 distinct bonds (by element types)

   Z      Z             #   av. dist./Å        max./Å        min./Å
   1 H    8 O         503     0.9738048     0.9975786     0.9561749


optimized geometry written to: xtbopt.coord


           -------------------------------------------------
          | TOTAL ENERGY            -1283.348634070314 Eh   |
          | GRADIENT NORM               0.002994870858 Eh/α |
          | HOMO-LUMO GAP               8.060344315772 eV   |
           -------------------------------------------------

------------------------------------------------------------------------
 * finished run on 2022/11/24 at 09:18:50.028     
------------------------------------------------------------------------
 total:
 * wall-time:     0 d,  0 h, 10 min, 57.661 sec
 *  cpu-time:     0 d,  0 h, 16 min, 17.528 sec
 * ratio c/w:     1.486 speedup
 SCF:
 * wall-time:     0 d,  0 h,  0 min, 21.786 sec
 *  cpu-time:     0 d,  0 h,  0 min, 35.504 sec
 * ratio c/w:     1.630 speedup
 ANC optimizer:
 * wall-time:     0 d,  0 h, 10 min, 34.868 sec
 *  cpu-time:     0 d,  0 h, 15 min, 40.304 sec
 * ratio c/w:     1.481 speedup

