      -----------------------------------------------------------      
     |                   =====================                   |     
     |                           x T B                           |     
     |                   =====================                   |     
     |                         S. Grimme                         |     
     |          Mulliken Center for Theoretical Chemistry        |     
     |                    University of Bonn                     |     
      -----------------------------------------------------------      

   * xtb version 6.5.1 (579679a) compiled by 'ehlert@majestix' on 2022-07-11

   xtb is free software: you can redistribute it and/or modify it under
   the terms of the GNU Lesser General Public License as published by
   the Free Software Foundation, either version 3 of the License, or
   (at your option) any later version.
   
   xtb is distributed in the hope that it will be useful,
   but WITHOUT ANY WARRANTY; without even the implied warranty of
   MERCHANTABILITY or FITNESS FOR A PARTICULAR PURPOSE.  See the
   GNU Lesser General Public License for more details.
   
   Cite this work as:
   * C. Bannwarth, E. Caldeweyher, S. Ehlert, A. Hansen, P. Pracht,
     J. Seibert, S. Spicher, S. Grimme, WIREs Comput. Mol. Sci., 2020, 11,
     e01493. DOI: 10.1002/wcms.1493
   
   for GFN2-xTB:
   * C. Bannwarth, S. Ehlert and S. Grimme., J. Chem. Theory Comput., 2019,
     15, 1652-1671. DOI: 10.1021/acs.jctc.8b01176
   for GFN1-xTB:
   * S. Grimme, C. Bannwarth, P. Shushkov, J. Chem. Theory Comput., 2017,
     13, 1989-2009. DOI: 10.1021/acs.jctc.7b00118
   for GFN0-xTB:
   * P. Pracht, E. Caldeweyher, S. Ehlert, S. Grimme, ChemRxiv, 2019, preprint.
     DOI: 10.26434/chemrxiv.8326202.v1
   for GFN-FF:
   * S. Spicher and S. Grimme, Angew. Chem. Int. Ed., 2020, 59, 15665-15673.
     DOI: 10.1002/anie.202004239
   
   for ALPB and GBSA implicit solvation:
   * S. Ehlert, M. Stahn, S. Spicher, S. Grimme, J. Chem. Theory Comput.,
     2021, 17, 4250-4261. DOI: 10.1021/acs.jctc.1c00471
   
   for DFT-D4:
   * E. Caldeweyher, C. Bannwarth and S. Grimme, J. Chem. Phys., 2017,
     147, 034112. DOI: 10.1063/1.4993215
   * E. Caldeweyher, S. Ehlert, A. Hansen, H. Neugebauer, S. Spicher,
     C. Bannwarth and S. Grimme, J. Chem. Phys., 2019, 150, 154122.
     DOI: 10.1063/1.5090222
   * E. Caldeweyher, J.-M. Mewes, S. Ehlert and S. Grimme, Phys. Chem. Chem. Phys.
     2020, 22, 8499-8512. DOI: 10.1039/D0CP00502A
   
   for sTDA-xTB:
   * S. Grimme and C. Bannwarth, J. Chem. Phys., 2016, 145, 054103.
     DOI: 10.1063/1.4959605
   
   in the mass-spec context:
   * V. Asgeirsson, C. Bauer and S. Grimme, Chem. Sci., 2017, 8, 4879.
     DOI: 10.1039/c7sc00601b
   * J. Koopman and S. Grimme, ACS Omega 2019, 4, 12, 15120-15133.
     DOI: 10.1021/acsomega.9b02011
   
   for metadynamics refer to:
   * S. Grimme, J. Chem. Theory Comput., 2019, 155, 2847-2862
     DOI: 10.1021/acs.jctc.9b00143
   
   for SPH calculations refer to:
   * S. Spicher and S. Grimme, J. Chem. Theory Comput., 2021, 17, 1701-1714
     DOI: 10.1021/acs.jctc.0c01306
   
   with help from (in alphabetical order)
   P. Atkinson, C. Bannwarth, F. Bohle, G. Brandenburg, E. Caldeweyher
   M. Checinski, S. Dohm, S. Ehlert, S. Ehrlich, I. Gerasimov, C. Hölzer
   A. Katbashev, J. Koopman, C. Lavigne, S. Lehtola, F. März, M. Müller,
   F. Musil, H. Neugebauer, J. Pisarek, C. Plett, P. Pracht, F. Pultar,
   J. Seibert, P. Shushkov, S. Spicher, M. Stahn, M. Steiner, T. Strunk,
   J. Stückrath, T. Rose, and J. Unsleber
   
 * started run on 2022/11/24 at 09:28:10.077     

           -------------------------------------------------
          |                Calculation Setup                |
           -------------------------------------------------

          program call               : xtb solvent_cluster.coord --gfn2 --sp --lmo --chrg 0
          hostname                   : cn0341
          coordinate file            : solvent_cluster.coord
          omp threads                :                     2

   ID    Z sym.   atoms
    1    8 o      1, 4, 7, 10, 13, 16, 19, 22, 25, 28, 31, 34, 37, 40, 43,
                  46, 49, 52, 55, 58, 61, 64, 67, 70, 73, 76, 79, 82, 85, 88,
                  91, 94, 97, 100, 103, 106, 109, 112, 115, 118, 121, 124,
                  127, 130, 133, 136, 139, 142, 145, 148, 151, 154, 157, 160,
                  163, 166, 169, 172, 175, 178, 181, 184, 187, 190, 193, 196,
                  199, 202, 205, 208, 211, 214, 217, 220, 223, 226, 229, 232,
                  235, 238, 241, 244, 247, 250, 253, 256, 259, 262, 265, 268,
                  271, 274, 277, 280, 283, 286, 289, 292, 295, 298, 301, 304,
                  307, 310, 313, 316, 319, 322, 325, 328, 331, 334, 337, 340,
                  343, 346, 349, 352, 355, 358, 361, 364, 367, 370, 373, 376,
                  379, 382, 385, 388, 391, 394, 397, 400, 403, 406, 409, 412,
                  415, 418, 421, 424, 427, 430, 433, 436, 439, 442, 445, 448,
                  451, 454, 457, 460, 463, 466, 469, 472, 475, 478, 481, 484,
                  487, 490, 493, 496, 499, 502, 505, 508, 511, 514, 517, 520,
                  523, 526, 529, 532, 535, 538, 541, 544, 547, 550, 553, 556,
                  559, 562, 565, 568, 571, 574, 577, 580, 583, 586, 589, 592,
                  595, 598, 601, 604, 607, 610, 613, 616, 619, 622, 625, 628,
                  631, 634, 637, 640, 643, 646, 649, 652, 655, 658, 661, 664,
                  667, 670, 673, 676, 679, 682, 685, 688, 691, 694, 697, 700,
                  703, 706, 709, 712, 715, 718, 721, 724, 727, 730, 733, 736,
                  739, 742, 745, 748, 751, 754
    2    1 h      2, 3, 5, 6, 8, 9, 11, 12, 14, 15, 17, 18, 20, 21, 23, 24,
                  26, 27, 29, 30, 32, 33, 35, 36, 38, 39, 41, 42, 44, 45, 47,
                  48, 50, 51, 53, 54, 56, 57, 59, 60, 62, 63, 65, 66, 68, 69,
                  71, 72, 74, 75, 77, 78, 80, 81, 83, 84, 86, 87, 89, 90, 92,
                  93, 95, 96, 98, 99, 101, 102, 104, 105, 107, 108, 110, 111,
                  113, 114, 116, 117, 119, 120, 122, 123, 125, 126, 128, 129,
                  131, 132, 134, 135, 137, 138, 140, 141, 143, 144, 146, 147,
                  149, 150, 152, 153, 155, 156, 158, 159, 161, 162, 164, 165,
                  167, 168, 170, 171, 173, 174, 176, 177, 179, 180, 182, 183,
                  185, 186, 188, 189, 191, 192, 194, 195, 197, 198, 200, 201,
                  203, 204, 206, 207, 209, 210, 212, 213, 215, 216, 218, 219,
                  221, 222, 224, 225, 227, 228, 230, 231, 233, 234, 236, 237,
                  239, 240, 242, 243, 245, 246, 248, 249, 251, 252, 254, 255,
                  257, 258, 260, 261, 263, 264, 266, 267, 269, 270, 272, 273,
                  275, 276, 278, 279, 281, 282, 284, 285, 287, 288, 290, 291,
                  293, 294, 296, 297, 299, 300, 302, 303, 305, 306, 308, 309,
                  311, 312, 314, 315, 317, 318, 320, 321, 323, 324, 326, 327,
                  329, 330, 332, 333, 335, 336, 338, 339, 341, 342, 344, 345,
                  347, 348, 350, 351, 353, 354, 356, 357, 359, 360, 362, 363,
                  365, 366, 368, 369, 371, 372, 374, 375, 377, 378, 380, 381,
                  383, 384, 386, 387, 389, 390, 392, 393, 395, 396, 398, 399,
                  401, 402, 404, 405, 407, 408, 410, 411, 413, 414, 416, 417,
                  419, 420, 422, 423, 425, 426, 428, 429, 431, 432, 434, 435,
                  437, 438, 440, 441, 443, 444, 446, 447, 449, 450, 452, 453,
                  455, 456, 458, 459, 461, 462, 464, 465, 467, 468, 470, 471,
                  473, 474, 476, 477, 479, 480, 482, 483, 485, 486, 488, 489,
                  491, 492, 494, 495, 497, 498, 500, 501, 503, 504, 506, 507,
                  509, 510, 512, 513, 515, 516, 518, 519, 521, 522, 524, 525,
                  527, 528, 530, 531, 533, 534, 536, 537, 539, 540, 542, 543,
                  545, 546, 548, 549, 551, 552, 554, 555, 557, 558, 560, 561,
                  563, 564, 566, 567, 569, 570, 572, 573, 575, 576, 578, 579,
                  581, 582, 584, 585, 587, 588, 590, 591, 593, 594, 596, 597,
                  599, 600, 602, 603, 605, 606, 608, 609, 611, 612, 614, 615,
                  617, 618, 620, 621, 623, 624, 626, 627, 629, 630, 632, 633,
                  635, 636, 638, 639, 641, 642, 644, 645, 647, 648, 650, 651,
                  653, 654, 656, 657, 659, 660, 662, 663, 665, 666, 668, 669,
                  671, 672, 674, 675, 677, 678, 680, 681, 683, 684, 686, 687,
                  689, 690, 692, 693, 695, 696, 698, 699, 701, 702, 704, 705,
                  707, 708, 710, 711, 713, 714, 716, 717, 719, 720, 722, 723,
                  725, 726, 728, 729, 731, 732, 734, 735, 737, 738, 740, 741,
                  743, 744, 746, 747, 749, 750, 752, 753, 755, 756

molecular fragmentation (1/2 indicates fragments):
111222222222222222222222222222222222222222222222222222222222222222222222
222222222222222222222222222222222222222222222222222222222222222222222222
222222222222222222222222222222222222222222222222222222222222222222222222
222222222222222222222222222222222222222222222222222222222222222222222222
222222222222222222222222222222222222222222222222222222222222222222222222
222222222222222222222222222222222222222222222222222222222222222222222222
222222222222222222222222222222222222222222222222222222222222222222222222
222222222222222222222222222222222222222222222222222222222222222222222222
222222222222222222222222222222222222222222222222222222222222222222222222
222222222222222222222222222222222222222222222222222222222222222222222222
222222222222222222222222222222222222
# atoms in fragment 1/2:     3   753
 fragment masses (1/2) :       18.02     4521.84
CMA distance (Bohr)    :  16.269
constraining FC (au)   :  0.0500

           -------------------------------------------------
          |                 G F N 2 - x T B                 |
           -------------------------------------------------

        Reference                      10.1021/acs.jctc.8b01176
      * Hamiltonian:
        H0-scaling (s, p, d)           1.850000    2.230000    2.230000
        zeta-weighting                 0.500000
      * Dispersion:
        s8                             2.700000
        a1                             0.520000
        a2                             5.000000
        s9                             5.000000
      * Repulsion:
        kExp                           1.500000    1.000000
        rExp                           1.000000
      * Coulomb:
        alpha                          2.000000
        third order                    shell-resolved
        anisotropic                    true
        a3                             3.000000
        a5                             4.000000
        cn-shift                       1.200000
        cn-exp                         4.000000
        max-rad                        5.000000


          ...................................................
          :                      SETUP                      :
          :.................................................:
          :  # basis functions                1512          :
          :  # atomic orbitals                1512          :
          :  # shells                         1008          :
          :  # electrons                      2016          :
          :  max. iterations                   250          :
          :  Hamiltonian                  GFN2-xTB          :
          :  restarted?                      false          :
          :  GBSA solvation                  false          :
          :  PC potential                    false          :
          :  electronic temp.          300.0000000     K    :
          :  accuracy                    1.0000000          :
          :  -> integral cutoff          0.2500000E+02      :
          :  -> integral neglect         0.1000000E-07      :
          :  -> SCF convergence          0.1000000E-05 Eh   :
          :  -> wf. convergence          0.1000000E-03 e    :
          :  Broyden damping             0.4000000          :
          ...................................................

 iter      E             dE          RMSdq      gap      omega  full diag
   1  -1291.0183517 -0.129102E+04  0.407E+00    8.53       0.0  T
   2  -1291.0867556 -0.684039E-01  0.242E+00    8.34       1.0  T
   3  -1291.1171601 -0.304045E-01  0.206E-01    7.93       1.0  T
   4  -1291.1220343 -0.487421E-02  0.450E-02    8.07       1.0  T
   5  -1291.1221020 -0.677470E-04  0.307E-02    8.05       1.0  T
   6  -1291.1221401 -0.380492E-04  0.404E-03    8.06       1.0  T
   7  -1291.1221422 -0.209579E-05  0.774E-04    8.06       4.7  T
   8  -1291.1221422 -0.348316E-07  0.401E-04    8.06       9.1  T
   9  -1291.1221422 -0.157147E-07  0.609E-05    8.06      59.7  T

   *** convergence criteria satisfied after 9 iterations ***

         #    Occupation            Energy/Eh            Energy/eV
      -------------------------------------------------------------
         1        2.0000           -0.6859178             -18.6648
       ...           ...                  ...                  ...
      1002        2.0000           -0.4123486             -11.2206
      1003        2.0000           -0.4122698             -11.2184
      1004        2.0000           -0.4109250             -11.1818
      1005        2.0000           -0.4088618             -11.1257
      1006        2.0000           -0.4052459             -11.0273
      1007        2.0000           -0.4049905             -11.0204
      1008        2.0000           -0.3995109             -10.8712 (HOMO)
      1009                         -0.1033002              -2.8109 (LUMO)
      1010                         -0.0933231              -2.5394
      1011                         -0.0835211              -2.2727
      1012                         -0.0778126              -2.1174
      1013                         -0.0709870              -1.9317
       ...                                ...                  ...
      1512                          0.4345896              11.8258
      -------------------------------------------------------------
                  HL-Gap            0.2962107 Eh            8.0603 eV
             Fermi-level           -0.2514056 Eh           -6.8411 eV
 
 localization/xTB-IFF output generation
 averaging CT terms over            4  occ. levels
 averaging CT terms over            2  virt. levels
 dipole moment from electron density (au)
     X       Y       Z   
   3.2412   0.1947   1.1025  total (Debye):    8.716
cpu  time for init local    0.79 s
wall time for init local    0.40 s
 doing rotations ...
 initialization of trafo matrix to unity

 converged in     16 iterations, threshold :   0.99999339D-06
 doing transformations ...
 lmo centers(Z=2) and atoms on file <lmocent.coord>
 LMO Fii/eV  ncent    charge center   contributions...
    1 LP   *******   0.00  -3.96072  -4.57468   5.21259  202O : 24.84  559O : 20.20  478O : 19.26   91O : 18.49  133O : 17.15  145O : 15.56   52O : 15.48   10O : 13.95  166O : 13.91  325O : 13.69  271O : 13.65   85O : 13.23
  328O : 12.88  589O : 12.50  613O : 12.49  205O : 12.11  529O : 11.77  154O : 11.32  283O : 10.94  499O : 10.60   88O : 10.45  643O : 10.34  370O : 10.07  256O : 10.01
    1O :  9.62  595O :  9.53  451O :  9.42  367O :  9.24  343O :  9.05  463O :  8.99  238O :  8.96  352O :  8.92  181O :  8.90  211O :  8.78  118O :  8.73  649O :  8.71
  331O :  8.69  616O :  8.44  418O :  8.43  481O :  8.41   58O :  8.39   40O :  8.13  124O :  8.13  136O :  8.11  490O :  8.03  445O :  8.00  709O :  7.98  751O :  7.86
  628O :  7.78  658O :  7.72  223O :  7.68  538O :  7.54  601O :  7.36  178O :  7.15  112O :  7.04   43O :  6.96  508O :  6.80  682O :  6.74  376O :  6.73   55O :  6.64
  487O :  6.60  160O :  6.52   16O :  6.51  250O :  6.50  523O :  6.42  235O :  6.31  409O :  6.27  505O :  6.24  469O :  6.17  148O :  6.14  175O :  6.11  391O :  6.08
  562O :  6.04  646O :  5.91  496O :  5.87  706O :  5.85  577O :  5.85   79O :  5.82  340O :  5.75  550O :  5.73  484O :  5.69  280O :  5.68  742O :  5.60  355O :  5.60
  199O :  5.52  187O :  5.51   70O :  5.51  553O :  5.49  265O :  5.41  430O :  5.40  511O :  5.40  274O :  5.35  184O :  5.35  397O :  5.32  733O :  5.29  568O :  5.26
  625O :  5.25   25O :  5.22  151O :  5.22  169O :  5.22  220O :  5.21  535O :  5.19  262O :  5.10  565O :  5.09  259O :  5.07  142O :  4.92  406O :  4.90  172O :  4.86
  580O :  4.84  637O :  4.80  571O :  4.76  667O :  4.61  373O :  4.56  109O :  4.48  586O :  4.36  304O :  4.30  157O :  4.23  679O :  4.20  622O :  4.19  736O :  4.15
  556O :  4.14   67O :  4.14   97O :  4.10  193O :  4.09  526O :  4.09  139O :  4.06  292O :  4.05  226O :  4.04  466O :  4.03  334O :  4.00  574O :  3.82   73O :  3.81
  700O :  3.74  208O :  3.74  247O :  3.73  727O :  3.73  163O :  3.71  703O :  3.70  448O :  3.66  661O :  3.64  190O :  3.63  424O :  3.55  196O :  3.53  454O :  3.53
  544O :  3.50   94O :  3.50  301O :  3.36  460O :  3.35  748O :  3.31  103O :  3.26  604O :  3.22   34O :  3.17  634O :  3.16  673O :  3.15   37O :  3.11  619O :  3.10
  592O :  3.08  475O :  3.07  394O :  2.97  229O :  2.95  670O :  2.86  412O :  2.84  277O :  2.82  106O :  2.77  310O :  2.76  337O :  2.75  400O :  2.72  517O :  2.69
  754O :  2.66  655O :  2.61    7O :  2.56  442O :  2.55  361O :  2.54  721O :  2.48  385O :  2.46   19O :  2.46  217O :  2.37  520O :  2.32  724O :  2.31  502O :  2.28
   22O :  2.23  319O :  2.23  688O :  2.22  421O :  2.21  346O :  2.16  433O :  2.13  244O :  2.13  272H :  2.12  676O :  2.09  631O :  2.07  712O :  2.03  100O :  2.03
  598O :  2.00  295O :  1.98  457O :  1.95   82O :  1.91  640O :  1.89   64O :  1.88  697O :  1.85  715O :  1.79  745O :  1.77  155H :  1.76  364O :  1.74  115O :  1.73
   92H :  1.73  493O :  1.73  403O :  1.71   36H :  1.63  718O :  1.61  472O :  1.60  258H :  1.58  241O :  1.57  691O :  1.56  388O :  1.56  532O :  1.53  541O :  1.51
  268O :  1.50   28O :  1.44   13O :  1.43   31O :  1.43  492H :  1.42  232O :  1.41  349O :  1.41  130O :  1.40   76O :  1.40   12H :  1.38  546H :  1.35  514O :  1.35
  275H :  1.31  214O :  1.31   46O :  1.30   49O :  1.30  377H :  1.27  610O :  1.27  636H :  1.23  583O :  1.22  498H :  1.20   11H :  1.19  447H :  1.09  530H :  1.03
  119H :  1.02  358O :  1.01  729H :  1.00   59H :  0.99  713H :  0.99  509H :  0.97  164H :  0.97  464H :  0.96  348H :  0.95  685O :  0.93  322O :  0.93  389H :  0.92
  379O :  0.92  479H :  0.92  354H :  0.92  382O :  0.91   65H :  0.91   45H :  0.89  647H :  0.89  260H :  0.88  704H :  0.87  177H :  0.87  632H :  0.84  289O :  0.81
  121O :  0.81  439O :  0.81  694O :  0.80  607O :  0.78  576H :  0.77  507H :  0.77  497H :  0.74  436O :  0.73  730O :  0.72  253O :  0.69   26H :  0.67  707H :  0.66
  739O :  0.65   61O :  0.65  222H :  0.64  690H :  0.63    3H :  0.63  645H :  0.63  267H :  0.61  432H :  0.59  735H :  0.58  263H :  0.57  558H :  0.57  522H :  0.57
  425H :  0.57  564H :  0.56  309H :  0.56  299H :  0.55  677H :  0.55  594H :  0.54  414H :  0.54   14H :  0.53   57H :  0.53  290H :  0.53  510H :  0.53  627H :  0.53
   44H :  0.53  101H :  0.53  251H :  0.53  351H :  0.53  298O :  0.52  387H :  0.51  623H :  0.51  485H :  0.51  137H :  0.51  153H :  0.50  524H :  0.50  480H :  0.50
  357H :  0.50  482H :  0.50  419H :  0.49  547O :  0.49   90H :  0.48  585H :  0.48  681H :  0.48  313O :  0.47  125H :  0.47   24H :  0.46  183H :  0.46  316O :  0.46
  664O :  0.45  750H :  0.45  318H :  0.45  127O :  0.45  167H :  0.44  282H :  0.44  659H :  0.44  116H :  0.44  227H :  0.43  644H :  0.43  207H :  0.42  468H :  0.42
  663H :  0.42  221H :  0.42  411H :  0.41  324H :  0.41  410H :  0.41  369H :  0.40  618H :  0.40  278H :  0.40  339H :  0.40  330H :  0.40  386H :  0.39  286O :  0.39
  560H :  0.38  203H :  0.38  368H :  0.38  489H :  0.38  171H :  0.38  581H :  0.37  615H :  0.36  450H :  0.36    2H :  0.36  236H :  0.36  427O :  0.35  642H :  0.35
  261H :  0.35   72H :  0.35  603H :  0.35  398H :  0.35  710H :  0.34  651H :  0.34  200H :  0.34  753H :  0.33  312H :  0.33  680H :  0.33  579H :  0.32  180H :  0.32
  333H :  0.32  652O :  0.31  626H :  0.30  641H :  0.30  656H :  0.29  477H :  0.29  486H :  0.29  609H :  0.28   35H :  0.28  435H :  0.28  192H :  0.28  491H :  0.28
  702H :  0.28  159H :  0.27   33H :  0.27  291H :  0.27  149H :  0.27  107H :  0.27  431H :  0.27  552H :  0.27  630H :  0.26  273H :  0.26  415O :  0.26  228H :  0.25
  407H :  0.25  566H :  0.24  605H :  0.24  423H :  0.24  474H :  0.24  307O :  0.24   99H :  0.24  296H :  0.23  731H :  0.23  495H :  0.23  752H :  0.23  617H :  0.23
  501H :  0.23  279H :  0.23  404H :  0.22  320H :  0.22  515H :  0.22  446H :  0.22  245H :  0.21  363H :  0.21  146H :  0.21  182H :  0.21  438H :  0.21  732H :  0.21
  194H :  0.21   66H :  0.21    9H :  0.21  555H :  0.21  156H :  0.21  527H :  0.21  657H :  0.21  162H :  0.20  638H :  0.20  165H :  0.20   20H :  0.20  653H :  0.20
  110H :  0.20  716H :  0.20  173H :  0.20  654H :  0.19  563H :  0.19  561H :  0.19   93H :  0.19  684H :  0.19  542H :  0.18  132H :  0.18  584H :  0.18  102H :  0.18
  504H :  0.18  699H :  0.18  420H :  0.18  345H :  0.18  588H :  0.18  216H :  0.18    8H :  0.18  195H :  0.18  302H :  0.18  219H :  0.17  138H :  0.17  158H :  0.17
  687H :  0.17  470H :  0.17  503H :  0.17  674H :  0.17  417H :  0.17  698H :  0.17  413H :  0.17   83H :  0.16  612H :  0.16   54H :  0.16  303H :  0.16  537H :  0.16
  465H :  0.15  512H :  0.15  170H :  0.15  264H :  0.14  224H :  0.14  356H :  0.14  246H :  0.14  533H :  0.14  243H :  0.14  383H :  0.14  738H :  0.14  362H :  0.14
  255H :  0.13   15H :  0.13   41H :  0.13  540H :  0.13  521H :  0.13   48H :  0.13  734H :  0.13  372H :  0.12  347H :  0.12   71H :  0.12   62H :  0.12  186H :  0.12
  725H :  0.12  573H :  0.12   77H :  0.11    4O :  0.11  488H :  0.11  189H :  0.11  150H :  0.11  426H :  0.11  689H :  0.11  662H :  0.11  441H :  0.11  375H :  0.11
  755H :  0.11   69H :  0.10  336H :  0.10   96H :  0.10  288H :  0.10  669H :  0.09  179H :  0.09  746H :  0.09  747H :  0.09  270H :  0.09  378H :  0.09  545H :  0.09
  440H :  0.09  678H :  0.09   75H :  0.09  467H :  0.09  374H :  0.08  756H :  0.08  741H :  0.08  629H :  0.08  650H :  0.08   18H :  0.08  416H :  0.08  161H :  0.08
   53H :  0.08  635H :  0.08  308H :  0.08   86H :  0.08  338H :  0.08  500H :  0.08   17H :  0.08  444H :  0.08  321H :  0.08  188H :  0.08  596H :  0.07  306H :  0.07
  128H :  0.07  395H :  0.07  686H :  0.07  371H :  0.07
    2 LP   *******   0.00 -18.98519  -5.17110 -10.52766  559O : 22.56  202O : 20.24  478O : 18.51   91O : 17.83  133O : 16.49  145O : 14.95   52O : 14.88   10O : 13.41  166O : 13.37  325O : 13.16  271O : 13.12   85O : 12.72
  328O : 12.38  589O : 12.01  613O : 12.01  205O : 11.64  529O : 11.31  154O : 10.88  283O : 10.51  499O : 10.19   88O : 10.04  643O :  9.94  370O :  9.72  256O :  9.62
    1O :  9.24  595O :  9.16  451O :  9.05  367O :  8.88  343O :  8.70  463O :  8.64  238O :  8.61  352O :  8.57  181O :  8.56  211O :  8.45  118O :  8.39  331O :  8.36
  616O :  8.11  418O :  8.10  481O :  8.08   58O :  8.06  649O :  7.90   40O :  7.81  124O :  7.81  136O :  7.80  490O :  7.73  445O :  7.68  709O :  7.67  751O :  7.55
  628O :  7.47  658O :  7.42  223O :  7.38  538O :  7.24  601O :  7.08  178O :  6.87  112O :  6.79   43O :  6.68  508O :  6.53  682O :  6.48  376O :  6.46  487O :  6.46
   55O :  6.38  160O :  6.27   16O :  6.27  250O :  6.24  523O :  6.17  235O :  6.06  409O :  6.02  505O :  6.00  469O :  5.93  148O :  5.90  175O :  5.88  391O :  5.85
  562O :  5.84  646O :  5.68  496O :  5.64  706O :  5.62  577O :  5.62   79O :  5.59  340O :  5.52  550O :  5.50  484O :  5.47  280O :  5.44  742O :  5.39  355O :  5.38
  199O :  5.30  187O :  5.30   70O :  5.29  553O :  5.28  265O :  5.20  511O :  5.19  274O :  5.15  184O :  5.14  397O :  5.11  430O :  5.10  733O :  5.08  568O :  5.06
  625O :  5.05   25O :  5.01  169O :  5.01  151O :  5.01  220O :  5.01  535O :  4.98  262O :  4.90  565O :  4.89  259O :  4.87  142O :  4.72  406O :  4.70  172O :  4.67
  580O :  4.66  637O :  4.62  571O :  4.57  667O :  4.43  373O :  4.38  109O :  4.31  586O :  4.21  304O :  4.13  157O :  4.07   73O :  4.06  679O :  4.04  622O :  4.03
  736O :  3.99  556O :  3.98   67O :  3.97   97O :  3.94  193O :  3.93  526O :  3.93  139O :  3.90  292O :  3.90  226O :  3.89  466O :  3.87  334O :  3.84  574O :  3.67
  700O :  3.59  208O :  3.59  247O :  3.59  727O :  3.58  163O :  3.56  703O :  3.55  448O :  3.51  661O :  3.50  190O :  3.49  424O :  3.41  454O :  3.39  196O :  3.39
  544O :  3.37   94O :  3.37  301O :  3.23  460O :  3.22  748O :  3.18  103O :  3.13  604O :  3.10  634O :  3.04   34O :  3.03  673O :  3.03   37O :  2.99  619O :  2.98
  592O :  2.96  475O :  2.95  394O :  2.85  229O :  2.84  670O :  2.75  412O :  2.73  277O :  2.71  106O :  2.66  310O :  2.65  337O :  2.64  400O :  2.61  517O :  2.59
  754O :  2.55  655O :  2.51    7O :  2.46  442O :  2.45  361O :  2.44  721O :  2.38  385O :  2.37   19O :  2.36  217O :  2.27  520O :  2.23  724O :  2.22   22O :  2.19
  502O :  2.19  319O :  2.14  688O :  2.14  421O :  2.12  346O :  2.08  433O :  2.04  272H :  2.04  676O :  2.01  244O :  2.00  631O :  1.98  712O :  1.96  100O :  1.95
  598O :  1.92  295O :  1.90  457O :  1.87   82O :  1.84  640O :  1.81   64O :  1.80  697O :  1.78  715O :  1.72  745O :  1.70  155H :  1.70   92H :  1.68  364O :  1.67
  115O :  1.67  493O :  1.66  403O :  1.65   36H :  1.55  718O :  1.55  472O :  1.54  258H :  1.52  241O :  1.51  691O :  1.50  388O :  1.50  532O :  1.47  541O :  1.45
  268O :  1.44   28O :  1.39   13O :  1.37  492H :  1.37   31O :  1.37  232O :  1.36  349O :  1.35  130O :  1.35   76O :  1.34   12H :  1.32  546H :  1.30  514O :  1.30
  214O :  1.27  275H :  1.26   49O :  1.25   46O :  1.25  610O :  1.23  377H :  1.22  636H :  1.18  583O :  1.17  498H :  1.15   11H :  1.15  447H :  1.05  530H :  0.99
  119H :  0.98  358O :  0.97  729H :  0.96   59H :  0.95  713H :  0.95  509H :  0.93  164H :  0.93  464H :  0.92  348H :  0.92  685O :  0.91  322O :  0.89  389H :  0.89
  379O :  0.89  479H :  0.88  354H :  0.88  382O :  0.88   65H :  0.87   45H :  0.86  647H :  0.86  260H :  0.85  704H :  0.84  177H :  0.83  632H :  0.80  121O :  0.78
  289O :  0.78  439O :  0.78  694O :  0.77  607O :  0.75  576H :  0.74  507H :  0.74  497H :  0.71  436O :  0.70  730O :  0.69  253O :  0.66   26H :  0.65  707H :  0.63
  739O :  0.63   61O :  0.63  222H :  0.61  690H :  0.61    3H :  0.60  645H :  0.60  267H :  0.59  432H :  0.58  735H :  0.56  263H :  0.55  558H :  0.55  522H :  0.55
  425H :  0.55  419H :  0.53  309H :  0.53  299H :  0.53  564H :  0.53  677H :  0.53  594H :  0.52  414H :  0.51   14H :  0.51   57H :  0.51  290H :  0.51  510H :  0.51
  627H :  0.51  298O :  0.51   44H :  0.51  101H :  0.51  251H :  0.51  351H :  0.51  387H :  0.49  623H :  0.49  485H :  0.49  137H :  0.49  153H :  0.49  524H :  0.48
  480H :  0.48  357H :  0.48  482H :  0.48  547O :  0.47   90H :  0.46  585H :  0.46  681H :  0.46  313O :  0.45  125H :  0.45   24H :  0.45  183H :  0.44  203H :  0.44
  316O :  0.44  750H :  0.44  664O :  0.43  318H :  0.43  127O :  0.43  167H :  0.43  282H :  0.42  659H :  0.42  116H :  0.42  227H :  0.42  644H :  0.41  207H :  0.41
  468H :  0.40  663H :  0.40  221H :  0.40  411H :  0.40  324H :  0.40  410H :  0.40  369H :  0.39  618H :  0.39  278H :  0.38  339H :  0.38  330H :  0.38  386H :  0.38
  286O :  0.37  489H :  0.37  368H :  0.37  171H :  0.36  581H :  0.35  615H :  0.35  450H :  0.35    2H :  0.35  236H :  0.34  427O :  0.34  642H :  0.34  261H :  0.34
   72H :  0.34  603H :  0.34  398H :  0.33  710H :  0.33  200H :  0.32  753H :  0.32  312H :  0.32  680H :  0.32  579H :  0.31  180H :  0.31  333H :  0.30  560H :  0.30
  652O :  0.30  626H :  0.29  641H :  0.29  656H :  0.28  477H :  0.28  486H :  0.28  609H :  0.27   35H :  0.27  192H :  0.27  435H :  0.27  491H :  0.27  702H :  0.27
  159H :  0.26   33H :  0.26  291H :  0.26  149H :  0.26  107H :  0.26  552H :  0.25  630H :  0.25  273H :  0.25  415O :  0.25  431H :  0.25  407H :  0.24  228H :  0.24
  566H :  0.23  605H :  0.23  423H :  0.23  474H :  0.23  307O :  0.23   99H :  0.23  296H :  0.22  731H :  0.22  495H :  0.22  752H :  0.22  617H :  0.22  501H :  0.22
  279H :  0.22  404H :  0.22  320H :  0.21  515H :  0.21  446H :  0.21  363H :  0.21  245H :  0.21  146H :  0.20  182H :  0.20  438H :  0.20   75H :  0.20  732H :  0.20
  194H :  0.20    9H :  0.20   66H :  0.20  555H :  0.20  156H :  0.20  527H :  0.20  657H :  0.20  162H :  0.20  638H :  0.19  165H :  0.19   20H :  0.19  653H :  0.19
  110H :  0.19  716H :  0.19  173H :  0.19  654H :  0.19  563H :  0.18   93H :  0.18  684H :  0.18  542H :  0.18  687H :  0.18  132H :  0.18  584H :  0.18  102H :  0.17
  504H :  0.17  699H :  0.17  651H :  0.17  345H :  0.17  420H :  0.17  588H :  0.17  216H :  0.17    8H :  0.17  195H :  0.17  302H :  0.17  219H :  0.17  138H :  0.17
  158H :  0.17  470H :  0.17  503H :  0.16  674H :  0.16  417H :  0.16  698H :  0.16  413H :  0.16  612H :  0.16   83H :  0.16   54H :  0.16  303H :  0.15  537H :  0.15
  465H :  0.15  512H :  0.14  170H :  0.14  264H :  0.14  224H :  0.14  356H :  0.14  246H :  0.13  533H :  0.13  243H :  0.13  383H :  0.13  738H :  0.13  362H :  0.13
  255H :  0.13  561H :  0.13   15H :  0.13   41H :  0.12  540H :  0.12  521H :  0.12   48H :  0.12  734H :  0.12  372H :  0.12  347H :  0.12   71H :  0.11   62H :  0.11
  186H :  0.11  725H :  0.11  573H :  0.11    4O :  0.11  488H :  0.11   77H :  0.11  189H :  0.11  150H :  0.11  426H :  0.11  689H :  0.10  755H :  0.10  662H :  0.10
  441H :  0.10  375H :  0.10   69H :  0.10  336H :  0.10   96H :  0.10  288H :  0.10  669H :  0.09  371H :  0.09  179H :  0.09  746H :  0.09  747H :  0.09  270H :  0.09
  378H :  0.09  545H :  0.09  440H :  0.09  678H :  0.09  467H :  0.08   53H :  0.08  374H :  0.08  650H :  0.08  741H :  0.08  629H :  0.08   17H :  0.08  416H :  0.08
   18H :  0.08  161H :  0.08  308H :  0.08  635H :  0.08  756H :  0.08   86H :  0.08  338H :  0.07  500H :  0.07  444H :  0.07  321H :  0.07  188H :  0.07  596H :  0.07
  306H :  0.07  686H :  0.07  128H :  0.07
    3 LP   *******   0.00  14.33231  41.09272   9.42650  202O : 17.09  559O : 16.39  478O : 15.63   91O : 15.00  145O : 14.20  133O : 13.92   52O : 12.56   10O : 11.32  166O : 11.28  325O : 11.11  271O : 11.08   85O : 10.73
  328O : 10.45  589O : 10.14  613O : 10.14  205O :  9.83  529O :  9.54  154O :  9.18  283O :  8.87  499O :  8.60   88O :  8.47  643O :  8.40  370O :  8.21  256O :  8.12
    1O :  7.80  595O :  7.73  451O :  7.64  367O :  7.49  343O :  7.34  463O :  7.29  238O :  7.27  352O :  7.23  181O :  7.22  211O :  7.13  118O :  7.08  649O :  7.07
  331O :  7.05  616O :  6.84  418O :  6.84  481O :  6.82   58O :  6.80   40O :  6.59  124O :  6.59  136O :  6.58  490O :  6.52  445O :  6.49  709O :  6.47  751O :  6.38
  628O :  6.30  658O :  6.27  223O :  6.23  538O :  6.09  601O :  5.97  178O :  5.80  112O :  5.73   43O :  5.64  508O :  5.51  376O :  5.46  487O :  5.45  682O :  5.42
   55O :  5.38  160O :  5.29   16O :  5.29  250O :  5.27  523O :  5.21  235O :  5.12  409O :  5.09  505O :  5.06  469O :  5.01  148O :  4.98  175O :  4.96  391O :  4.94
  562O :  4.90  646O :  4.83  496O :  4.76  706O :  4.75  577O :  4.75   79O :  4.72  340O :  4.66  550O :  4.64  484O :  4.62  280O :  4.61  742O :  4.55  355O :  4.54
  199O :  4.48  187O :  4.47   70O :  4.46  553O :  4.45  265O :  4.39  511O :  4.38  274O :  4.34  184O :  4.34  397O :  4.31  430O :  4.31  733O :  4.29  568O :  4.27
  625O :  4.26   25O :  4.23  169O :  4.23  151O :  4.23  220O :  4.22  535O :  4.21  262O :  4.14  565O :  4.13  259O :  4.11  142O :  3.99  406O :  3.97  172O :  3.94
  580O :  3.93  637O :  3.90  571O :  3.86  667O :  3.74  373O :  3.70  109O :  3.63  586O :  3.55  304O :  3.49  157O :  3.44   73O :  3.43  679O :  3.41  622O :  3.40
  736O :  3.36  556O :  3.36   67O :  3.36   97O :  3.32  193O :  3.32  139O :  3.29  292O :  3.29  226O :  3.28  466O :  3.27  334O :  3.24  526O :  3.11  574O :  3.10
  700O :  3.03  208O :  3.03  247O :  3.03  727O :  3.02  163O :  3.01  703O :  3.00  448O :  2.97  661O :  2.95  190O :  2.95  424O :  2.88  454O :  2.87  196O :  2.86
  544O :  2.84   94O :  2.84  301O :  2.72  460O :  2.72  748O :  2.69  103O :  2.64  604O :  2.62  634O :  2.56   34O :  2.56  673O :  2.55   37O :  2.53  592O :  2.51
  619O :  2.51  475O :  2.49  394O :  2.41  229O :  2.40  670O :  2.32  412O :  2.30  277O :  2.29  106O :  2.24  310O :  2.24  337O :  2.23  400O :  2.20  517O :  2.18
  754O :  2.16  655O :  2.11    7O :  2.08  442O :  2.07  361O :  2.06  721O :  2.01  385O :  2.00   19O :  1.99  217O :  1.92  520O :  1.88  724O :  1.87   22O :  1.85
  502O :  1.85  319O :  1.81  688O :  1.80  421O :  1.79  346O :  1.75  244O :  1.73  433O :  1.72  272H :  1.72  676O :  1.69  631O :  1.67  712O :  1.65  100O :  1.65
  598O :  1.61  295O :  1.60  457O :  1.58   82O :  1.55  640O :  1.53   64O :  1.52  697O :  1.50  745O :  1.44  155H :  1.43  364O :  1.41  115O :  1.41   92H :  1.41
  493O :  1.40  403O :  1.39  388O :  1.38  715O :  1.38   36H :  1.31  718O :  1.30  472O :  1.30  258H :  1.28  241O :  1.27  691O :  1.27  532O :  1.24  541O :  1.22
  268O :  1.22   28O :  1.19   13O :  1.16  492H :  1.16  349O :  1.15  232O :  1.14  130O :  1.14   76O :  1.13   12H :  1.12   31O :  1.11  546H :  1.10  514O :  1.09
  214O :  1.07  275H :  1.06   49O :  1.06   46O :  1.06  610O :  1.04  377H :  1.03  636H :  0.99  583O :  0.99  498H :  0.97   11H :  0.97  447H :  0.88  530H :  0.83
  119H :  0.82  358O :  0.82  729H :  0.81   59H :  0.81  713H :  0.80  164H :  0.79  509H :  0.79  464H :  0.78  348H :  0.77  685O :  0.77  322O :  0.75  379O :  0.75
  479H :  0.75  354H :  0.74  382O :  0.74   65H :  0.74  389H :  0.73   45H :  0.72  647H :  0.72  260H :  0.72  704H :  0.71  177H :  0.70  632H :  0.68  121O :  0.66
  289O :  0.66  439O :  0.66  694O :  0.65  607O :  0.63  576H :  0.63  507H :  0.62  497H :  0.60  436O :  0.60  730O :  0.58  253O :  0.56   26H :  0.55  707H :  0.54
  739O :  0.53   61O :  0.53  222H :  0.52  690H :  0.51  645H :  0.51    3H :  0.51  267H :  0.50  432H :  0.49  735H :  0.47  263H :  0.47  558H :  0.46  522H :  0.46
  425H :  0.46  564H :  0.45  309H :  0.45  299H :  0.45  677H :  0.44  594H :  0.44  414H :  0.43   14H :  0.43   57H :  0.43  510H :  0.43  290H :  0.43  627H :  0.43
   44H :  0.43  101H :  0.43  251H :  0.43  351H :  0.43  298O :  0.43  387H :  0.42  623H :  0.42  485H :  0.41  137H :  0.41  153H :  0.41  524H :  0.41  480H :  0.41
  357H :  0.40  482H :  0.40  419H :  0.40  547O :  0.40  585H :  0.39   90H :  0.39  681H :  0.39  313O :  0.38  125H :  0.38   24H :  0.38  183H :  0.37  203H :  0.37
  316O :  0.37  750H :  0.37  664O :  0.37  318H :  0.36  127O :  0.36  167H :  0.36  282H :  0.36  659H :  0.35  116H :  0.35  227H :  0.35  644H :  0.35  207H :  0.34
  468H :  0.34  663H :  0.34  221H :  0.34  411H :  0.34  324H :  0.33  410H :  0.33  618H :  0.33  369H :  0.33  278H :  0.32  339H :  0.32  330H :  0.32  386H :  0.32
  286O :  0.31  489H :  0.31  560H :  0.31  368H :  0.31  171H :  0.31  581H :  0.30  615H :  0.30  450H :  0.30    2H :  0.29  236H :  0.29  427O :  0.29  642H :  0.29
  261H :  0.29   72H :  0.29  603H :  0.28  398H :  0.28  710H :  0.28  651H :  0.27  200H :  0.27  753H :  0.27  680H :  0.27  312H :  0.27  579H :  0.26  180H :  0.26
  333H :  0.26  652O :  0.25  626H :  0.24  641H :  0.24  656H :  0.24  477H :  0.24  486H :  0.23  609H :  0.23  192H :  0.23   35H :  0.23  435H :  0.23  491H :  0.23
  702H :  0.22  159H :  0.22  291H :  0.22  149H :  0.22  107H :  0.22  552H :  0.22  630H :  0.21  273H :  0.21  415O :  0.21  146H :  0.21  431H :  0.21  407H :  0.20
  228H :  0.20  566H :  0.20  605H :  0.20  423H :  0.20  474H :  0.19  307O :  0.19   99H :  0.19   33H :  0.19  296H :  0.19  731H :  0.19  495H :  0.19  752H :  0.19
  617H :  0.19  501H :  0.18  279H :  0.18  404H :  0.18  320H :  0.18  515H :  0.18  446H :  0.18  245H :  0.17  363H :  0.17  182H :  0.17  438H :  0.17   75H :  0.17
  732H :  0.17  194H :  0.17    9H :  0.17   66H :  0.17  555H :  0.17  156H :  0.17  657H :  0.17  162H :  0.17  638H :  0.16  527H :  0.16  165H :  0.16   20H :  0.16
  653H :  0.16  110H :  0.16  173H :  0.16  654H :  0.16  563H :  0.16  716H :  0.16  561H :  0.16   93H :  0.15  684H :  0.15  542H :  0.15  687H :  0.15  132H :  0.15
  584H :  0.15  102H :  0.15  504H :  0.15  699H :  0.15  420H :  0.15  345H :  0.15  588H :  0.14  216H :  0.14    8H :  0.14  195H :  0.14  302H :  0.14  219H :  0.14
  138H :  0.14  158H :  0.14  470H :  0.14  503H :  0.14  417H :  0.13  674H :  0.13  698H :  0.13  413H :  0.13  612H :  0.13   83H :  0.13   54H :  0.13  303H :  0.13
  537H :  0.13  465H :  0.12  512H :  0.12  170H :  0.12  264H :  0.12  224H :  0.12  356H :  0.12  246H :  0.11  533H :  0.11  243H :  0.11  383H :  0.11  738H :  0.11
  362H :  0.11  255H :  0.11   15H :  0.11   41H :  0.11  540H :  0.10  521H :  0.10   48H :  0.10  734H :  0.10  372H :  0.10  347H :  0.10   71H :  0.10   62H :  0.10
  186H :  0.10  725H :  0.09  573H :  0.09    4O :  0.09  488H :  0.09   77H :  0.09  189H :  0.09  150H :  0.09  426H :  0.09  689H :  0.09  755H :  0.09  662H :  0.09
  441H :  0.09  375H :  0.09   69H :  0.09  336H :  0.08   96H :  0.08  288H :  0.08  669H :  0.08  371H :  0.08  179H :  0.08  746H :  0.08  270H :  0.07  747H :  0.07
  378H :  0.07  545H :  0.07  440H :  0.07  678H :  0.07  467H :  0.07
    4 LP   *******   0.00 -14.77270  -5.77643 -12.39242   91O : 17.00  202O : 16.13  559O : 15.39  478O : 14.75  133O : 13.14   52O : 12.07  145O : 11.92   10O : 10.69  166O : 10.65  325O : 10.49  271O : 10.46   85O : 10.12
  328O :  9.86  613O :  9.57  589O :  9.57  205O :  9.28  529O :  9.02  154O :  8.67  283O :  8.38  499O :  8.12   88O :  8.00  643O :  7.92  370O :  7.75  256O :  7.67
    1O :  7.36  595O :  7.30  451O :  7.21  367O :  7.08  463O :  6.88  343O :  6.87  238O :  6.86  352O :  6.83  181O :  6.82  211O :  6.72  118O :  6.69  649O :  6.67
  331O :  6.66  616O :  6.46  418O :  6.45  481O :  6.44   58O :  6.43   40O :  6.23  124O :  6.23  136O :  6.22  490O :  6.16  445O :  6.12  709O :  6.11  751O :  6.02
  628O :  5.95  658O :  5.92  223O :  5.88  538O :  5.77  601O :  5.64  178O :  5.47  112O :  5.41   43O :  5.33  508O :  5.21  682O :  5.16  376O :  5.15  487O :  5.14
   55O :  5.08  160O :  5.00   16O :  4.99  250O :  4.97  523O :  4.92  235O :  4.83  409O :  4.80  505O :  4.78  469O :  4.73  148O :  4.70  391O :  4.66  562O :  4.63
  646O :  4.53  496O :  4.50  175O :  4.48  706O :  4.48  577O :  4.48   79O :  4.46  340O :  4.40  550O :  4.39  484O :  4.36  742O :  4.29  355O :  4.29  199O :  4.23
  187O :  4.22   70O :  4.22  553O :  4.20  265O :  4.14  511O :  4.14  274O :  4.10  280O :  4.10  184O :  4.09  397O :  4.07  430O :  4.07  733O :  4.05  568O :  4.03
  625O :  4.02   25O :  3.99  169O :  3.99  151O :  3.99  220O :  3.99  535O :  3.97  262O :  3.91  565O :  3.90  259O :  3.88  142O :  3.78  406O :  3.75  172O :  3.72
  580O :  3.71  637O :  3.68  571O :  3.64  667O :  3.53  373O :  3.49  109O :  3.43  586O :  3.36  304O :  3.29  157O :  3.24   73O :  3.23  679O :  3.22  622O :  3.21
  736O :  3.17  556O :  3.17   67O :  3.16   97O :  3.14  193O :  3.13  526O :  3.13  139O :  3.11  292O :  3.10  226O :  3.10  466O :  3.09  334O :  3.06  574O :  2.93
  700O :  2.86  208O :  2.86  247O :  2.86  727O :  2.85  163O :  2.84  703O :  2.83  448O :  2.80  661O :  2.79  190O :  2.78  424O :  2.72  196O :  2.71  454O :  2.71
   94O :  2.68  544O :  2.68  301O :  2.57  460O :  2.57  748O :  2.54  103O :  2.50  604O :  2.47  634O :  2.42   34O :  2.42  673O :  2.41   37O :  2.38  619O :  2.37
  592O :  2.36  475O :  2.35  394O :  2.27  229O :  2.26  670O :  2.19  412O :  2.17  277O :  2.16  106O :  2.12  310O :  2.11  337O :  2.10  400O :  2.08  517O :  2.06
  754O :  2.04  655O :  2.00    7O :  1.96  442O :  1.95  361O :  1.94  721O :  1.90  385O :  1.89   19O :  1.88  217O :  1.81  520O :  1.78  724O :  1.77   22O :  1.75
  502O :  1.74  319O :  1.71  688O :  1.70  421O :  1.69  346O :  1.65  244O :  1.63  433O :  1.63  272H :  1.63  676O :  1.60  631O :  1.58  712O :  1.56  100O :  1.56
  598O :  1.53  295O :  1.52  457O :  1.49   82O :  1.47  640O :  1.45   64O :  1.44  697O :  1.42  715O :  1.37  745O :  1.36  155H :  1.35  364O :  1.33  115O :  1.33
  493O :  1.33  403O :  1.31   36H :  1.24  718O :  1.23   92H :  1.23  472O :  1.23  258H :  1.21  241O :  1.20  691O :  1.20  388O :  1.20  532O :  1.17  541O :  1.16
  268O :  1.15   28O :  1.11   13O :  1.10  492H :  1.09   31O :  1.09  232O :  1.08  349O :  1.08  130O :  1.07   76O :  1.07   12H :  1.05  546H :  1.04  514O :  1.03
  214O :  1.01  275H :  1.01   49O :  1.00   46O :  1.00  610O :  0.98  377H :  0.98  636H :  0.94  583O :  0.93  498H :  0.92   11H :  0.91  447H :  0.83  530H :  0.79
  119H :  0.78  358O :  0.77  729H :  0.76   59H :  0.76  713H :  0.76  509H :  0.74  164H :  0.74  464H :  0.73  348H :  0.73  685O :  0.73  322O :  0.71  389H :  0.71
  379O :  0.71  479H :  0.70  354H :  0.70  382O :  0.70   65H :  0.69   45H :  0.68  647H :  0.68  260H :  0.68  704H :  0.67  177H :  0.64  632H :  0.64  121O :  0.62
  289O :  0.62  439O :  0.62  694O :  0.61  607O :  0.59  576H :  0.59  507H :  0.59  497H :  0.57  436O :  0.56  730O :  0.55  253O :  0.53   26H :  0.52  707H :  0.51
  739O :  0.50   61O :  0.50  222H :  0.49  690H :  0.49  645H :  0.48    3H :  0.48  267H :  0.47  432H :  0.46  735H :  0.45  263H :  0.44  558H :  0.44  522H :  0.44
  425H :  0.44  564H :  0.43  309H :  0.43  299H :  0.42  677H :  0.42  594H :  0.41  414H :  0.41   14H :  0.41   57H :  0.41  290H :  0.41  510H :  0.41  627H :  0.41
  298O :  0.41   44H :  0.41  101H :  0.41  251H :  0.40  351H :  0.40  387H :  0.39  623H :  0.39  485H :  0.39  137H :  0.39  153H :  0.39  560H :  0.39  524H :  0.38
  480H :  0.38  357H :  0.38  482H :  0.38  419H :  0.38  547O :  0.37   90H :  0.37  585H :  0.37  681H :  0.36  313O :  0.36  125H :  0.36   24H :  0.36  183H :  0.35
  203H :  0.35  316O :  0.35  664O :  0.35  750H :  0.35  318H :  0.34  127O :  0.34  167H :  0.34  659H :  0.33  116H :  0.33  227H :  0.33  644H :  0.33  207H :  0.32
  468H :  0.32  663H :  0.32  221H :  0.32  411H :  0.32  324H :  0.32  410H :  0.31  369H :  0.31  618H :  0.31  278H :  0.31  339H :  0.31  330H :  0.30  386H :  0.30
  282H :  0.30  286O :  0.30  489H :  0.30  368H :  0.29  171H :  0.29  581H :  0.28  615H :  0.28  450H :  0.28    2H :  0.28  236H :  0.27  427O :  0.27  642H :  0.27
  261H :  0.27   72H :  0.27  603H :  0.27  398H :  0.27  651H :  0.26  710H :  0.26  200H :  0.26  753H :  0.25  680H :  0.25  312H :  0.25  579H :  0.25  180H :  0.25
  333H :  0.24  652O :  0.24  626H :  0.23  641H :  0.23  656H :  0.22  477H :  0.22  486H :  0.22  609H :  0.22   35H :  0.22  192H :  0.22  435H :  0.22  491H :  0.21
  702H :  0.21  159H :  0.21   33H :  0.21  291H :  0.21  149H :  0.21  107H :  0.21  552H :  0.20  630H :  0.20  273H :  0.20  415O :  0.20  431H :  0.20  407H :  0.19
  228H :  0.19  566H :  0.19  605H :  0.18  423H :  0.18  474H :  0.18  307O :  0.18   99H :  0.18  296H :  0.18  731H :  0.18  495H :  0.18  752H :  0.18  617H :  0.18
  501H :  0.17  279H :  0.17  404H :  0.17  320H :  0.17  515H :  0.17  446H :  0.17  245H :  0.16  363H :  0.16  146H :  0.16  182H :  0.16  438H :  0.16  732H :  0.16
   75H :  0.16  194H :  0.16   66H :  0.16    9H :  0.16  555H :  0.16  156H :  0.16  527H :  0.16  657H :  0.16  162H :  0.16  638H :  0.15  165H :  0.15   20H :  0.15
  653H :  0.15  110H :  0.15  716H :  0.15  561H :  0.15  173H :  0.15  654H :  0.15  563H :  0.15  684H :  0.14  542H :  0.14  687H :  0.14  132H :  0.14  584H :  0.14
  102H :  0.14  504H :  0.14  699H :  0.14  420H :  0.14  345H :  0.14  588H :  0.14  216H :  0.14    8H :  0.14  195H :  0.13  302H :  0.13  219H :  0.13  138H :  0.13
  158H :  0.13  470H :  0.13  503H :  0.13  674H :  0.13  417H :  0.13  698H :  0.13  413H :  0.13  612H :  0.13   83H :  0.13  303H :  0.12   54H :  0.12  537H :  0.12
  465H :  0.12  512H :  0.11   93H :  0.11  170H :  0.11  264H :  0.11  224H :  0.11  356H :  0.11  246H :  0.11  533H :  0.11  243H :  0.11  383H :  0.10  738H :  0.10
  362H :  0.10  255H :  0.10   15H :  0.10   41H :  0.10  521H :  0.10  540H :  0.10   48H :  0.10  734H :  0.10  372H :  0.10  347H :  0.09   71H :  0.09  186H :  0.09
   62H :  0.09  725H :  0.09  573H :  0.09    4O :  0.09  488H :  0.09   77H :  0.09  189H :  0.09  150H :  0.08  426H :  0.08  689H :  0.08  755H :  0.08  662H :  0.08
  441H :  0.08  375H :  0.08   69H :  0.08   96H :  0.08  336H :  0.08  288H :  0.08  669H :  0.07  371H :  0.07  179H :  0.07  746H :  0.07  747H :  0.07  270H :  0.07
  378H :  0.07
    5 LP   *******   0.00  43.34616  18.99607 -11.10060  202O : 15.25  559O : 14.63  478O : 13.95   91O : 13.39  166O : 12.65  133O : 12.45  145O : 11.27   52O : 11.21   10O : 10.31  325O :  9.91  271O :  9.88   85O :  9.58
  328O :  9.33  589O :  9.05  613O :  9.05  205O :  8.77  529O :  8.52  154O :  8.19  283O :  7.92  499O :  7.68  643O :  7.49   88O :  7.44  370O :  7.32  256O :  7.24
    1O :  6.96  595O :  6.90  451O :  6.82  367O :  6.69  343O :  6.55  463O :  6.51  238O :  6.49  352O :  6.46  181O :  6.45  211O :  6.37  118O :  6.36  649O :  6.31
  331O :  6.29  616O :  6.12  418O :  6.10  481O :  6.09   58O :  6.08   40O :  5.89  124O :  5.89  136O :  5.85  490O :  5.82  445O :  5.79  709O :  5.78  751O :  5.69
  628O :  5.63  658O :  5.59  223O :  5.56  538O :  5.46  601O :  5.33  178O :  5.18   43O :  5.14  112O :  5.11  508O :  4.92  682O :  4.88  376O :  4.87  487O :  4.86
   55O :  4.81   16O :  4.72  160O :  4.72  250O :  4.70  523O :  4.65  235O :  4.57  409O :  4.54  505O :  4.52  469O :  4.48  148O :  4.45  175O :  4.43  391O :  4.41
  562O :  4.38  646O :  4.28  496O :  4.25  706O :  4.24  577O :  4.24   79O :  4.21  340O :  4.16  550O :  4.15  484O :  4.12  280O :  4.11  742O :  4.06  355O :  4.05
  199O :  4.02  187O :  3.99   70O :  3.99  553O :  3.98  265O :  3.92  511O :  3.91  274O :  3.88  184O :  3.87  397O :  3.85  430O :  3.84  733O :  3.83  568O :  3.81
  625O :  3.80  151O :  3.78   25O :  3.78  169O :  3.78  220O :  3.78  535O :  3.76  262O :  3.69  565O :  3.69  259O :  3.67  142O :  3.56  406O :  3.54  172O :  3.52
  580O :  3.50  637O :  3.48  571O :  3.45  667O :  3.34  373O :  3.30  109O :  3.25  586O :  3.17  304O :  3.12  157O :  3.07   73O :  3.06  679O :  3.04  622O :  3.04
  736O :  3.00  556O :  3.00   67O :  3.00   97O :  2.97  193O :  2.96  526O :  2.96  139O :  2.94  292O :  2.94  226O :  2.93  466O :  2.91  334O :  2.89  574O :  2.77
  208O :  2.71  700O :  2.70  247O :  2.70  727O :  2.70  163O :  2.68  703O :  2.68  448O :  2.65  661O :  2.64  190O :  2.63  424O :  2.57  454O :  2.56  196O :  2.56
  544O :  2.54   94O :  2.54  301O :  2.44  460O :  2.43  748O :  2.40  604O :  2.34  634O :  2.29   34O :  2.28  103O :  2.28  673O :  2.28   37O :  2.25  619O :  2.24
  475O :  2.23  592O :  2.23  394O :  2.14  229O :  2.14  670O :  2.07  412O :  2.06  277O :  2.03  106O :  2.00  310O :  2.00  337O :  1.99  400O :  1.97  517O :  1.95
  754O :  1.92  655O :  1.89    7O :  1.85  442O :  1.84  361O :  1.84  721O :  1.81  385O :  1.78   19O :  1.77  217O :  1.73  520O :  1.68  724O :  1.67   22O :  1.65
  502O :  1.65  319O :  1.61  421O :  1.60  346O :  1.56  244O :  1.54  433O :  1.54  688O :  1.53  676O :  1.52  272H :  1.51  631O :  1.49  712O :  1.47  100O :  1.47
  598O :  1.45  295O :  1.43  457O :  1.41   82O :  1.39  640O :  1.37   64O :  1.36  697O :  1.34  715O :  1.30  745O :  1.28  155H :  1.28  364O :  1.26  115O :  1.26
   92H :  1.25  493O :  1.25  403O :  1.24   36H :  1.17  718O :  1.17  472O :  1.16  258H :  1.14  241O :  1.14  691O :  1.13  388O :  1.13  532O :  1.11  541O :  1.09
  268O :  1.09   28O :  1.05   12H :  1.05   13O :  1.04   31O :  1.03  492H :  1.03  232O :  1.03  349O :  1.02  130O :  1.01   76O :  1.01  546H :  0.98  514O :  0.98
  214O :  0.96  275H :  0.95   49O :  0.94   46O :  0.94  610O :  0.93  377H :  0.92   11H :  0.90  636H :  0.89  583O :  0.88  498H :  0.87  447H :  0.79  530H :  0.74
  119H :  0.74  358O :  0.73  729H :  0.72   59H :  0.72  713H :  0.72  509H :  0.70  164H :  0.70  464H :  0.69  348H :  0.69  685O :  0.69   45H :  0.67  322O :  0.67
  389H :  0.67  379O :  0.67  479H :  0.67  354H :  0.66  382O :  0.66   65H :  0.66  647H :  0.64  260H :  0.64  704H :  0.63  177H :  0.63  632H :  0.61  121O :  0.59
  439O :  0.59  289O :  0.59  694O :  0.58  607O :  0.56  576H :  0.56  507H :  0.56  497H :  0.54  436O :  0.53  730O :  0.52  253O :  0.50   26H :  0.49  707H :  0.48
  739O :  0.47   61O :  0.47  222H :  0.46  645H :  0.45    3H :  0.45  690H :  0.45  267H :  0.44  432H :  0.44  735H :  0.42  263H :  0.42  558H :  0.41  522H :  0.41
  425H :  0.41  564H :  0.40  309H :  0.40  299H :  0.40  677H :  0.40   44H :  0.39  594H :  0.39  414H :  0.39   14H :  0.39   57H :  0.39  290H :  0.38  510H :  0.38
  627H :  0.38  101H :  0.38  298O :  0.38  251H :  0.38  351H :  0.38  387H :  0.37  623H :  0.37  485H :  0.37  137H :  0.37  153H :  0.37  524H :  0.36  480H :  0.36
  357H :  0.36  482H :  0.36  419H :  0.36  547O :  0.35  585H :  0.35  681H :  0.34  313O :  0.34  125H :  0.34   90H :  0.34   24H :  0.34  183H :  0.33  203H :  0.33
  316O :  0.33  750H :  0.33  664O :  0.33  318H :  0.32  127O :  0.32  282H :  0.32  659H :  0.32  116H :  0.31  227H :  0.31  644H :  0.31  207H :  0.31  468H :  0.31
  663H :  0.30  221H :  0.30  411H :  0.30  324H :  0.30  410H :  0.30  618H :  0.29  369H :  0.29  339H :  0.29  278H :  0.29  330H :  0.29  386H :  0.29  286O :  0.28
  489H :  0.28  560H :  0.28  368H :  0.28  171H :  0.27  581H :  0.27  615H :  0.26  450H :  0.26    2H :  0.26  427O :  0.26  236H :  0.26  642H :  0.26  261H :  0.26
   72H :  0.26  603H :  0.25  398H :  0.25  167H :  0.25  710H :  0.25  200H :  0.25  651H :  0.24  753H :  0.24  312H :  0.24  680H :  0.24  579H :  0.23  180H :  0.23
  333H :  0.23  652O :  0.22  626H :  0.22  641H :  0.22  656H :  0.21  477H :  0.21  486H :  0.21  609H :  0.21   35H :  0.21  192H :  0.21  435H :  0.21  491H :  0.20
  702H :  0.20  159H :  0.20   33H :  0.20  291H :  0.20  149H :  0.19  273H :  0.19  107H :  0.19  552H :  0.19  630H :  0.19  415O :  0.19  431H :  0.19  407H :  0.18
  228H :  0.18  566H :  0.18  605H :  0.17  423H :  0.17  474H :  0.17  307O :  0.17   99H :  0.17  296H :  0.17  731H :  0.17  495H :  0.17  752H :  0.17  617H :  0.17
  501H :  0.16  404H :  0.16  279H :  0.16  320H :  0.16  515H :  0.16  446H :  0.16  245H :  0.16  363H :  0.15  146H :  0.15  182H :  0.15  438H :  0.15  732H :  0.15
   75H :  0.15  194H :  0.15    9H :  0.15   66H :  0.15  555H :  0.15  156H :  0.15  527H :  0.15  657H :  0.15  162H :  0.15  638H :  0.15  165H :  0.14   20H :  0.14
  653H :  0.14  110H :  0.14  716H :  0.14  173H :  0.14  654H :  0.14  563H :  0.14  561H :  0.14   93H :  0.14  684H :  0.13  542H :  0.13  687H :  0.13  132H :  0.13
  584H :  0.13  102H :  0.13  504H :  0.13  699H :  0.13  420H :  0.13  345H :  0.13  588H :  0.13  216H :  0.13  195H :  0.13  302H :  0.13  138H :  0.13  158H :  0.13
  219H :  0.12  470H :  0.12    8H :  0.12  503H :  0.12  674H :  0.12  417H :  0.12  698H :  0.12  413H :  0.12   83H :  0.12  612H :  0.12   54H :  0.12  303H :  0.12
  537H :  0.11  465H :  0.11  512H :  0.11  170H :  0.11  264H :  0.10  224H :  0.10  356H :  0.10  246H :  0.10  533H :  0.10  243H :  0.10  383H :  0.10  738H :  0.10
  362H :  0.10  255H :  0.10   15H :  0.09   41H :  0.09  540H :  0.09  521H :  0.09   48H :  0.09  734H :  0.09  372H :  0.09  347H :  0.09   71H :  0.09   62H :  0.09
  186H :  0.08  725H :  0.08  573H :  0.08    4O :  0.08  488H :  0.08   77H :  0.08  189H :  0.08  150H :  0.08  426H :  0.08  755H :  0.08  662H :  0.08  441H :  0.08
  375H :  0.08  689H :  0.08   69H :  0.08  336H :  0.08   96H :  0.07  288H :  0.07
    6 LP   *******   0.00  44.52539  18.04991 -28.66359  202O : 14.72  559O : 14.12  133O : 13.80  478O : 13.47   91O : 12.93  145O : 10.88   52O : 10.82   10O :  9.77  166O :  9.62  325O :  9.57  271O :  9.55   85O :  9.25
  328O :  9.00  613O :  8.74  589O :  8.73  205O :  8.47  529O :  8.23  154O :  7.91  283O :  7.65  499O :  7.41   88O :  7.30  643O :  7.23  370O :  7.07  256O :  7.01
    1O :  6.72  595O :  6.66  451O :  6.58  367O :  6.46  343O :  6.33  463O :  6.28  238O :  6.26  352O :  6.23  181O :  6.23  211O :  6.15  649O :  6.09  331O :  6.08
  118O :  5.95  616O :  5.90  418O :  5.89  481O :  5.88   58O :  5.87   40O :  5.69  124O :  5.68  490O :  5.62  445O :  5.59  709O :  5.58  751O :  5.50  628O :  5.43
  658O :  5.40  223O :  5.37  136O :  5.28  538O :  5.27  601O :  5.15  178O :  5.00  112O :  4.94   43O :  4.89  508O :  4.75  682O :  4.71  376O :  4.70  487O :  4.70
   55O :  4.64  160O :  4.56   16O :  4.56  250O :  4.54  523O :  4.49  235O :  4.41  409O :  4.38  505O :  4.35  469O :  4.32  148O :  4.29  175O :  4.27  391O :  4.26
  562O :  4.22  646O :  4.13  496O :  4.11  577O :  4.09  706O :  4.09   79O :  4.07  340O :  4.02  550O :  4.00  484O :  3.98  280O :  3.97  742O :  3.92  355O :  3.91
  199O :  3.86  187O :  3.86   70O :  3.85  553O :  3.84  265O :  3.79  511O :  3.78  274O :  3.75  184O :  3.74  397O :  3.72  430O :  3.71  733O :  3.70  568O :  3.68
  625O :  3.68  151O :  3.65  169O :  3.65   25O :  3.64  220O :  3.64  535O :  3.63  262O :  3.56  565O :  3.56  259O :  3.55  142O :  3.44  406O :  3.42  172O :  3.40
  580O :  3.39  637O :  3.36  571O :  3.33  667O :  3.22  373O :  3.18  109O :  3.12  586O :  3.06  304O :  3.01  157O :  2.96   73O :  2.95  679O :  2.94  622O :  2.93
  736O :  2.90  556O :  2.89   67O :  2.89   97O :  2.86  193O :  2.86  526O :  2.86  139O :  2.84  292O :  2.83  226O :  2.83  466O :  2.82  334O :  2.79  574O :  2.67
  700O :  2.62  208O :  2.61  247O :  2.61  727O :  2.60  163O :  2.59  703O :  2.59  448O :  2.56  661O :  2.55  190O :  2.54  424O :  2.48  454O :  2.47  196O :  2.47
  301O :  2.46  544O :  2.45   94O :  2.45  460O :  2.34  748O :  2.32  103O :  2.29  604O :  2.25  634O :  2.21   34O :  2.21  673O :  2.20   37O :  2.18  619O :  2.16
  592O :  2.15  475O :  2.15  394O :  2.08  229O :  2.06  670O :  2.00  412O :  1.98  277O :  1.97  106O :  1.93  310O :  1.93  337O :  1.92  400O :  1.90  517O :  1.88
  754O :  1.86  655O :  1.82    7O :  1.81  442O :  1.78  361O :  1.77  721O :  1.73  385O :  1.72   19O :  1.71  217O :  1.67  520O :  1.62  724O :  1.61   22O :  1.59
  502O :  1.59  319O :  1.56  688O :  1.56  421O :  1.54  346O :  1.51  244O :  1.49  433O :  1.49  272H :  1.48  676O :  1.48  631O :  1.44  712O :  1.42  100O :  1.42
  598O :  1.40  295O :  1.38  457O :  1.36   82O :  1.33  640O :  1.32   64O :  1.31  697O :  1.29  715O :  1.25  745O :  1.24  155H :  1.23  364O :  1.22  115O :  1.21
   92H :  1.21  493O :  1.20  403O :  1.20   36H :  1.13  718O :  1.13  472O :  1.12  258H :  1.11  241O :  1.10  691O :  1.09  388O :  1.09  532O :  1.07  541O :  1.06
  268O :  1.05   28O :  1.01   13O :  1.00  492H :  1.00   31O :  1.00  232O :  0.99  349O :  0.99  130O :  0.98   76O :  0.98   12H :  0.96  546H :  0.95  514O :  0.94
  214O :  0.92  275H :  0.92   49O :  0.91   46O :  0.91  610O :  0.90  377H :  0.89  636H :  0.86  583O :  0.85  498H :  0.84   11H :  0.83  447H :  0.76  530H :  0.72
  358O :  0.70  119H :  0.70  729H :  0.70   59H :  0.69  713H :  0.69  509H :  0.68  164H :  0.68  464H :  0.67  348H :  0.67  685O :  0.66  322O :  0.65  389H :  0.65
  379O :  0.65  479H :  0.64  354H :  0.64  382O :  0.64   65H :  0.63  647H :  0.62   45H :  0.62  260H :  0.62  704H :  0.61  177H :  0.61  632H :  0.59  439O :  0.57
  121O :  0.57  289O :  0.57  694O :  0.56  607O :  0.54  576H :  0.54  507H :  0.54  497H :  0.52  436O :  0.51  730O :  0.50  253O :  0.48   26H :  0.47  707H :  0.46
  739O :  0.46   61O :  0.45  222H :  0.44  690H :  0.44    3H :  0.44  645H :  0.44  267H :  0.43  432H :  0.42  735H :  0.41  558H :  0.40  263H :  0.40  522H :  0.40
  425H :  0.40   44H :  0.40  564H :  0.39  309H :  0.39  299H :  0.39  677H :  0.38  594H :  0.37  414H :  0.37   14H :  0.37   57H :  0.37  290H :  0.37  510H :  0.37
  627H :  0.37  298O :  0.37  101H :  0.37  251H :  0.37  351H :  0.37  137H :  0.36  387H :  0.36  623H :  0.36  485H :  0.36  153H :  0.35  524H :  0.35  480H :  0.35
  357H :  0.35  482H :  0.35  419H :  0.34  547O :  0.34   90H :  0.33  585H :  0.33  681H :  0.33  313O :  0.33  125H :  0.32   24H :  0.32  183H :  0.32  203H :  0.32
  316O :  0.32  167H :  0.32  664O :  0.32  750H :  0.32  318H :  0.31  127O :  0.31  282H :  0.31  659H :  0.31  116H :  0.30  227H :  0.30  644H :  0.30  207H :  0.30
  468H :  0.29  663H :  0.29  221H :  0.29  411H :  0.29  324H :  0.29  410H :  0.29  618H :  0.28  369H :  0.28  278H :  0.28  339H :  0.28  330H :  0.28  386H :  0.28
  286O :  0.27  489H :  0.27  560H :  0.27  368H :  0.27  171H :  0.26  581H :  0.26  615H :  0.26  450H :  0.25    2H :  0.25  236H :  0.25  427O :  0.25  642H :  0.25
  261H :  0.25   72H :  0.25  603H :  0.24  398H :  0.24  710H :  0.24  651H :  0.24  200H :  0.24  753H :  0.23  312H :  0.23  680H :  0.23  579H :  0.23  180H :  0.23
  333H :  0.22  652O :  0.22  626H :  0.21  641H :  0.21  656H :  0.21  477H :  0.20  486H :  0.20  609H :  0.20   35H :  0.20  192H :  0.20  435H :  0.20  491H :  0.19
  702H :  0.19  159H :  0.19   33H :  0.19  291H :  0.19  149H :  0.19  107H :  0.19  552H :  0.19  273H :  0.18  630H :  0.18  415O :  0.18  431H :  0.18  407H :  0.18
  228H :  0.18  566H :  0.17  605H :  0.17  423H :  0.17  474H :  0.17  307O :  0.17   99H :  0.17  296H :  0.16  731H :  0.16  752H :  0.16  617H :  0.16  495H :  0.16
  501H :  0.16  279H :  0.16  404H :  0.16  320H :  0.15  515H :  0.15  446H :  0.15  245H :  0.15  363H :  0.15  146H :  0.15  182H :  0.15  438H :  0.15   75H :  0.15
  732H :  0.15  194H :  0.15   66H :  0.15  555H :  0.15  156H :  0.15  527H :  0.14  657H :  0.14    9H :  0.14  162H :  0.14  638H :  0.14  165H :  0.14   20H :  0.14
  653H :  0.14  110H :  0.14  716H :  0.14  173H :  0.14  654H :  0.14  563H :  0.14  561H :  0.13   93H :  0.13  684H :  0.13  542H :  0.13  687H :  0.13  132H :  0.13
  584H :  0.13  102H :  0.13  504H :  0.13  699H :  0.13  420H :  0.13  345H :  0.13  302H :  0.12  588H :  0.12  216H :  0.12  195H :  0.12  219H :  0.12  158H :  0.12
    8H :  0.12  470H :  0.12  503H :  0.12  698H :  0.12  674H :  0.12  417H :  0.12  303H :  0.12  413H :  0.12  612H :  0.11   83H :  0.11   54H :  0.11  537H :  0.11
  465H :  0.11  512H :  0.10  170H :  0.10  224H :  0.10  356H :  0.10  264H :  0.10  246H :  0.10  533H :  0.10  243H :  0.10  383H :  0.10  738H :  0.09  362H :  0.09
  255H :  0.09   15H :  0.09   41H :  0.09  521H :  0.09  540H :  0.09   48H :  0.09  734H :  0.09  372H :  0.09  347H :  0.08   71H :  0.08   62H :  0.08  186H :  0.08
  725H :  0.08  573H :  0.08    4O :  0.08  488H :  0.08   77H :  0.08  189H :  0.08  150H :  0.08  426H :  0.08  689H :  0.08  755H :  0.08  662H :  0.08  441H :  0.07
  375H :  0.07   69H :  0.07  336H :  0.07   96H :  0.07
    7 LP   *******   0.00  78.60270  30.93175  11.92877  202O : 13.71  559O : 13.15  478O : 12.54   91O : 12.04  133O : 11.17  145O : 10.13   52O : 10.08  613O :  9.95   10O :  9.08  166O :  9.05  325O :  8.91  271O :  8.88
   85O :  8.61  328O :  8.38  589O :  8.13  205O :  7.88  529O :  7.66  154O :  7.37  283O :  7.12  499O :  6.90   88O :  6.80  643O :  6.73  370O :  6.58  256O :  6.52
    1O :  6.26  595O :  6.20  451O :  6.13  367O :  6.01  343O :  5.89  463O :  5.85  238O :  5.83  352O :  5.80  181O :  5.80  211O :  5.72  118O :  5.68  649O :  5.67
  331O :  5.66  418O :  5.49  481O :  5.47   58O :  5.46  616O :  5.42   40O :  5.29  124O :  5.29  136O :  5.28  490O :  5.23  445O :  5.21  709O :  5.19  751O :  5.12
  628O :  5.06  658O :  5.03  223O :  5.00  538O :  4.90  601O :  4.79  178O :  4.65  112O :  4.60   43O :  4.53  508O :  4.42  682O :  4.39  376O :  4.38  487O :  4.37
   55O :  4.32  160O :  4.24   16O :  4.24  250O :  4.23  523O :  4.18  235O :  4.10  409O :  4.08  505O :  4.06  469O :  4.02  148O :  4.00  175O :  3.98  391O :  3.96
  562O :  3.93  646O :  3.85  496O :  3.82  706O :  3.81  577O :  3.81   79O :  3.79  340O :  3.74  550O :  3.73  484O :  3.70  280O :  3.70  742O :  3.65  355O :  3.64
  199O :  3.59  187O :  3.59   70O :  3.58  553O :  3.57  265O :  3.52  511O :  3.52  274O :  3.49  184O :  3.48  397O :  3.46  430O :  3.46  733O :  3.44  568O :  3.42
  625O :  3.42   25O :  3.39  169O :  3.39  151O :  3.39  220O :  3.39  535O :  3.38  262O :  3.32  565O :  3.32  259O :  3.30  142O :  3.20  580O :  3.19  406O :  3.19
  172O :  3.16  637O :  3.12  571O :  3.10  667O :  3.00  373O :  2.97  109O :  2.92  586O :  2.85  304O :  2.80  157O :  2.75   73O :  2.75  679O :  2.74  622O :  2.73
  736O :  2.70  556O :  2.69   67O :  2.69   97O :  2.67  193O :  2.66  526O :  2.66  139O :  2.64  292O :  2.64  226O :  2.63  466O :  2.62  334O :  2.60  574O :  2.49
  700O :  2.43  208O :  2.43  247O :  2.43  727O :  2.43  163O :  2.41  703O :  2.41  448O :  2.38  661O :  2.37  190O :  2.36  424O :  2.31  454O :  2.30  196O :  2.30
  544O :  2.28   94O :  2.28  301O :  2.18  460O :  2.18  748O :  2.16  103O :  2.12  604O :  2.09  634O :  2.06   34O :  2.05  673O :  2.05   37O :  2.03  619O :  2.02
  592O :  2.00  475O :  2.00  394O :  1.93  229O :  1.92  670O :  1.86  412O :  1.85  277O :  1.83  106O :  1.80  310O :  1.79  337O :  1.79  400O :  1.77  517O :  1.75
  754O :  1.73  655O :  1.69    7O :  1.66  442O :  1.66  361O :  1.65  721O :  1.62  385O :  1.60   19O :  1.60  217O :  1.54  520O :  1.51  724O :  1.50   22O :  1.48
  502O :  1.48  319O :  1.45  421O :  1.44  688O :  1.43  346O :  1.41  244O :  1.39  433O :  1.38  272H :  1.38  676O :  1.36  631O :  1.34  712O :  1.32  100O :  1.32
  598O :  1.30  457O :  1.26   82O :  1.25  640O :  1.23   64O :  1.22  295O :  1.21  697O :  1.20  715O :  1.17  745O :  1.15  155H :  1.15  364O :  1.13  115O :  1.13
   92H :  1.13  493O :  1.13  403O :  1.11   36H :  1.05  718O :  1.05  472O :  1.04  258H :  1.03  241O :  1.02  691O :  1.02  388O :  1.02  532O :  0.99  541O :  0.98
  268O :  0.98   28O :  0.94   13O :  0.93  492H :  0.93   31O :  0.93  232O :  0.92  349O :  0.92  130O :  0.91   76O :  0.91   12H :  0.90  546H :  0.88  514O :  0.88
  214O :  0.86  275H :  0.85   49O :  0.85   46O :  0.85  610O :  0.84  377H :  0.83  636H :  0.80  583O :  0.79  498H :  0.78   11H :  0.78  447H :  0.71  530H :  0.67
  119H :  0.66  358O :  0.65  729H :  0.65   59H :  0.65  713H :  0.64  509H :  0.63  164H :  0.63  464H :  0.62  348H :  0.62  685O :  0.62  322O :  0.60  389H :  0.60
  379O :  0.60  479H :  0.60  354H :  0.60  382O :  0.59   65H :  0.59   45H :  0.58  647H :  0.58  260H :  0.58  704H :  0.57  177H :  0.56  632H :  0.54  121O :  0.53
  289O :  0.53  439O :  0.53  694O :  0.52  576H :  0.50  507H :  0.50  497H :  0.48  436O :  0.48  607O :  0.47  730O :  0.47  253O :  0.45   26H :  0.44  707H :  0.43
  739O :  0.42   61O :  0.42  222H :  0.41  690H :  0.41    3H :  0.41  645H :  0.41  267H :  0.40  432H :  0.39  735H :  0.38  263H :  0.37  558H :  0.37  522H :  0.37
  425H :  0.37  564H :  0.36  309H :  0.36  299H :  0.36  677H :  0.36  594H :  0.35  414H :  0.35   14H :  0.35   57H :  0.35  290H :  0.35  510H :  0.35   44H :  0.34
  298O :  0.34  101H :  0.34  627H :  0.34  251H :  0.34  351H :  0.34  387H :  0.33  623H :  0.33  485H :  0.33  137H :  0.33  153H :  0.33  524H :  0.33  480H :  0.33
  357H :  0.32  482H :  0.32  419H :  0.32  547O :  0.32   90H :  0.31  585H :  0.31  681H :  0.31  313O :  0.31  125H :  0.31   24H :  0.30  183H :  0.30  203H :  0.30
  316O :  0.30  750H :  0.29  664O :  0.29  318H :  0.29  127O :  0.29  167H :  0.29  282H :  0.29  659H :  0.28  116H :  0.28  227H :  0.28  644H :  0.28  207H :  0.28
  468H :  0.27  221H :  0.27  663H :  0.27  411H :  0.27  324H :  0.27  410H :  0.27  369H :  0.26  278H :  0.26  339H :  0.26  330H :  0.26  386H :  0.26  618H :  0.26
  286O :  0.25  489H :  0.25  560H :  0.25  368H :  0.25  171H :  0.25  581H :  0.24  450H :  0.24    2H :  0.23  236H :  0.23  427O :  0.23  642H :  0.23  261H :  0.23
   72H :  0.23  603H :  0.23  398H :  0.23  710H :  0.22  651H :  0.22  200H :  0.22  753H :  0.22  312H :  0.21  680H :  0.21  579H :  0.21  180H :  0.21  333H :  0.21
  652O :  0.20  656H :  0.20  626H :  0.20  641H :  0.20  477H :  0.19  486H :  0.19  192H :  0.18   35H :  0.18  435H :  0.18  609H :  0.18  491H :  0.18  702H :  0.18
  615H :  0.18  159H :  0.18   33H :  0.18  291H :  0.18  149H :  0.18  107H :  0.17  552H :  0.17  630H :  0.17  273H :  0.17  431H :  0.17  407H :  0.16  415O :  0.16
  228H :  0.16  566H :  0.16  423H :  0.16  605H :  0.16  474H :  0.15  307O :  0.15   99H :  0.15  731H :  0.15  495H :  0.15  752H :  0.15  501H :  0.15  279H :  0.15
  617H :  0.15  404H :  0.15  320H :  0.14  296H :  0.14  515H :  0.14  446H :  0.14  245H :  0.14  363H :  0.14  146H :  0.14  182H :  0.14  438H :  0.14   75H :  0.14
  732H :  0.14  194H :  0.14    9H :  0.14   66H :  0.14  657H :  0.14  555H :  0.14  156H :  0.14  527H :  0.13  162H :  0.13  165H :  0.13   20H :  0.13  653H :  0.13
  110H :  0.13  638H :  0.13  716H :  0.13  173H :  0.13  654H :  0.13  563H :  0.13  561H :  0.12   93H :  0.12  684H :  0.12  542H :  0.12  687H :  0.12  132H :  0.12
  584H :  0.12  102H :  0.12  504H :  0.12  699H :  0.12  420H :  0.12  345H :  0.12  588H :  0.12  216H :  0.12    8H :  0.12  195H :  0.11  302H :  0.11  219H :  0.11
  138H :  0.11  158H :  0.11  470H :  0.11  503H :  0.11  674H :  0.11  417H :  0.11  698H :  0.11  413H :  0.11  612H :  0.11   83H :  0.11   54H :  0.10  303H :  0.10
  537H :  0.10  465H :  0.10  512H :  0.10  170H :  0.09  264H :  0.09  224H :  0.09  356H :  0.09  246H :  0.09  533H :  0.09  243H :  0.09  383H :  0.09  738H :  0.09
  362H :  0.09  255H :  0.09   15H :  0.08   41H :  0.08  540H :  0.08  521H :  0.08   48H :  0.08  734H :  0.08  372H :  0.08  347H :  0.08   71H :  0.08   62H :  0.08
  186H :  0.08  725H :  0.08  573H :  0.08    4O :  0.08  488H :  0.07   77H :  0.07  189H :  0.07  150H :  0.07  426H :  0.07  689H :  0.07  755H :  0.07
    8 LP   *******   0.00   5.20320 -14.76501  -0.22549  478O : 13.83  202O : 13.37  559O : 12.82   91O : 11.73  133O : 10.89  145O :  9.87   52O :  9.82   10O :  8.85  166O :  8.83  325O :  8.69  271O :  8.66   85O :  8.40
  328O :  8.17  589O :  7.93  613O :  7.93  205O :  7.69  529O :  7.47  154O :  7.18  283O :  6.94  499O :  6.73   88O :  6.63  643O :  6.56  370O :  6.42  256O :  6.35
    1O :  6.09  595O :  6.05  451O :  5.98  367O :  5.86  343O :  5.74  463O :  5.70  238O :  5.68  352O :  5.66  181O :  5.65  211O :  5.58  118O :  5.54  649O :  5.53
  331O :  5.52  616O :  5.35  418O :  5.35  481O :  5.34   58O :  5.32   40O :  5.16  124O :  5.16  136O :  5.15  490O :  5.11  445O :  5.07  709O :  5.06  751O :  4.99
  658O :  4.90  223O :  4.87  538O :  4.78  628O :  4.76  601O :  4.67  178O :  4.54  112O :  4.48   43O :  4.41  508O :  4.31  682O :  4.28  376O :  4.27  487O :  4.27
   55O :  4.21  160O :  4.14   16O :  4.14  250O :  4.12  523O :  4.08  235O :  4.00  409O :  3.98  505O :  3.96  469O :  3.92  148O :  3.90  175O :  3.88  391O :  3.86
  562O :  3.84  646O :  3.75  496O :  3.73  577O :  3.71  706O :  3.71   79O :  3.69  340O :  3.65  550O :  3.63  484O :  3.61  280O :  3.60  742O :  3.56  355O :  3.55
  199O :  3.50  187O :  3.50   70O :  3.49  553O :  3.48  265O :  3.43  511O :  3.43  274O :  3.40  184O :  3.39  397O :  3.38  430O :  3.37  733O :  3.35  568O :  3.34
  625O :  3.33   25O :  3.31  169O :  3.31  220O :  3.31  535O :  3.29  151O :  3.28  262O :  3.24  565O :  3.23  259O :  3.22  142O :  3.12  406O :  3.10  172O :  3.08
  580O :  3.07  637O :  3.05  571O :  3.02  667O :  2.93  373O :  2.89  109O :  2.84  586O :  2.78  304O :  2.73  157O :  2.69   73O :  2.68  679O :  2.67  622O :  2.66
  736O :  2.63  556O :  2.63   67O :  2.63   97O :  2.60  193O :  2.60  526O :  2.60  139O :  2.58  292O :  2.57  226O :  2.57  466O :  2.56  334O :  2.54  574O :  2.43
  700O :  2.37  208O :  2.37  727O :  2.37  247O :  2.37  163O :  2.35  703O :  2.35  448O :  2.32  661O :  2.31  190O :  2.31  424O :  2.25  454O :  2.24  196O :  2.24
  544O :  2.22   94O :  2.22  301O :  2.13  460O :  2.13  748O :  2.10  103O :  2.07  604O :  2.05  634O :  2.00   34O :  2.00  673O :  2.00   37O :  1.97  619O :  1.96
  592O :  1.95  475O :  1.95  394O :  1.88  229O :  1.87  670O :  1.82  412O :  1.80  277O :  1.79  400O :  1.79  106O :  1.75  310O :  1.75  337O :  1.74  517O :  1.71
  754O :  1.69  655O :  1.65    7O :  1.62  442O :  1.62  361O :  1.61  721O :  1.57  385O :  1.56   19O :  1.56  217O :  1.50  520O :  1.47  724O :  1.46   22O :  1.45
  502O :  1.44  319O :  1.41  688O :  1.41  421O :  1.40  346O :  1.37  244O :  1.35  433O :  1.35  272H :  1.35  676O :  1.32  631O :  1.31  712O :  1.29  100O :  1.29
  598O :  1.27  295O :  1.26  457O :  1.23   82O :  1.21  640O :  1.20   64O :  1.19  697O :  1.17  715O :  1.14  745O :  1.13  155H :  1.12  364O :  1.10  115O :  1.10
   92H :  1.10  493O :  1.10  403O :  1.09   36H :  1.03  718O :  1.02  472O :  1.02  258H :  1.00  241O :  0.99  691O :  0.99  388O :  0.99  532O :  0.97  541O :  0.96
  268O :  0.95  514O :  0.94   28O :  0.92   13O :  0.91   31O :  0.90  492H :  0.90  232O :  0.90  349O :  0.90  130O :  0.89   76O :  0.89   12H :  0.87  546H :  0.86
  214O :  0.84  275H :  0.83   49O :  0.83   46O :  0.83  610O :  0.81  377H :  0.81  636H :  0.78  583O :  0.77  498H :  0.76   11H :  0.76  447H :  0.69  530H :  0.65
  119H :  0.64  358O :  0.64  729H :  0.63   59H :  0.63  713H :  0.63  509H :  0.62  164H :  0.61  464H :  0.61  348H :  0.60  685O :  0.60  322O :  0.59  389H :  0.59
  379O :  0.59  354H :  0.58  382O :  0.58   65H :  0.58   45H :  0.57  647H :  0.56  260H :  0.56  704H :  0.55  177H :  0.55  121O :  0.54  632H :  0.53  289O :  0.52
  439O :  0.52  694O :  0.51  479H :  0.50  607O :  0.49  576H :  0.49  507H :  0.49  497H :  0.47  436O :  0.47  730O :  0.46  253O :  0.44   26H :  0.43  707H :  0.42
  739O :  0.41   61O :  0.41  222H :  0.40  690H :  0.40  645H :  0.40    3H :  0.40  267H :  0.39  432H :  0.38  480H :  0.38  735H :  0.37  263H :  0.36  558H :  0.36
  522H :  0.36  425H :  0.36  564H :  0.35  309H :  0.35  299H :  0.35  677H :  0.35  594H :  0.34  414H :  0.34   14H :  0.34   57H :  0.34  290H :  0.34  510H :  0.34
  627H :  0.34   44H :  0.34  298O :  0.34  101H :  0.34  251H :  0.33  351H :  0.33  387H :  0.33  623H :  0.33  485H :  0.32  137H :  0.32  524H :  0.32  357H :  0.32
  153H :  0.32  482H :  0.32  419H :  0.31  547O :  0.31   90H :  0.30  585H :  0.30  681H :  0.30  313O :  0.30  125H :  0.30   24H :  0.29  183H :  0.29  203H :  0.29
  316O :  0.29  750H :  0.29  664O :  0.29  318H :  0.28  127O :  0.28  167H :  0.28  282H :  0.28  659H :  0.28  116H :  0.28  227H :  0.27  644H :  0.27  207H :  0.27
  468H :  0.27  663H :  0.26  221H :  0.26  411H :  0.26  324H :  0.26  410H :  0.26  369H :  0.26  618H :  0.26  278H :  0.25  339H :  0.25  330H :  0.25  386H :  0.25
  286O :  0.25  489H :  0.25  560H :  0.24  368H :  0.24  171H :  0.24  581H :  0.23  615H :  0.23  450H :  0.23    2H :  0.23  236H :  0.23  261H :  0.22  427O :  0.22
   72H :  0.22  642H :  0.22  603H :  0.22  398H :  0.22  710H :  0.22  651H :  0.21  200H :  0.21  753H :  0.21  312H :  0.21  680H :  0.21  579H :  0.21  180H :  0.20
  515H :  0.20  333H :  0.20  652O :  0.20  626H :  0.19  641H :  0.19  656H :  0.19  477H :  0.18  486H :  0.18  609H :  0.18   35H :  0.18  192H :  0.18  435H :  0.18
  491H :  0.18  702H :  0.18  159H :  0.17   33H :  0.17  291H :  0.17  149H :  0.17  630H :  0.17  107H :  0.17  552H :  0.17  415O :  0.16  273H :  0.16  431H :  0.16
  228H :  0.16  407H :  0.16  566H :  0.15  605H :  0.15  423H :  0.15  474H :  0.15   99H :  0.15  307O :  0.15  296H :  0.15  731H :  0.15  495H :  0.15  752H :  0.15
  617H :  0.15  501H :  0.14  279H :  0.14  404H :  0.14  320H :  0.14  446H :  0.14  245H :  0.14  363H :  0.14  146H :  0.14  182H :  0.13  438H :  0.13  732H :  0.13
   75H :  0.13  194H :  0.13    9H :  0.13   66H :  0.13  555H :  0.13  156H :  0.13  527H :  0.13  657H :  0.13  162H :  0.13  638H :  0.13  165H :  0.13   20H :  0.13
  653H :  0.12  110H :  0.12  716H :  0.12  173H :  0.12  654H :  0.12  563H :  0.12  561H :  0.12   93H :  0.12  684H :  0.12  542H :  0.12  687H :  0.12  132H :  0.12
  584H :  0.12  102H :  0.12  504H :  0.12  699H :  0.11  420H :  0.11  345H :  0.11  588H :  0.11  216H :  0.11    8H :  0.11  195H :  0.11  302H :  0.11  219H :  0.11
  138H :  0.11  158H :  0.11  470H :  0.11  503H :  0.11  674H :  0.11  417H :  0.11  698H :  0.11  413H :  0.10  612H :  0.10   83H :  0.10   54H :  0.10  303H :  0.10
  537H :  0.10  465H :  0.10  512H :  0.09  170H :  0.09  264H :  0.09  224H :  0.09  356H :  0.09  246H :  0.09  533H :  0.09  243H :  0.09  383H :  0.09  738H :  0.09
  362H :  0.09  255H :  0.08   15H :  0.08   41H :  0.08  540H :  0.08  521H :  0.08   48H :  0.08  734H :  0.08  372H :  0.08  347H :  0.08   71H :  0.07   62H :  0.07
  186H :  0.07  725H :  0.07  573H :  0.07  488H :  0.07   77H :  0.07    4O :  0.07  189H :  0.07
    9 LP   *******   0.00 -41.17320  -2.90269 -20.73111  202O : 12.66  559O : 12.14  478O : 11.58   91O : 11.11  133O : 10.31   85O : 10.18  145O :  9.35   52O :  9.27   10O :  8.39  166O :  8.36  325O :  8.23  271O :  8.21
  328O :  7.74  589O :  7.51  613O :  7.51  205O :  7.28  529O :  7.08  154O :  6.80  283O :  6.48  499O :  6.37   88O :  6.28  643O :  6.22  370O :  6.08  256O :  6.02
    1O :  5.78  595O :  5.73  451O :  5.66  367O :  5.55  343O :  5.44  463O :  5.40  238O :  5.38  352O :  5.36  181O :  5.35  211O :  5.28  118O :  5.25  649O :  5.24
  331O :  5.23  481O :  5.07  616O :  5.07  418O :  5.07   58O :  5.04   40O :  4.89  124O :  4.89  136O :  4.88  490O :  4.83  445O :  4.81  709O :  4.80  751O :  4.72
  628O :  4.67  658O :  4.64  223O :  4.61  538O :  4.53  601O :  4.43  178O :  4.26  112O :  4.25   43O :  4.18  508O :  4.09  682O :  4.05  376O :  4.04  487O :  4.04
   55O :  3.99  160O :  3.92  250O :  3.90   16O :  3.87  523O :  3.86  235O :  3.78  409O :  3.77  505O :  3.75  469O :  3.71  148O :  3.69  175O :  3.68  391O :  3.66
  562O :  3.64  646O :  3.55  496O :  3.53  577O :  3.52  706O :  3.52   79O :  3.50  340O :  3.45  550O :  3.44  484O :  3.42  280O :  3.41  742O :  3.37  355O :  3.36
  199O :  3.32  187O :  3.32   70O :  3.30  553O :  3.30  265O :  3.25  511O :  3.25  274O :  3.22  184O :  3.21  397O :  3.19  430O :  3.19  733O :  3.18  568O :  3.16
  625O :  3.16   25O :  3.13  169O :  3.13  151O :  3.13  220O :  3.13  535O :  3.12  262O :  3.07  565O :  3.06  259O :  3.05  142O :  2.95  406O :  2.94  172O :  2.92
  580O :  2.91  637O :  2.89  571O :  2.86  667O :  2.77  373O :  2.74  109O :  2.69  586O :  2.63  304O :  2.59  157O :  2.54   73O :  2.54  679O :  2.53  622O :  2.52
  736O :  2.49  556O :  2.48   67O :  2.48   97O :  2.46  193O :  2.46  526O :  2.46  139O :  2.44  292O :  2.44  226O :  2.43  466O :  2.42  334O :  2.40  574O :  2.30
  700O :  2.25  208O :  2.25  247O :  2.24  727O :  2.24  163O :  2.23  703O :  2.22  448O :  2.20  661O :  2.19  190O :  2.18  424O :  2.13  454O :  2.12  544O :  2.11
   94O :  2.10  196O :  2.10  301O :  2.02  460O :  2.01  748O :  1.99  103O :  1.96  604O :  1.94  634O :  1.90   34O :  1.90  673O :  1.89   37O :  1.87  619O :  1.86
  592O :  1.85  475O :  1.84  394O :  1.78  229O :  1.77  670O :  1.72  412O :  1.70  277O :  1.70  106O :  1.67  310O :  1.66  337O :  1.65  400O :  1.63  517O :  1.62
  754O :  1.60  655O :  1.57    7O :  1.54  442O :  1.53  361O :  1.53  721O :  1.49  385O :  1.48   19O :  1.47  217O :  1.42  520O :  1.40  724O :  1.39   22O :  1.37
  502O :  1.37  319O :  1.34  688O :  1.34  421O :  1.33  346O :  1.30  433O :  1.28  272H :  1.28  244O :  1.27  676O :  1.25  631O :  1.24  712O :  1.22  100O :  1.22
  598O :  1.20  295O :  1.19  457O :  1.17   82O :  1.15  640O :  1.13   64O :  1.13  697O :  1.11  715O :  1.08  745O :  1.07  155H :  1.06  364O :  1.05  115O :  1.04
   92H :  1.04  493O :  1.04  403O :  1.03   36H :  0.97  718O :  0.97  472O :  0.96  258H :  0.95  241O :  0.94  691O :  0.94  388O :  0.94  532O :  0.92  541O :  0.91
  268O :  0.90   28O :  0.87   13O :  0.86  492H :  0.86   31O :  0.86  232O :  0.85  349O :  0.85  130O :  0.84   76O :  0.84   12H :  0.83  546H :  0.81  514O :  0.81
  214O :  0.80  275H :  0.79   46O :  0.78   49O :  0.78  610O :  0.77  377H :  0.77  636H :  0.74  583O :  0.73  498H :  0.72   11H :  0.72  447H :  0.65  530H :  0.62
  119H :  0.61  358O :  0.60  729H :  0.60   59H :  0.60  713H :  0.59  509H :  0.58  164H :  0.58  464H :  0.58  348H :  0.57  685O :  0.57  322O :  0.56  389H :  0.56
  379O :  0.55  479H :  0.55  354H :  0.55  382O :  0.55   65H :  0.54   45H :  0.54  647H :  0.53  260H :  0.53  704H :  0.52  177H :  0.52  632H :  0.50  121O :  0.49
  289O :  0.49  439O :  0.49  694O :  0.48  607O :  0.47  576H :  0.46  507H :  0.46  497H :  0.45  436O :  0.44  730O :  0.43  253O :  0.42   26H :  0.41  707H :  0.40
  739O :  0.39   61O :  0.39  222H :  0.38  690H :  0.38    3H :  0.38  645H :  0.38  267H :  0.37  432H :  0.36  735H :  0.35  263H :  0.34  558H :  0.34  522H :  0.34
  425H :  0.34  564H :  0.34  309H :  0.33  299H :  0.33  677H :  0.33  414H :  0.32  594H :  0.32   14H :  0.32   57H :  0.32  290H :  0.32  510H :  0.32  298O :  0.32
  627H :  0.32   44H :  0.32  101H :  0.32  351H :  0.32  251H :  0.32  387H :  0.31  623H :  0.31  485H :  0.31  137H :  0.30  153H :  0.30  524H :  0.30  480H :  0.30
  357H :  0.30  482H :  0.30  419H :  0.30  547O :  0.29   90H :  0.29  585H :  0.29  681H :  0.29  125H :  0.28  313O :  0.28   24H :  0.28  183H :  0.28  203H :  0.28
  316O :  0.27  664O :  0.27  750H :  0.27  318H :  0.27  127O :  0.27  167H :  0.27  282H :  0.26  659H :  0.26  116H :  0.26  227H :  0.26  644H :  0.26  207H :  0.25
  468H :  0.25  663H :  0.25  221H :  0.25  411H :  0.25  324H :  0.25  410H :  0.25  369H :  0.24  618H :  0.24  278H :  0.24  339H :  0.24  286O :  0.24  330H :  0.24
  386H :  0.24  489H :  0.23  560H :  0.23  368H :  0.23  171H :  0.23  581H :  0.22  615H :  0.22  450H :  0.22    2H :  0.22  427O :  0.21  236H :  0.21  642H :  0.21
  261H :  0.21   72H :  0.21  603H :  0.21  398H :  0.21  710H :  0.21  651H :  0.20  200H :  0.20  753H :  0.20  312H :  0.20  680H :  0.20  579H :  0.19  180H :  0.19
  333H :  0.19  652O :  0.19  626H :  0.18  641H :  0.18  656H :  0.18  477H :  0.17  486H :  0.17  609H :  0.17  192H :  0.17   35H :  0.17  435H :  0.17  491H :  0.17
  702H :  0.17  159H :  0.16   33H :  0.16  291H :  0.16  149H :  0.16  107H :  0.16  552H :  0.16  630H :  0.16  273H :  0.16  415O :  0.16  431H :  0.16  407H :  0.15
  228H :  0.15  566H :  0.15  605H :  0.15  423H :  0.14  474H :  0.14  307O :  0.14   99H :  0.14  296H :  0.14  731H :  0.14  495H :  0.14  752H :  0.14  617H :  0.14
  501H :  0.14  279H :  0.14  404H :  0.14  320H :  0.13  515H :  0.13  446H :  0.13  438H :  0.13  245H :  0.13  363H :  0.13  146H :  0.13  182H :  0.13   75H :  0.13
  732H :  0.13  194H :  0.13   66H :  0.13    9H :  0.13  156H :  0.13  555H :  0.13  527H :  0.12  657H :  0.12  162H :  0.12  638H :  0.12  165H :  0.12   20H :  0.12
[...]
   369   1 h    0.888 --   367 o    0.827
   370   8 o    1.832 --   372 h    0.818   371 h    0.803
   371   1 h    0.874 --   370 o    0.803
   372   1 h    0.886 --   370 o    0.818
   373   8 o    1.839 --   374 h    0.870   375 h    0.821
   374   1 h    0.898 --   373 o    0.870
   375   1 h    0.886 --   373 o    0.821
   376   8 o    1.868 --   377 h    0.833   378 h    0.799
   377   1 h    0.881 --   376 o    0.833
   378   1 h    0.876 --   376 o    0.799
   379   8 o    1.862 --   381 h    0.869   380 h    0.808
   380   1 h    0.885 --   379 o    0.808
   381   1 h    0.899 --   379 o    0.869
   382   8 o    1.849 --   383 h    0.867   384 h    0.866
   383   1 h    0.897 --   382 o    0.867
   384   1 h    0.890 --   382 o    0.866
   385   8 o    1.853 --   386 h    0.895   387 h    0.850
   386   1 h    0.904 --   385 o    0.895
   387   1 h    0.886 --   385 o    0.850
   388   8 o    1.837 --   390 h    0.839   389 h    0.757
   389   1 h    0.874 --   388 o    0.757   145 o    0.108
   390   1 h    0.894 --   388 o    0.839
   391   8 o    1.883 --   392 h    0.885   393 h    0.792
   392   1 h    0.902 --   391 o    0.885
   393   1 h    0.870 --   391 o    0.792
   394   8 o    1.842 --   396 h    0.848   395 h    0.784
   395   1 h    0.872 --   394 o    0.784
   396   1 h    0.887 --   394 o    0.848
   397   8 o    1.870 --   399 h    0.847   398 h    0.775
   398   1 h    0.868 --   397 o    0.775
   399   1 h    0.887 --   397 o    0.847
   400   8 o    1.853 --   401 h    0.844   402 h    0.840
   401   1 h    0.891 --   400 o    0.844
   402   1 h    0.888 --   400 o    0.840
   403   8 o    1.846 --   405 h    0.879   404 h    0.846
   404   1 h    0.891 --   403 o    0.846
   405   1 h    0.901 --   403 o    0.879
   406   8 o    1.827 --   407 h    0.824   408 h    0.806
   407   1 h    0.890 --   406 o    0.824
   408   1 h    0.882 --   406 o    0.806
   409   8 o    1.879 --   410 h    0.856   411 h    0.850
   410   1 h    0.893 --   409 o    0.856
   411   1 h    0.897 --   409 o    0.850
   412   8 o    1.813 --   414 h    0.811   413 h    0.805
   413   1 h    0.883 --   412 o    0.805
   414   1 h    0.879 --   412 o    0.811
   415   8 o    1.864 --   416 h    0.830   417 h    0.817
   416   1 h    0.881 --   415 o    0.830
   417   1 h    0.884 --   415 o    0.817
   418   8 o    1.852 --   419 h    0.881   420 h    0.870
   419   1 h    0.898 --   418 o    0.881
   420   1 h    0.892 --   418 o    0.870
   421   8 o    1.875 --   422 h    0.837   423 h    0.819
   422   1 h    0.888 --   421 o    0.837
   423   1 h    0.881 --   421 o    0.819
   424   8 o    1.826 --   426 h    0.878   425 h    0.856
   425   1 h    0.895 --   424 o    0.856
   426   1 h    0.901 --   424 o    0.878
   427   8 o    1.864 --   429 h    0.839   428 h    0.818
   428   1 h    0.876 --   427 o    0.818
   429   1 h    0.879 --   427 o    0.839
   430   8 o    1.884 --   432 h    0.813   431 h    0.808
   431   1 h    0.874 --   430 o    0.808
   432   1 h    0.879 --   430 o    0.813
   433   8 o    1.815 --   435 h    0.875   434 h    0.797
   434   1 h    0.882 --   433 o    0.797
   435   1 h    0.899 --   433 o    0.875
   436   8 o    1.888 --   437 h    0.826   438 h    0.796
   437   1 h    0.882 --   436 o    0.826
   438   1 h    0.880 --   436 o    0.796
   439   8 o    1.845 --   440 h    0.861   441 h    0.818
   440   1 h    0.902 --   439 o    0.861
   441   1 h    0.882 --   439 o    0.818
   442   8 o    1.882 --   444 h    0.849   443 h    0.848
   443   1 h    0.890 --   442 o    0.848
   444   1 h    0.886 --   442 o    0.849
   445   8 o    1.858 --   447 h    0.915   446 h    0.805
   446   1 h    0.872 --   445 o    0.805
   447   1 h    0.919 --   445 o    0.915
   448   8 o    1.846 --   450 h    0.859   449 h    0.828
   449   1 h    0.889 --   448 o    0.828
   450   1 h    0.901 --   448 o    0.859
   451   8 o    1.851 --   453 h    0.828   452 h    0.811
   452   1 h    0.875 --   451 o    0.811
   453   1 h    0.891 --   451 o    0.828
   454   8 o    1.848 --   456 h    0.857   455 h    0.856
   455   1 h    0.893 --   454 o    0.856
   456   1 h    0.891 --   454 o    0.857
   457   8 o    1.871 --   458 h    0.880   459 h    0.782
   458   1 h    0.901 --   457 o    0.880
   459   1 h    0.881 --   457 o    0.782
   460   8 o    1.864 --   461 h    0.864   462 h    0.850
   461   1 h    0.895 --   460 o    0.864
   462   1 h    0.894 --   460 o    0.850
   463   8 o    1.852 --   464 h    0.841   465 h    0.816
   464   1 h    0.894 --   463 o    0.841
   465   1 h    0.886 --   463 o    0.816
   466   8 o    1.858 --   467 h    0.845   468 h    0.802
   467   1 h    0.890 --   466 o    0.845
   468   1 h    0.886 --   466 o    0.802
   469   8 o    1.838 --   471 h    0.897   470 h    0.854
   470   1 h    0.890 --   469 o    0.854
   471   1 h    0.906 --   469 o    0.897
   472   8 o    1.844 --   473 h    0.905   474 h    0.801
   473   1 h    0.913 --   472 o    0.905
   474   1 h    0.878 --   472 o    0.801
   475   8 o    1.852 --   477 h    0.819   476 h    0.818
   476   1 h    0.883 --   475 o    0.818
   477   1 h    0.884 --   475 o    0.819
   478   8 o    1.807 --   480 h    0.842   479 h    0.835
   479   1 h    0.889 --   478 o    0.835
   480   1 h    0.894 --   478 o    0.842
   481   8 o    1.819 --   483 h    0.817   482 h    0.786
   482   1 h    0.881 --   481 o    0.786
   483   1 h    0.881 --   481 o    0.817
   484   8 o    1.847 --   486 h    0.838   485 h    0.837
   485   1 h    0.892 --   484 o    0.837
   486   1 h    0.885 --   484 o    0.838
   487   8 o    1.867 --   488 h    0.859   489 h    0.809
   488   1 h    0.890 --   487 o    0.859
   489   1 h    0.881 --   487 o    0.809
   490   8 o    1.858 --   492 h    0.844   491 h    0.837
   491   1 h    0.885 --   490 o    0.837
   492   1 h    0.892 --   490 o    0.844
   493   8 o    1.874 --   495 h    0.835   494 h    0.808
   494   1 h    0.881 --   493 o    0.808
   495   1 h    0.881 --   493 o    0.835
   496   8 o    1.847 --   498 h    0.816   497 h    0.810
   497   1 h    0.880 --   496 o    0.810
   498   1 h    0.885 --   496 o    0.816
   499   8 o    1.836 --   500 h    0.884   501 h    0.849
   500   1 h    0.897 --   499 o    0.884
   501   1 h    0.892 --   499 o    0.849
   502   8 o    1.843 --   503 h    0.862   504 h    0.801
   503   1 h    0.893 --   502 o    0.862
   504   1 h    0.876 --   502 o    0.801
   505   8 o    1.808 --   506 h    0.862   507 h    0.845
   506   1 h    0.901 --   505 o    0.862
   507   1 h    0.900 --   505 o    0.845
   508   8 o    1.824 --   510 h    0.876   509 h    0.837
   509   1 h    0.893 --   508 o    0.837
   510   1 h    0.899 --   508 o    0.876
   511   8 o    1.862 --   513 h    0.819   512 h    0.819
   512   1 h    0.882 --   511 o    0.819
   513   1 h    0.882 --   511 o    0.819
   514   8 o    1.876 --   515 h    0.857   516 h    0.802
   515   1 h    0.890 --   514 o    0.857
   516   1 h    0.872 --   514 o    0.802
   517   8 o    1.877 --   518 h    0.860   519 h    0.789
   518   1 h    0.897 --   517 o    0.860
   519   1 h    0.882 --   517 o    0.789
   520   8 o    1.843 --   522 h    0.862   521 h    0.827
   521   1 h    0.889 --   520 o    0.827
   522   1 h    0.895 --   520 o    0.862
   523   8 o    1.851 --   525 h    0.862   524 h    0.803
   524   1 h    0.875 --   523 o    0.803
   525   1 h    0.898 --   523 o    0.862
   526   8 o    1.836 --   527 h    0.861   528 h    0.809
   527   1 h    0.897 --   526 o    0.861
   528   1 h    0.884 --   526 o    0.809
   529   8 o    1.875 --   531 h    0.821   530 h    0.781
   530   1 h    0.865 --   529 o    0.781
   531   1 h    0.881 --   529 o    0.821
   532   8 o    1.866 --   534 h    0.905   533 h    0.774
   533   1 h    0.874 --   532 o    0.774
   534   1 h    0.912 --   532 o    0.905
   535   8 o    1.844 --   536 h    0.843   537 h    0.790
   536   1 h    0.886 --   535 o    0.843
   537   1 h    0.886 --   535 o    0.790
   538   8 o    1.822 --   539 h    0.859   540 h    0.837
   539   1 h    0.893 --   538 o    0.859
   540   1 h    0.881 --   538 o    0.837
   541   8 o    1.825 --   542 h    0.900   543 h    0.834
   542   1 h    0.910 --   541 o    0.900
   543   1 h    0.890 --   541 o    0.834
   544   8 o    1.856 --   545 h    0.833   546 h    0.815
   545   1 h    0.892 --   544 o    0.833
   546   1 h    0.882 --   544 o    0.815
   547   8 o    1.849 --   548 h    0.876   549 h    0.815
   548   1 h    0.901 --   547 o    0.876
   549   1 h    0.887 --   547 o    0.815
   550   8 o    1.822 --   551 h    0.876   552 h    0.791
   551   1 h    0.902 --   550 o    0.876
   552   1 h    0.879 --   550 o    0.791
   553   8 o    1.831 --   555 h    0.864   554 h    0.852
   554   1 h    0.895 --   553 o    0.852
   555   1 h    0.900 --   553 o    0.864
   556   8 o    1.858 --   558 h    0.822   557 h    0.820
   557   1 h    0.895 --   556 o    0.820
   558   1 h    0.884 --   556 o    0.822
   559   8 o    1.857 --   560 h    0.871   561 h    0.816
   560   1 h    0.899 --   559 o    0.871
   561   1 h    0.884 --   559 o    0.816
   562   8 o    1.871 --   563 h    0.839   564 h    0.823
   563   1 h    0.890 --   562 o    0.839
   564   1 h    0.888 --   562 o    0.823
   565   8 o    1.852 --   566 h    0.874   567 h    0.867
   566   1 h    0.896 --   565 o    0.874
   567   1 h    0.891 --   565 o    0.867
   568   8 o    1.831 --   569 h    0.895   570 h    0.801
   569   1 h    0.911 --   568 o    0.895
   570   1 h    0.878 --   568 o    0.801
   571   8 o    1.859 --   572 h    0.861   573 h    0.857
   572   1 h    0.896 --   571 o    0.861
   573   1 h    0.892 --   571 o    0.857
   574   8 o    1.840 --   576 h    0.845   575 h    0.824
   575   1 h    0.881 --   574 o    0.824
   576   1 h    0.895 --   574 o    0.845
   577   8 o    1.839 --   578 h    0.817   579 h    0.787
   578   1 h    0.880 --   577 o    0.817
   579   1 h    0.877 --   577 o    0.787
   580   8 o    1.840 --   582 h    0.900   581 h    0.843
   581   1 h    0.889 --   580 o    0.843
   582   1 h    0.911 --   580 o    0.900
   583   8 o    1.859 --   584 h    0.901   585 h    0.825
   584   1 h    0.909 --   583 o    0.901
   585   1 h    0.878 --   583 o    0.825
   586   8 o    1.852 --   587 h    0.842   588 h    0.793
   587   1 h    0.890 --   586 o    0.842
   588   1 h    0.876 --   586 o    0.793
   589   8 o    1.836 --   590 h    0.878   591 h    0.844
   590   1 h    0.898 --   589 o    0.878
   591   1 h    0.890 --   589 o    0.844
   592   8 o    1.847 --   594 h    0.865   593 h    0.827
   593   1 h    0.878 --   592 o    0.827
   594   1 h    0.898 --   592 o    0.865
   595   8 o    1.846 --   596 h    0.865   597 h    0.800
   596   1 h    0.897 --   595 o    0.865
   597   1 h    0.874 --   595 o    0.800
   598   8 o    1.830 --   599 h    0.900   600 h    0.789
   599   1 h    0.911 --   598 o    0.900
   600   1 h    0.875 --   598 o    0.789
   601   8 o    1.865 --   603 h    0.897   602 h    0.804
   602   1 h    0.882 --   601 o    0.804
   603   1 h    0.908 --   601 o    0.897
   604   8 o    1.864 --   606 h    0.877   605 h    0.864
   605   1 h    0.893 --   604 o    0.864
   606   1 h    0.901 --   604 o    0.877
   607   8 o    1.827 --   609 h    0.869   608 h    0.832
   608   1 h    0.887 --   607 o    0.832
   609   1 h    0.896 --   607 o    0.869
   610   8 o    1.854 --   612 h    0.875   611 h    0.816
   611   1 h    0.882 --   610 o    0.816
   612   1 h    0.898 --   610 o    0.875
   613   8 o    1.834 --   614 h    0.874   615 h    0.859
   614   1 h    0.903 --   613 o    0.874
   615   1 h    0.892 --   613 o    0.859
   616   8 o    1.819 --   618 h    0.846   617 h    0.826
   617   1 h    0.894 --   616 o    0.826
   618   1 h    0.900 --   616 o    0.846
   619   8 o    1.881 --   621 h    0.834   620 h    0.793
   620   1 h    0.874 --   619 o    0.793
   621   1 h    0.886 --   619 o    0.834
   622   8 o    1.862 --   624 h    0.874   623 h    0.831
   623   1 h    0.885 --   622 o    0.831
   624   1 h    0.896 --   622 o    0.874
   625   8 o    1.841 --   627 h    0.846   626 h    0.776
   626   1 h    0.874 --   625 o    0.776
   627   1 h    0.893 --   625 o    0.846
   628   8 o    1.867 --   630 h    0.846   629 h    0.840
   629   1 h    0.886 --   628 o    0.840
   630   1 h    0.886 --   628 o    0.846
   631   8 o    1.857 --   633 h    0.817   632 h    0.783
   632   1 h    0.872 --   631 o    0.783
   633   1 h    0.884 --   631 o    0.817
   634   8 o    1.838 --   636 h    0.865   635 h    0.806
   635   1 h    0.878 --   634 o    0.806
   636   1 h    0.902 --   634 o    0.865
   637   8 o    1.852 --   639 h    0.853   638 h    0.845
   638   1 h    0.895 --   637 o    0.845
   639   1 h    0.885 --   637 o    0.853
   640   8 o    1.861 --   642 h    0.896   641 h    0.787
   641   1 h    0.872 --   640 o    0.787
   642   1 h    0.907 --   640 o    0.896
   643   8 o    1.828 --   644 h    0.877   645 h    0.848
   644   1 h    0.898 --   643 o    0.877
   645   1 h    0.892 --   643 o    0.848
   646   8 o    1.831 --   648 h    0.862   647 h    0.842
   647   1 h    0.889 --   646 o    0.842
   648   1 h    0.891 --   646 o    0.862
   649   8 o    1.853 --   650 h    0.868   651 h    0.803
   650   1 h    0.895 --   649 o    0.868
   651   1 h    0.886 --   649 o    0.803
   652   8 o    1.832 --   654 h    0.856   653 h    0.832
   653   1 h    0.886 --   652 o    0.832
   654   1 h    0.898 --   652 o    0.856
   655   8 o    1.863 --   656 h    0.912   657 h    0.827
   656   1 h    0.919 --   655 o    0.912
   657   1 h    0.878 --   655 o    0.827
   658   8 o    1.845 --   660 h    0.849   659 h    0.806
   659   1 h    0.877 --   658 o    0.806
   660   1 h    0.895 --   658 o    0.849
   661   8 o    1.830 --   662 h    0.872   663 h    0.816
   662   1 h    0.898 --   661 o    0.872
   663   1 h    0.886 --   661 o    0.816
   664   8 o    1.852 --   666 h    0.822   665 h    0.811
   665   1 h    0.882 --   664 o    0.811
   666   1 h    0.881 --   664 o    0.822
   667   8 o    1.855 --   669 h    0.917   668 h    0.827
   668   1 h    0.884 --   667 o    0.827
   669   1 h    0.919 --   667 o    0.917
   670   8 o    1.848 --   671 h    0.840   672 h    0.819
   671   1 h    0.888 --   670 o    0.840
   672   1 h    0.887 --   670 o    0.819
   673   8 o    1.833 --   675 h    0.795   674 h    0.786
   674   1 h    0.876 --   673 o    0.786
   675   1 h    0.878 --   673 o    0.795
   676   8 o    1.878 --   677 h    0.830   678 h    0.808
   677   1 h    0.885 --   676 o    0.830
   678   1 h    0.875 --   676 o    0.808
   679   8 o    1.892 --   680 h    0.830   681 h    0.806
   680   1 h    0.887 --   679 o    0.830
   681   1 h    0.878 --   679 o    0.806
   682   8 o    1.818 --   684 h    0.890   683 h    0.852
   683   1 h    0.896 --   682 o    0.852
   684   1 h    0.903 --   682 o    0.890
   685   8 o    1.872 --   686 h    0.838   687 h    0.807
   686   1 h    0.878 --   685 o    0.838
   687   1 h    0.880 --   685 o    0.807
   688   8 o    1.867 --   689 h    0.833   690 h    0.794
   689   1 h    0.884 --   688 o    0.833
   690   1 h    0.869 --   688 o    0.794
   691   8 o    1.880 --   693 h    0.865   692 h    0.834
   692   1 h    0.890 --   691 o    0.834
   693   1 h    0.895 --   691 o    0.865
   694   8 o    1.859 --   696 h    0.813   695 h    0.808
   695   1 h    0.880 --   694 o    0.808
   696   1 h    0.887 --   694 o    0.813
   697   8 o    1.840 --   699 h    0.868   698 h    0.816
   698   1 h    0.884 --   697 o    0.816
   699   1 h    0.898 --   697 o    0.868
   700   8 o    1.860 --   701 h    0.881   702 h    0.874
   701   1 h    0.900 --   700 o    0.881
   702   1 h    0.888 --   700 o    0.874
   703   8 o    1.829 --   705 h    0.886   704 h    0.836
   704   1 h    0.884 --   703 o    0.836
   705   1 h    0.906 --   703 o    0.886
   706   8 o    1.819 --   707 h    0.856   708 h    0.789
   707   1 h    0.896 --   706 o    0.856
   708   1 h    0.878 --   706 o    0.789
   709   8 o    1.842 --   711 h    0.848   710 h    0.838
   710   1 h    0.889 --   709 o    0.838
   711   1 h    0.896 --   709 o    0.848
   712   8 o    1.859 --   713 h    0.861   714 h    0.819
   713   1 h    0.893 --   712 o    0.861
   714   1 h    0.878 --   712 o    0.819
   715   8 o    1.852 --   717 h    0.836   716 h    0.809
   716   1 h    0.881 --   715 o    0.809
   717   1 h    0.886 --   715 o    0.836
   718   8 o    1.844 --   719 h    0.823   720 h    0.816
   719   1 h    0.888 --   718 o    0.823
   720   1 h    0.886 --   718 o    0.816
   721   8 o    1.841 --   723 h    0.840   722 h    0.816
   722   1 h    0.885 --   721 o    0.816
   723   1 h    0.890 --   721 o    0.840
   724   8 o    1.861 --   726 h    0.826   725 h    0.825
   725   1 h    0.881 --   724 o    0.825
   726   1 h    0.887 --   724 o    0.826
   727   8 o    1.862 --   728 h    0.829   729 h    0.809
   728   1 h    0.890 --   727 o    0.829
   729   1 h    0.888 --   727 o    0.809
   730   8 o    1.853 --   731 h    0.907   732 h    0.793
   731   1 h    0.916 --   730 o    0.907
   732   1 h    0.878 --   730 o    0.793
   733   8 o    1.862 --   735 h    0.855   734 h    0.825
   734   1 h    0.889 --   733 o    0.825
   735   1 h    0.891 --   733 o    0.855
   736   8 o    1.841 --   738 h    0.816   737 h    0.805
   737   1 h    0.887 --   736 o    0.805
   738   1 h    0.889 --   736 o    0.816
   739   8 o    1.838 --   741 h    0.885   740 h    0.783
   740   1 h    0.876 --   739 o    0.783
   741   1 h    0.906 --   739 o    0.885
   742   8 o    1.841 --   744 h    0.831   743 h    0.806
   743   1 h    0.878 --   742 o    0.806
   744   1 h    0.891 --   742 o    0.831
   745   8 o    1.846 --   747 h    0.906   746 h    0.774
   746   1 h    0.875 --   745 o    0.774
   747   1 h    0.914 --   745 o    0.906
   748   8 o    1.836 --   750 h    0.884   749 h    0.830
   749   1 h    0.881 --   748 o    0.830
   750   1 h    0.901 --   748 o    0.884
   751   8 o    1.812 --   752 h    0.886   753 h    0.832
   752   1 h    0.896 --   751 o    0.886
   753   1 h    0.883 --   751 o    0.832
   754   8 o    1.805 --   755 h    0.869   756 h    0.859
   755   1 h    0.891 --   754 o    0.869
   756   1 h    0.889 --   754 o    0.859
 ---------------------------------------------------------------------------

Topologies differ in total number of bonds
Writing topology from bond orders to xtbtopo.mol

molecular dipole:
                 x           y           z       tot (Debye)
 q only:        3.093      -0.204       0.493
   full:        3.241       0.195       1.102       8.716
molecular quadrupole (traceless):
                xx          xy          yy          xz          yz          zz
 q only:       67.992      11.050     -23.327      -5.777     -39.454     -44.665
  q+dip:       84.036       9.210     -44.772     -27.036     -47.425     -39.264
   full:       84.795       8.985     -45.852     -29.106     -46.387     -38.944


           -------------------------------------------------
          | TOTAL ENERGY            -1283.348634069961 Eh   |
          | GRADIENT NORM               0.036835247865 Eh/α |
          | HOMO-LUMO GAP               8.060304456509 eV   |
           -------------------------------------------------

------------------------------------------------------------------------
 * finished run on 2022/11/24 at 09:29:07.185     
------------------------------------------------------------------------
 total:
 * wall-time:     0 d,  0 h,  0 min, 57.107 sec
 *  cpu-time:     0 d,  0 h,  1 min, 12.384 sec
 * ratio c/w:     1.268 speedup
 SCF:
 * wall-time:     0 d,  0 h,  0 min, 56.031 sec
 *  cpu-time:     0 d,  0 h,  1 min, 10.597 sec
 * ratio c/w:     1.260 speedup

