      -----------------------------------------------------------      
     |                   =====================                   |     
     |                           x T B                           |     
     |                   =====================                   |     
     |                         S. Grimme                         |     
     |          Mulliken Center for Theoretical Chemistry        |     
     |                    University of Bonn                     |     
      -----------------------------------------------------------      

   * xtb version 6.5.1 (579679a) compiled by 'ehlert@majestix' on 2022-07-11

   xtb is free software: you can redistribute it and/or modify it under
   the terms of the GNU Lesser General Public License as published by
   the Free Software Foundation, either version 3 of the License, or
   (at your option) any later version.
   
   xtb is distributed in the hope that it will be useful,
   but WITHOUT ANY WARRANTY; without even the implied warranty of
   MERCHANTABILITY or FITNESS FOR A PARTICULAR PURPOSE.  See the
   GNU Lesser General Public License for more details.
   
   Cite this work as:
   * C. Bannwarth, E. Caldeweyher, S. Ehlert, A. Hansen, P. Pracht,
     J. Seibert, S. Spicher, S. Grimme, WIREs Comput. Mol. Sci., 2020, 11,
     e01493. DOI: 10.1002/wcms.1493
   
   for GFN2-xTB:
   * C. Bannwarth, S. Ehlert and S. Grimme., J. Chem. Theory Comput., 2019,
     15, 1652-1671. DOI: 10.1021/acs.jctc.8b01176
   for GFN1-xTB:
   * S. Grimme, C. Bannwarth, P. Shushkov, J. Chem. Theory Comput., 2017,
     13, 1989-2009. DOI: 10.1021/acs.jctc.7b00118
   for GFN0-xTB:
   * P. Pracht, E. Caldeweyher, S. Ehlert, S. Grimme, ChemRxiv, 2019, preprint.
     DOI: 10.26434/chemrxiv.8326202.v1
   for GFN-FF:
   * S. Spicher and S. Grimme, Angew. Chem. Int. Ed., 2020, 59, 15665-15673.
     DOI: 10.1002/anie.202004239
   
   for ALPB and GBSA implicit solvation:
   * S. Ehlert, M. Stahn, S. Spicher, S. Grimme, J. Chem. Theory Comput.,
     2021, 17, 4250-4261. DOI: 10.1021/acs.jctc.1c00471
   
   for DFT-D4:
   * E. Caldeweyher, C. Bannwarth and S. Grimme, J. Chem. Phys., 2017,
     147, 034112. DOI: 10.1063/1.4993215
   * E. Caldeweyher, S. Ehlert, A. Hansen, H. Neugebauer, S. Spicher,
     C. Bannwarth and S. Grimme, J. Chem. Phys., 2019, 150, 154122.
     DOI: 10.1063/1.5090222
   * E. Caldeweyher, J.-M. Mewes, S. Ehlert and S. Grimme, Phys. Chem. Chem. Phys.
     2020, 22, 8499-8512. DOI: 10.1039/D0CP00502A
   
   for sTDA-xTB:
   * S. Grimme and C. Bannwarth, J. Chem. Phys., 2016, 145, 054103.
     DOI: 10.1063/1.4959605
   
   in the mass-spec context:
   * V. Asgeirsson, C. Bauer and S. Grimme, Chem. Sci., 2017, 8, 4879.
     DOI: 10.1039/c7sc00601b
   * J. Koopman and S. Grimme, ACS Omega 2019, 4, 12, 15120-15133.
     DOI: 10.1021/acsomega.9b02011
   
   for metadynamics refer to:
   * S. Grimme, J. Chem. Theory Comput., 2019, 155, 2847-2862
     DOI: 10.1021/acs.jctc.9b00143
   
   for SPH calculations refer to:
   * S. Spicher and S. Grimme, J. Chem. Theory Comput., 2021, 17, 1701-1714
     DOI: 10.1021/acs.jctc.0c01306
   
   with help from (in alphabetical order)
   P. Atkinson, C. Bannwarth, F. Bohle, G. Brandenburg, E. Caldeweyher
   M. Checinski, S. Dohm, S. Ehlert, S. Ehrlich, I. Gerasimov, C. Hölzer
   A. Katbashev, J. Koopman, C. Lavigne, S. Lehtola, F. März, M. Müller,
   F. Musil, H. Neugebauer, J. Pisarek, C. Plett, P. Pracht, F. Pultar,
   J. Seibert, P. Shushkov, S. Spicher, M. Stahn, M. Steiner, T. Strunk,
   J. Stückrath, T. Rose, and J. Unsleber
   
 * started run on 2022/11/24 at 09:27:46.526     

           -------------------------------------------------
          |                Calculation Setup                |
           -------------------------------------------------

          program call               : xtb xtbopt.coord --gfn2 --sp --gbsa water
          hostname                   : cn0341
          coordinate file            : xtbopt.coord
          omp threads                :                     2

   ID    Z sym.   atoms
    1    8 o      1, 4, 7, 10, 13, 16, 19, 22, 25, 28, 31, 34, 37, 40, 43,
                  46, 49, 52, 55, 58, 61, 64, 67, 70, 73, 76, 79, 82, 85, 88,
                  91, 94, 97, 100, 103, 106, 109, 112, 115, 118, 121, 124,
                  127, 130, 133, 136, 139, 142, 145, 148, 151, 154, 157, 160,
                  163, 166, 169, 172, 175, 178, 181, 184, 187, 190, 193, 196,
                  199, 202, 205, 208, 211, 214, 217, 220, 223, 226, 229, 232,
                  235, 238, 241, 244, 247, 250, 253, 256, 259, 262, 265, 268,
                  271, 274, 277, 280, 283, 286, 289, 292, 295, 298, 301, 304,
                  307, 310, 313, 316, 319, 322, 325, 328, 331, 334, 337, 340,
                  343, 346, 349, 352, 355, 358, 361, 364, 367, 370, 373, 376,
                  379, 382, 385, 388, 391, 394, 397, 400, 403, 406, 409, 412,
                  415, 418, 421, 424, 427, 430, 433, 436, 439, 442, 445, 448,
                  451, 454, 457, 460, 463, 466, 469, 472, 475, 478, 481, 484,
                  487, 490, 493, 496, 499, 502, 505, 508, 511, 514, 517, 520,
                  523, 526, 529, 532, 535, 538, 541, 544, 547, 550, 553, 556,
                  559, 562, 565, 568, 571, 574, 577, 580, 583, 586, 589, 592,
                  595, 598, 601, 604, 607, 610, 613, 616, 619, 622, 625, 628,
                  631, 634, 637, 640, 643, 646, 649, 652, 655, 658, 661, 664,
                  667, 670, 673, 676, 679, 682, 685, 688, 691, 694, 697, 700,
                  703, 706, 709, 712, 715, 718, 721, 724, 727, 730, 733, 736,
                  739, 742, 745, 748, 751, 754
    2    1 h      2, 3, 5, 6, 8, 9, 11, 12, 14, 15, 17, 18, 20, 21, 23, 24,
                  26, 27, 29, 30, 32, 33, 35, 36, 38, 39, 41, 42, 44, 45, 47,
                  48, 50, 51, 53, 54, 56, 57, 59, 60, 62, 63, 65, 66, 68, 69,
                  71, 72, 74, 75, 77, 78, 80, 81, 83, 84, 86, 87, 89, 90, 92,
                  93, 95, 96, 98, 99, 101, 102, 104, 105, 107, 108, 110, 111,
                  113, 114, 116, 117, 119, 120, 122, 123, 125, 126, 128, 129,
                  131, 132, 134, 135, 137, 138, 140, 141, 143, 144, 146, 147,
                  149, 150, 152, 153, 155, 156, 158, 159, 161, 162, 164, 165,
                  167, 168, 170, 171, 173, 174, 176, 177, 179, 180, 182, 183,
                  185, 186, 188, 189, 191, 192, 194, 195, 197, 198, 200, 201,
                  203, 204, 206, 207, 209, 210, 212, 213, 215, 216, 218, 219,
                  221, 222, 224, 225, 227, 228, 230, 231, 233, 234, 236, 237,
                  239, 240, 242, 243, 245, 246, 248, 249, 251, 252, 254, 255,
                  257, 258, 260, 261, 263, 264, 266, 267, 269, 270, 272, 273,
                  275, 276, 278, 279, 281, 282, 284, 285, 287, 288, 290, 291,
                  293, 294, 296, 297, 299, 300, 302, 303, 305, 306, 308, 309,
                  311, 312, 314, 315, 317, 318, 320, 321, 323, 324, 326, 327,
                  329, 330, 332, 333, 335, 336, 338, 339, 341, 342, 344, 345,
                  347, 348, 350, 351, 353, 354, 356, 357, 359, 360, 362, 363,
                  365, 366, 368, 369, 371, 372, 374, 375, 377, 378, 380, 381,
                  383, 384, 386, 387, 389, 390, 392, 393, 395, 396, 398, 399,
                  401, 402, 404, 405, 407, 408, 410, 411, 413, 414, 416, 417,
                  419, 420, 422, 423, 425, 426, 428, 429, 431, 432, 434, 435,
                  437, 438, 440, 441, 443, 444, 446, 447, 449, 450, 452, 453,
                  455, 456, 458, 459, 461, 462, 464, 465, 467, 468, 470, 471,
                  473, 474, 476, 477, 479, 480, 482, 483, 485, 486, 488, 489,
                  491, 492, 494, 495, 497, 498, 500, 501, 503, 504, 506, 507,
                  509, 510, 512, 513, 515, 516, 518, 519, 521, 522, 524, 525,
                  527, 528, 530, 531, 533, 534, 536, 537, 539, 540, 542, 543,
                  545, 546, 548, 549, 551, 552, 554, 555, 557, 558, 560, 561,
                  563, 564, 566, 567, 569, 570, 572, 573, 575, 576, 578, 579,
                  581, 582, 584, 585, 587, 588, 590, 591, 593, 594, 596, 597,
                  599, 600, 602, 603, 605, 606, 608, 609, 611, 612, 614, 615,
                  617, 618, 620, 621, 623, 624, 626, 627, 629, 630, 632, 633,
                  635, 636, 638, 639, 641, 642, 644, 645, 647, 648, 650, 651,
                  653, 654, 656, 657, 659, 660, 662, 663, 665, 666, 668, 669,
                  671, 672, 674, 675, 677, 678, 680, 681, 683, 684, 686, 687,
                  689, 690, 692, 693, 695, 696, 698, 699, 701, 702, 704, 705,
                  707, 708, 710, 711, 713, 714, 716, 717, 719, 720, 722, 723,
                  725, 726, 728, 729, 731, 732, 734, 735, 737, 738, 740, 741,
                  743, 744, 746, 747, 749, 750, 752, 753, 755, 756

molecular fragmentation (1/2 indicates fragments):
111222222222222222222222222222222222222222222222222222222222222222222222
222222222222222222222222222222222222222222222222222222222222222222222222
222222222222222222222222222222222222222222222222222222222222222222222222
222222222222222222222222222222222222222222222222222222222222222222222222
222222222222222222222222222222222222222222222222222222222222222222222222
222222222222222222222222222222222222222222222222222222222222222222222222
222222222222222222222222222222222222222222222222222222222222222222222222
222222222222222222222222222222222222222222222222222222222222222222222222
222222222222222222222222222222222222222222222222222222222222222222222222
222222222222222222222222222222222222222222222222222222222222222222222222
222222222222222222222222222222222222
# atoms in fragment 1/2:     3   753
 fragment masses (1/2) :       18.02     4521.84
CMA distance (Bohr)    :  16.269
constraining FC (au)   :  0.0500

           -------------------------------------------------
          |                 G F N 2 - x T B                 |
           -------------------------------------------------

        Reference                      10.1021/acs.jctc.8b01176
      * Hamiltonian:
        H0-scaling (s, p, d)           1.850000    2.230000    2.230000
        zeta-weighting                 0.500000
      * Dispersion:
        s8                             2.700000
        a1                             0.520000
        a2                             5.000000
        s9                             5.000000
      * Repulsion:
        kExp                           1.500000    1.000000
        rExp                           1.000000
      * Coulomb:
        alpha                          2.000000
        third order                    shell-resolved
        anisotropic                    true
        a3                             3.000000
        a5                             4.000000
        cn-shift                       1.200000
        cn-exp                         4.000000
        max-rad                        5.000000

      * Solvation model:               GBSA
        Solvent                        water
        Parameter file                 internal GFN2-xTB/GBSA
        Dielectric constant                8.0200E+01
        Reference state                gsolv [1 M gas/solution]
        Free energy shift                  1.8574E-03 Eh       1.1656E+00 kcal/mol
        Temperature                        2.9815E+02 K
        Density                            1.0000E+00 kg/L
        Solvent mass                       1.8000E+01 g/mol
        Interaction kernel             Still
        Born radius scaling (c1)           1.5524E+00
        Born radii integrator          GBOBC
        Born offset                        2.4628E-02 a0       4.6540E-02 AA
        H-bond correction              true
        Ion screening                  false
        Surface tension                    1.0000E-05 Eh       1.5569E+01 dyn/cm
        Grid points                               230 per atom

          ...................................................
          :                      SETUP                      :
          :.................................................:
          :  # basis functions                1512          :
          :  # atomic orbitals                1512          :
          :  # shells                         1008          :
          :  # electrons                      2016          :
          :  max. iterations                   250          :
          :  Hamiltonian                  GFN2-xTB          :
          :  restarted?                      false          :
          :  GBSA solvation                   true          :
          :  PC potential                    false          :
          :  electronic temp.          300.0000000     K    :
          :  accuracy                    1.0000000          :
          :  -> integral cutoff          0.2500000E+02      :
          :  -> integral neglect         0.1000000E-07      :
          :  -> SCF convergence          0.1000000E-05 Eh   :
          :  -> wf. convergence          0.1000000E-03 e    :
          :  Broyden damping             0.4000000          :
          ...................................................

 iter      E             dE          RMSdq      gap      omega  full diag
   1  -1291.2534341 -0.129125E+04  0.408E+00    8.41       0.0  T
   2  -1291.3339602 -0.805261E-01  0.242E+00    8.24       1.0  T
   3  -1291.3691480 -0.351878E-01  0.222E-01    7.85       1.0  T
   4  -1291.3744534 -0.530539E-02  0.477E-02    7.95       1.0  T
   5  -1291.3746036 -0.150173E-03  0.308E-02    7.93       1.0  T
   6  -1291.3746519 -0.482699E-04  0.369E-03    7.93       1.0  T
   7  -1291.3746535 -0.159100E-05  0.915E-04    7.92       4.0  T
   8  -1291.3746536 -0.105856E-06  0.450E-04    7.92       8.1  T
   9  -1291.3746536 -0.348766E-07  0.133E-04    7.92      27.4  T

   *** convergence criteria satisfied after 9 iterations ***

         #    Occupation            Energy/Eh            Energy/eV
      -------------------------------------------------------------
         1        2.0000           -0.6526407             -17.7593
       ...           ...                  ...                  ...
      1002        2.0000           -0.3577886              -9.7359
      1003        2.0000           -0.3572546              -9.7214
      1004        2.0000           -0.3560834              -9.6895
      1005        2.0000           -0.3558133              -9.6822
      1006        2.0000           -0.3532711              -9.6130
      1007        2.0000           -0.3508298              -9.5466
      1008        2.0000           -0.3479262              -9.4676 (HOMO)
      1009                         -0.0567375              -1.5439 (LUMO)
      1010                         -0.0496208              -1.3503
      1011                         -0.0385732              -1.0496
      1012                         -0.0355022              -0.9661
      1013                         -0.0313740              -0.8537
       ...                                ...                  ...
      1512                          0.4921419              13.3919
      -------------------------------------------------------------
                  HL-Gap            0.2911887 Eh            7.9236 eV
             Fermi-level           -0.2023319 Eh           -5.5057 eV

 SCC (total)                   0 d,  0 h,  0 min, 20.821 sec
 SCC setup                      ...        0 min,  0.117 sec (  0.564%)
 Dispersion                     ...        0 min,  0.110 sec (  0.527%)
 classical contributions        ...        0 min,  0.023 sec (  0.112%)
 integral evaluation            ...        0 min,  0.615 sec (  2.951%)
 iterations                     ...        0 min,  7.445 sec ( 35.757%)
 molecular gradient             ...        0 min, 12.446 sec ( 59.776%)
 printout                       ...        0 min,  0.065 sec (  0.312%)

         :::::::::::::::::::::::::::::::::::::::::::::::::::::
         ::                     SUMMARY                     ::
         :::::::::::::::::::::::::::::::::::::::::::::::::::::
         :: total energy           -1283.601145428538 Eh    ::
         :: total w/o Gsasa/hb     -1283.377974107975 Eh    ::
         :: gradient norm              0.094588682833 Eh/a0 ::
         :: HOMO-LUMO gap              7.923648555117 eV    ::
         ::.................................................::
         :: SCC energy             -1291.374653590795 Eh    ::
         :: -> isotropic ES            7.353349821439 Eh    ::
         :: -> anisotropic ES         -1.657106301965 Eh    ::
         :: -> anisotropic XC         -0.119383482061 Eh    ::
         :: -> dispersion             -0.786459558423 Eh    ::
         :: -> Gsolv                  -0.273061068363 Eh    ::
         ::    -> Gelec               -0.049889747800 Eh    ::
         ::    -> Gsasa                0.007844746563 Eh    ::
         ::    -> Ghb                 -0.232873510252 Eh    ::
         ::    -> Gshift               0.001857443127 Eh    ::
         :: repulsion energy           7.618883719883 Eh    ::
         :: add. restraining           0.000000000000 Eh    ::
         :: total charge              -0.000000000000 e     ::
         :::::::::::::::::::::::::::::::::::::::::::::::::::::

           -------------------------------------------------
          |                Property Printout                |
           -------------------------------------------------

    * Orbital Energies and Occupations

         #    Occupation            Energy/Eh            Energy/eV
      -------------------------------------------------------------
         1        2.0000           -0.6526407             -17.7593
       ...           ...                  ...                  ...
       996        2.0000           -0.3623698              -9.8606
       997        2.0000           -0.3620496              -9.8519
       998        2.0000           -0.3613610              -9.8331
       999        2.0000           -0.3609650              -9.8224
      1000        2.0000           -0.3605122              -9.8100
      1001        2.0000           -0.3582983              -9.7498
      1002        2.0000           -0.3577886              -9.7359
      1003        2.0000           -0.3572546              -9.7214
      1004        2.0000           -0.3560834              -9.6895
      1005        2.0000           -0.3558133              -9.6822
      1006        2.0000           -0.3532711              -9.6130
      1007        2.0000           -0.3508298              -9.5466
      1008        2.0000           -0.3479262              -9.4676 (HOMO)
      1009                         -0.0567375              -1.5439 (LUMO)
      1010                         -0.0496208              -1.3503
      1011                         -0.0385732              -1.0496
      1012                         -0.0355022              -0.9661
      1013                         -0.0313740              -0.8537
      1014                         -0.0251980              -0.6857
      1015                         -0.0213294              -0.5804
      1016                         -0.0141092              -0.3839
      1017                         -0.0118388              -0.3222
      1018                         -0.0072362              -0.1969
      1019                         -0.0046002              -0.1252
       ...                                ...                  ...
      1512                          0.4921419              13.3919
      -------------------------------------------------------------
                  HL-Gap            0.2911887 Eh            7.9236 eV
             Fermi-level           -0.2023319 Eh           -5.5057 eV

     #   Z          covCN         q      C6AA      α(0)
     1   8 o        1.607    -0.669    26.905     7.001
     2   1 h        0.803     0.328     0.643     1.260
     3   1 h        0.803     0.332     0.632     1.249
     4   8 o        1.608    -0.678    27.141     7.031
     5   1 h        0.803     0.350     0.588     1.204
     6   1 h        0.804     0.347     0.596     1.212
     7   8 o        1.608    -0.682    27.245     7.045
     8   1 h        0.804     0.355     0.576     1.192
     9   1 h        0.804     0.351     0.586     1.202
    10   8 o        1.609    -0.694    27.541     7.083
    11   1 h        0.804     0.341     0.611     1.228
    12   1 h        0.805     0.340     0.611     1.228
    13   8 o        1.608    -0.681    27.202     7.039
    14   1 h        0.803     0.354     0.578     1.194
    15   1 h        0.805     0.347     0.596     1.212
    16   8 o        1.606    -0.691    27.485     7.076
    17   1 h        0.802     0.360     0.567     1.182
    18   1 h        0.805     0.324     0.653     1.269
    19   8 o        1.609    -0.671    26.940     7.005
    20   1 h        0.805     0.335     0.624     1.241
    21   1 h        0.804     0.347     0.594     1.211
    22   8 o        1.610    -0.675    27.049     7.019
    23   1 h        0.805     0.343     0.605     1.222
    24   1 h        0.804     0.348     0.594     1.211
    25   8 o        1.606    -0.699    27.680     7.101
    26   1 h        0.804     0.345     0.600     1.216
    27   1 h        0.803     0.367     0.550     1.165
    28   8 o        1.606    -0.697    27.636     7.095
    29   1 h        0.805     0.342     0.607     1.224
    30   1 h        0.803     0.352     0.584     1.201
    31   8 o        1.607    -0.681    27.223     7.042
    32   1 h        0.804     0.343     0.606     1.223
    33   1 h        0.802     0.360     0.566     1.182
    34   8 o        1.608    -0.691    27.475     7.074
    35   1 h        0.804     0.346     0.598     1.215
    36   1 h        0.804     0.345     0.600     1.217
    37   8 o        1.606    -0.692    27.502     7.078
    38   1 h        0.803     0.360     0.565     1.180
    39   1 h        0.804     0.324     0.653     1.269
    40   8 o        1.610    -0.676    27.082     7.024
    41   1 h        0.804     0.339     0.614     1.231
    42   1 h        0.804     0.340     0.612     1.229
    43   8 o        1.608    -0.687    27.368     7.061
    44   1 h        0.804     0.345     0.600     1.217
    45   1 h        0.804     0.350     0.588     1.204
    46   8 o        1.607    -0.681    27.216     7.041
    47   1 h        0.804     0.321     0.661     1.277
    48   1 h        0.804     0.358     0.571     1.187
    49   8 o        1.608    -0.668    26.874     6.997
    50   1 h        0.803     0.352     0.584     1.200
    51   1 h        0.805     0.340     0.611     1.228
    52   8 o        1.607    -0.663    26.741     6.979
    53   1 h        0.803     0.333     0.629     1.246
    54   1 h        0.804     0.344     0.603     1.220
    55   8 o        1.605    -0.701    27.740     7.108
    56   1 h        0.802     0.351     0.586     1.202
    57   1 h        0.803     0.352     0.583     1.199
    58   8 o        1.610    -0.667    26.840     6.992
    59   1 h        0.806     0.318     0.668     1.284
    60   1 h        0.804     0.345     0.601     1.218
    61   8 o        1.607    -0.687    27.357     7.059
    62   1 h        0.803     0.356     0.574     1.190
    63   1 h        0.803     0.328     0.642     1.259
    64   8 o        1.609    -0.659    26.636     6.966
    65   1 h        0.804     0.370     0.543     1.157
    66   1 h        0.805     0.315     0.676     1.291
    67   8 o        1.605    -0.700    27.702     7.103
    68   1 h        0.803     0.346     0.598     1.215
    69   1 h        0.803     0.355     0.578     1.194
    70   8 o        1.604    -0.677    27.108     7.027
    71   1 h        0.804     0.356     0.573     1.190
    72   1 h        0.800     0.350     0.589     1.206
    73   8 o        1.608    -0.680    27.182     7.037
    74   1 h        0.805     0.333     0.629     1.246
    75   1 h        0.803     0.348     0.593     1.210
    76   8 o        1.609    -0.679    27.167     7.035
    77   1 h        0.804     0.349     0.591     1.208
    78   1 h        0.806     0.326     0.648     1.265
    79   8 o        1.606    -0.679    27.172     7.035
    80   1 h        0.804     0.343     0.605     1.222
    81   1 h        0.803     0.334     0.627     1.244
    82   8 o        1.606    -0.702    27.776     7.113
    83   1 h        0.803     0.352     0.585     1.201
    84   1 h        0.803     0.356     0.575     1.191
    85   8 o        1.607    -0.672    26.975     7.010
    86   1 h        0.803     0.327     0.645     1.261
    87   1 h        0.804     0.344     0.602     1.219
    88   8 o        1.608    -0.704    27.820     7.119
    89   1 h        0.804     0.347     0.595     1.212
    90   1 h        0.804     0.340     0.612     1.229
    91   8 o        1.607    -0.692    27.501     7.078
    92   1 h        0.804     0.337     0.619     1.236
    93   1 h        0.802     0.355     0.576     1.192
    94   8 o        1.606    -0.694    27.561     7.085
    95   1 h        0.804     0.324     0.654     1.271
    96   1 h        0.802     0.361     0.564     1.179
    97   8 o        1.607    -0.697    27.627     7.094
    98   1 h        0.803     0.349     0.591     1.208
    99   1 h        0.803     0.328     0.642     1.259
   100   8 o        1.605    -0.682    27.244     7.045
   101   1 h        0.803     0.327     0.646     1.262
   102   1 h        0.802     0.365     0.556     1.171
   103   8 o        1.608    -0.684    27.300     7.052
   104   1 h        0.804     0.346     0.598     1.215
   105   1 h        0.804     0.348     0.593     1.210
   106   8 o        1.608    -0.669    26.902     7.000
   107   1 h        0.803     0.332     0.632     1.249
   108   1 h        0.804     0.360     0.565     1.181
   109   8 o        1.607    -0.689    27.426     7.068
   110   1 h        0.804     0.349     0.590     1.207
   111   1 h        0.803     0.357     0.572     1.188
   112   8 o        1.607    -0.689    27.425     7.068
   113   1 h        0.804     0.353     0.581     1.198
   114   1 h        0.804     0.346     0.598     1.214
   115   8 o        1.607    -0.705    27.838     7.121
   116   1 h        0.803     0.353     0.581     1.197
   117   1 h        0.803     0.351     0.586     1.203
   118   8 o        1.607    -0.694    27.543     7.083
   119   1 h        0.803     0.346     0.598     1.215
   120   1 h        0.804     0.353     0.581     1.197
   121   8 o        1.608    -0.677    27.101     7.026
   122   1 h        0.803     0.369     0.546     1.161
   123   1 h        0.804     0.326     0.647     1.264
   124   8 o        1.608    -0.694    27.556     7.085
   125   1 h        0.804     0.332     0.633     1.250
   126   1 h        0.804     0.355     0.577     1.193
   127   8 o        1.607    -0.684    27.298     7.052
   128   1 h        0.804     0.340     0.611     1.228
   129   1 h        0.803     0.361     0.564     1.180
   130   8 o        1.607    -0.668    26.870     6.996
   131   1 h        0.803     0.339     0.615     1.232
   132   1 h        0.805     0.335     0.625     1.242
   133   8 o        1.606    -0.711    28.010     7.143
   134   1 h        0.804     0.333     0.629     1.246
   135   1 h        0.803     0.353     0.582     1.198
   136   8 o        1.607    -0.699    27.677     7.100
   137   1 h        0.804     0.339     0.614     1.231
   138   1 h        0.803     0.364     0.557     1.173
   139   8 o        1.610    -0.683    27.259     7.047
   140   1 h        0.804     0.347     0.596     1.212
   141   1 h        0.804     0.333     0.629     1.246
   142   8 o        1.610    -0.648    26.363     6.930
   143   1 h        0.805     0.324     0.652     1.268
   144   1 h        0.805     0.324     0.653     1.269
   145   8 o        1.612    -0.670    26.917     7.002
   146   1 h        0.804     0.321     0.661     1.277
   147   1 h        0.804     0.349     0.591     1.208
   148   8 o        1.607    -0.693    27.538     7.082
   149   1 h        0.803     0.358     0.570     1.186
   150   1 h        0.804     0.331     0.634     1.251
   151   8 o        1.607    -0.670    26.924     7.003
   152   1 h        0.803     0.351     0.585     1.202
   153   1 h        0.804     0.325     0.650     1.266
   154   8 o        1.609    -0.670    26.929     7.004
   155   1 h        0.805     0.338     0.618     1.235
   156   1 h        0.804     0.325     0.651     1.268
   157   8 o        1.606    -0.654    26.519     6.950
   158   1 h        0.806     0.303     0.712     1.325
   159   1 h        0.801     0.353     0.582     1.198
   160   8 o        1.608    -0.680    27.173     7.035
   161   1 h        0.804     0.350     0.588     1.205
   162   1 h        0.804     0.346     0.597     1.213
   163   8 o        1.609    -0.676    27.092     7.025
   164   1 h        0.804     0.327     0.644     1.261
   165   1 h        0.805     0.333     0.628     1.245
   166   8 o        1.608    -0.689    27.427     7.068
   167   1 h        0.804     0.350     0.589     1.205
   168   1 h        0.803     0.342     0.607     1.224
   169   8 o        1.609    -0.685    27.314     7.054
   170   1 h        0.804     0.349     0.590     1.206
   171   1 h        0.804     0.318     0.669     1.285
   172   8 o        1.609    -0.680    27.189     7.037
   173   1 h        0.805     0.353     0.582     1.198
   174   1 h        0.803     0.355     0.577     1.193
   175   8 o        1.607    -0.708    27.931     7.133
   176   1 h        0.803     0.353     0.581     1.197
   177   1 h        0.803     0.338     0.618     1.235
   178   8 o        1.606    -0.683    27.265     7.047
   179   1 h        0.804     0.329     0.641     1.257
   180   1 h        0.802     0.365     0.555     1.171
   181   8 o        1.607    -0.682    27.245     7.045
   182   1 h        0.803     0.327     0.644     1.261
   183   1 h        0.803     0.363     0.560     1.175
   184   8 o        1.608    -0.680    27.191     7.038
   185   1 h        0.805     0.343     0.606     1.222
   186   1 h        0.802     0.359     0.568     1.184
   187   8 o        1.608    -0.664    26.769     6.983
   188   1 h        0.803     0.343     0.606     1.223
   189   1 h        0.805     0.329     0.640     1.256
   190   8 o        1.607    -0.685    27.308     7.053
   191   1 h        0.804     0.329     0.641     1.258
   192   1 h        0.803     0.334     0.627     1.244
   193   8 o        1.609    -0.688    27.383     7.063
   194   1 h        0.804     0.342     0.607     1.223
   195   1 h        0.804     0.338     0.616     1.233
   196   8 o        1.607    -0.688    27.398     7.064
   197   1 h        0.803     0.349     0.592     1.209
   198   1 h        0.804     0.344     0.603     1.220
   199   8 o        1.609    -0.671    26.946     7.006
   200   1 h        0.805     0.332     0.633     1.250
   201   1 h        0.804     0.362     0.561     1.177
   202   8 o        1.607    -0.682    27.248     7.045
   203   1 h        0.804     0.342     0.607     1.224
   204   1 h        0.803     0.361     0.564     1.180
   205   8 o        1.607    -0.701    27.737     7.108
   206   1 h        0.803     0.357     0.573     1.189
   207   1 h        0.804     0.331     0.636     1.253
   208   8 o        1.606    -0.724    28.372     7.189
   209   1 h        0.803     0.345     0.600     1.217
   210   1 h        0.803     0.342     0.607     1.224
   211   8 o        1.608    -0.660    26.658     6.968
   212   1 h        0.804     0.343     0.606     1.223
   213   1 h        0.803     0.340     0.613     1.230
   214   8 o        1.607    -0.693    27.520     7.080
   215   1 h        0.804     0.350     0.589     1.205
   216   1 h        0.804     0.343     0.604     1.221
   217   8 o        1.608    -0.672    26.987     7.011
   218   1 h        0.805     0.324     0.654     1.270
   219   1 h        0.803     0.361     0.563     1.179
   220   8 o        1.606    -0.688    27.384     7.063
   221   1 h        0.804     0.326     0.648     1.265
   222   1 h        0.802     0.352     0.584     1.200
   223   8 o        1.608    -0.668    26.885     6.998
   224   1 h        0.804     0.350     0.589     1.206
   225   1 h        0.804     0.333     0.629     1.245
   226   8 o        1.607    -0.697    27.642     7.096
   227   1 h        0.804     0.347     0.596     1.213
   228   1 h        0.804     0.338     0.618     1.234
   229   8 o        1.607    -0.679    27.170     7.035
   230   1 h        0.804     0.349     0.591     1.208
   231   1 h        0.803     0.342     0.606     1.223
   232   8 o        1.606    -0.701    27.743     7.109
   233   1 h        0.803     0.354     0.580     1.196
   234   1 h        0.804     0.328     0.642     1.258
   235   8 o        1.608    -0.678    27.121     7.029
   236   1 h        0.804     0.359     0.568     1.184
   237   1 h        0.804     0.339     0.615     1.231
   238   8 o        1.608    -0.681    27.221     7.042
   239   1 h        0.804     0.337     0.621     1.238
   240   1 h        0.804     0.339     0.615     1.232
   241   8 o        1.608    -0.683    27.266     7.047
   242   1 h        0.805     0.320     0.663     1.279
   243   1 h        0.804     0.347     0.595     1.211
   244   8 o        1.608    -0.664    26.772     6.983
   245   1 h        0.804     0.340     0.613     1.230
   246   1 h        0.803     0.344     0.603     1.219
   247   8 o        1.609    -0.676    27.079     7.023
   248   1 h        0.805     0.330     0.637     1.253
   249   1 h        0.804     0.361     0.564     1.180
   250   8 o        1.607    -0.670    26.917     7.002
   251   1 h        0.803     0.333     0.631     1.248
   252   1 h        0.804     0.326     0.648     1.264
   253   8 o        1.607    -0.712    28.044     7.147
   254   1 h        0.803     0.356     0.574     1.190
   255   1 h        0.804     0.338     0.617     1.234
   256   8 o        1.606    -0.682    27.229     7.043
   257   1 h        0.802     0.357     0.573     1.189
   258   1 h        0.804     0.338     0.617     1.234
   259   8 o        1.607    -0.697    27.633     7.095
   260   1 h        0.803     0.344     0.602     1.219
   261   1 h        0.803     0.331     0.634     1.251
   262   8 o        1.607    -0.695    27.584     7.088
   263   1 h        0.803     0.343     0.606     1.223
   264   1 h        0.803     0.341     0.609     1.226
   265   8 o        1.608    -0.668    26.885     6.998
   266   1 h        0.804     0.337     0.619     1.236
   267   1 h        0.803     0.333     0.630     1.247
   268   8 o        1.606    -0.691    27.472     7.074
   269   1 h        0.803     0.335     0.626     1.243
   270   1 h        0.803     0.349     0.590     1.207
   271   8 o        1.608    -0.696    27.593     7.090
   272   1 h        0.803     0.353     0.580     1.197
   273   1 h        0.804     0.345     0.600     1.216
   274   8 o        1.608    -0.690    27.458     7.072
   275   1 h        0.805     0.347     0.596     1.213
   276   1 h        0.803     0.348     0.592     1.209
   277   8 o        1.606    -0.684    27.281     7.049
   278   1 h        0.804     0.328     0.642     1.259
   279   1 h        0.803     0.350     0.588     1.204
   280   8 o        1.606    -0.663    26.751     6.981
   281   1 h        0.806     0.312     0.686     1.301
   282   1 h        0.801     0.350     0.588     1.204
   283   8 o        1.606    -0.687    27.361     7.060
   284   1 h        0.803     0.333     0.629     1.246
   285   1 h        0.803     0.351     0.585     1.201
   286   8 o        1.607    -0.691    27.485     7.076
   287   1 h        0.804     0.342     0.606     1.223
   288   1 h        0.803     0.354     0.579     1.195
   289   8 o        1.606    -0.701    27.749     7.109
   290   1 h        0.804     0.349     0.590     1.206
   291   1 h        0.802     0.364     0.556     1.171
   292   8 o        1.607    -0.684    27.287     7.050
   293   1 h        0.805     0.327     0.644     1.261
   294   1 h        0.802     0.367     0.551     1.166
   295   8 o        1.609    -0.667    26.839     6.992
   296   1 h        0.804     0.333     0.629     1.246
   297   1 h        0.804     0.323     0.656     1.272
   298   8 o        1.606    -0.719    28.218     7.169
   299   1 h        0.804     0.358     0.570     1.186
   300   1 h        0.803     0.356     0.574     1.190
   301   8 o        1.607    -0.684    27.278     7.049
   302   1 h        0.804     0.346     0.598     1.214
   303   1 h        0.803     0.332     0.631     1.248
   304   8 o        1.608    -0.674    27.023     7.016
   305   1 h        0.803     0.348     0.594     1.210
   306   1 h        0.805     0.327     0.645     1.262
   307   8 o        1.608    -0.669    26.897     7.000
   308   1 h        0.803     0.349     0.590     1.207
   309   1 h        0.803     0.338     0.616     1.233
   310   8 o        1.608    -0.671    26.939     7.005
   311   1 h        0.802     0.348     0.593     1.209
   312   1 h        0.806     0.311     0.689     1.304
   313   8 o        1.610    -0.669    26.888     6.998
   314   1 h        0.804     0.355     0.576     1.193
   315   1 h        0.805     0.322     0.660     1.276
   316   8 o        1.607    -0.673    26.993     7.012
   317   1 h        0.805     0.322     0.660     1.276
   318   1 h        0.802     0.347     0.596     1.213
   319   8 o        1.606    -0.694    27.558     7.085
   320   1 h        0.802     0.356     0.574     1.190
   321   1 h        0.803     0.339     0.616     1.233
   322   8 o        1.609    -0.679    27.170     7.035
   323   1 h        0.804     0.338     0.617     1.234
   324   1 h        0.805     0.348     0.594     1.210
   325   8 o        1.608    -0.689    27.412     7.066
   326   1 h        0.804     0.348     0.592     1.209
   327   1 h        0.804     0.352     0.583     1.199
   328   8 o        1.608    -0.667    26.850     6.993
   329   1 h        0.802     0.361     0.563     1.178
   330   1 h        0.806     0.304     0.710     1.323
   331   8 o        1.609    -0.683    27.269     7.048
   332   1 h        0.804     0.330     0.639     1.255
   333   1 h        0.804     0.344     0.602     1.219
   334   8 o        1.607    -0.699    27.684     7.101
   335   1 h        0.804     0.339     0.614     1.231
   336   1 h        0.804     0.329     0.641     1.257
   337   8 o        1.609    -0.684    27.289     7.050
   338   1 h        0.804     0.350     0.589     1.206
   339   1 h        0.805     0.312     0.685     1.300
   340   8 o        1.608    -0.684    27.295     7.051
   341   1 h        0.805     0.327     0.645     1.261
   342   1 h        0.804     0.348     0.594     1.211
   343   8 o        1.606    -0.687    27.380     7.062
   344   1 h        0.804     0.321     0.660     1.276
   345   1 h        0.802     0.356     0.574     1.190
   346   8 o        1.608    -0.668    26.869     6.996
   347   1 h        0.804     0.320     0.663     1.279
   348   1 h        0.804     0.334     0.628     1.245
   349   8 o        1.608    -0.678    27.134     7.030
   350   1 h        0.804     0.342     0.608     1.225
   351   1 h        0.804     0.336     0.623     1.240
   352   8 o        1.608    -0.678    27.131     7.030
   353   1 h        0.805     0.330     0.638     1.255
   354   1 h        0.803     0.353     0.582     1.198
   355   8 o        1.608    -0.679    27.157     7.033
   356   1 h        0.803     0.368     0.548     1.163
   357   1 h        0.805     0.317     0.671     1.287
   358   8 o        1.607    -0.665    26.807     6.988
   359   1 h        0.805     0.337     0.621     1.237
   360   1 h        0.803     0.327     0.645     1.262
   361   8 o        1.608    -0.663    26.734     6.978
   362   1 h        0.805     0.330     0.637     1.254
   363   1 h        0.803     0.341     0.609     1.226
   364   8 o        1.607    -0.685    27.312     7.053
   365   1 h        0.804     0.333     0.629     1.246
   366   1 h        0.803     0.360     0.566     1.182
   367   8 o        1.607    -0.694    27.553     7.084
   368   1 h        0.804     0.324     0.654     1.270
   369   1 h        0.803     0.350     0.589     1.206
   370   8 o        1.607    -0.700    27.707     7.104
   371   1 h        0.803     0.366     0.552     1.168
   372   1 h        0.804     0.330     0.638     1.255
   373   8 o        1.608    -0.699    27.680     7.101
   374   1 h        0.805     0.329     0.641     1.257
   375   1 h        0.803     0.355     0.577     1.193
   376   8 o        1.608    -0.679    27.163     7.034
   377   1 h        0.804     0.348     0.594     1.210
   378   1 h        0.803     0.345     0.599     1.216
   379   8 o        1.607    -0.676    27.070     7.022
   380   1 h        0.802     0.343     0.604     1.221
   381   1 h        0.805     0.328     0.643     1.259
   382   8 o        1.610    -0.668    26.873     6.997
   383   1 h        0.805     0.330     0.637     1.253
   384   1 h        0.805     0.348     0.594     1.211
   385   8 o        1.610    -0.659    26.637     6.966
   386   1 h        0.805     0.331     0.634     1.250
   387   1 h        0.804     0.344     0.601     1.218
   388   8 o        1.602    -0.711    28.020     7.144
   389   1 h        0.803     0.356     0.574     1.191
   390   1 h        0.804     0.328     0.643     1.259
   391   8 o        1.607    -0.663    26.758     6.981
   392   1 h        0.805     0.316     0.675     1.290
   393   1 h        0.802     0.371     0.543     1.158
   394   8 o        1.607    -0.693    27.513     7.079
   395   1 h        0.803     0.368     0.548     1.163
   396   1 h        0.805     0.332     0.633     1.250
   397   8 o        1.606    -0.689    27.415     7.067
   398   1 h        0.802     0.369     0.546     1.161
   399   1 h        0.805     0.336     0.622     1.239
   400   8 o        1.608    -0.667    26.860     6.995
   401   1 h        0.804     0.332     0.633     1.250
   402   1 h        0.804     0.338     0.618     1.234
   403   8 o        1.609    -0.670    26.930     7.004
   404   1 h        0.804     0.341     0.609     1.226
   405   1 h        0.805     0.325     0.651     1.267
   406   8 o        1.607    -0.692    27.491     7.076
   407   1 h        0.804     0.323     0.656     1.273
   408   1 h        0.803     0.348     0.593     1.209
   409   8 o        1.609    -0.675    27.056     7.020
   410   1 h        0.804     0.343     0.605     1.221
   411   1 h        0.804     0.334     0.627     1.244
   412   8 o        1.606    -0.715    28.119     7.157
   413   1 h        0.803     0.344     0.603     1.220
   414   1 h        0.803     0.355     0.577     1.193
   415   8 o        1.607    -0.668    26.881     6.998
   416   1 h        0.804     0.339     0.615     1.232
   417   1 h        0.803     0.342     0.608     1.225
   418   8 o        1.610    -0.654    26.520     6.950
   419   1 h        0.805     0.333     0.630     1.247
   420   1 h        0.805     0.340     0.612     1.229
   421   8 o        1.607    -0.689    27.430     7.068
   422   1 h        0.803     0.333     0.631     1.247
   423   1 h        0.803     0.359     0.568     1.184
   424   8 o        1.609    -0.678    27.132     7.030
   425   1 h        0.804     0.338     0.618     1.235
   426   1 h        0.805     0.329     0.639     1.256
   427   8 o        1.609    -0.673    27.007     7.014
   428   1 h        0.804     0.347     0.596     1.212
   429   1 h        0.805     0.358     0.570     1.185
   430   8 o        1.608    -0.681    27.218     7.041
   431   1 h        0.803     0.356     0.573     1.190
   432   1 h        0.804     0.346     0.598     1.215
   433   8 o        1.607    -0.682    27.227     7.042
   434   1 h        0.802     0.347     0.595     1.212
   435   1 h        0.805     0.319     0.666     1.282
   436   8 o        1.606    -0.691    27.475     7.074
   437   1 h        0.804     0.348     0.594     1.210
   438   1 h        0.803     0.353     0.581     1.198
   439   8 o        1.607    -0.695    27.585     7.089
   440   1 h        0.804     0.320     0.665     1.281
   441   1 h        0.803     0.358     0.571     1.187
   442   8 o        1.609    -0.652    26.459     6.942
   443   1 h        0.804     0.339     0.614     1.231
   444   1 h        0.804     0.342     0.608     1.225
   445   8 o        1.608    -0.653    26.499     6.948
   446   1 h        0.802     0.355     0.577     1.193
   447   1 h        0.806     0.311     0.689     1.304
   448   8 o        1.608    -0.681    27.205     7.040
   449   1 h        0.804     0.336     0.623     1.240
   450   1 h        0.804     0.330     0.637     1.253
   451   8 o        1.608    -0.677    27.105     7.027
   452   1 h        0.804     0.358     0.570     1.185
   453   1 h        0.804     0.323     0.655     1.272
   454   8 o        1.609    -0.670    26.919     7.003
   455   1 h        0.804     0.335     0.624     1.241
   456   1 h        0.805     0.340     0.612     1.229
   457   8 o        1.606    -0.652    26.478     6.945
   458   1 h        0.805     0.316     0.675     1.290
   459   1 h        0.802     0.339     0.616     1.233
   460   8 o        1.609    -0.672    26.974     7.010
   461   1 h        0.805     0.338     0.618     1.234
   462   1 h        0.804     0.336     0.622     1.239
   463   8 o        1.606    -0.684    27.285     7.050
   464   1 h        0.804     0.325     0.649     1.266
   465   1 h        0.803     0.343     0.606     1.223
   466   8 o        1.609    -0.673    27.005     7.014
   467   1 h        0.805     0.317     0.672     1.287
   468   1 h        0.804     0.346     0.598     1.215
   469   8 o        1.609    -0.661    26.694     6.973
   470   1 h        0.804     0.340     0.613     1.230
   471   1 h        0.805     0.324     0.652     1.268
   472   8 o        1.607    -0.675    27.064     7.021
   473   1 h        0.806     0.306     0.703     1.317
   474   1 h        0.802     0.359     0.568     1.184
   475   8 o        1.606    -0.682    27.237     7.044
   476   1 h        0.803     0.345     0.600     1.217
   477   1 h        0.803     0.336     0.622     1.239
   478   8 o        1.607    -0.697    27.626     7.094
   479   1 h        0.803     0.340     0.611     1.228
   480   1 h        0.804     0.332     0.633     1.250
   481   8 o        1.605    -0.707    27.888     7.127
   482   1 h        0.802     0.339     0.615     1.232
   483   1 h        0.803     0.348     0.593     1.210
   484   8 o        1.608    -0.680    27.177     7.036
   485   1 h        0.804     0.325     0.651     1.267
   486   1 h        0.804     0.349     0.590     1.206
   487   8 o        1.608    -0.654    26.512     6.949
   488   1 h        0.805     0.331     0.636     1.253
   489   1 h        0.803     0.339     0.615     1.232
   490   8 o        1.608    -0.676    27.068     7.022
   491   1 h        0.804     0.343     0.605     1.221
   492   1 h        0.804     0.338     0.617     1.234
   493   8 o        1.607    -0.666    26.825     6.990
   494   1 h        0.803     0.332     0.632     1.249
   495   1 h        0.804     0.349     0.591     1.208
   496   8 o        1.607    -0.696    27.598     7.090
   497   1 h        0.803     0.346     0.597     1.214
   498   1 h        0.804     0.345     0.600     1.216
   499   8 o        1.609    -0.681    27.204     7.039
   500   1 h        0.805     0.341     0.610     1.226
   501   1 h        0.804     0.339     0.615     1.232
   502   8 o        1.607    -0.685    27.324     7.055
   503   1 h        0.805     0.324     0.653     1.269
   504   1 h        0.803     0.359     0.567     1.183
   505   8 o        1.609    -0.670    26.926     7.003
   506   1 h        0.805     0.320     0.664     1.280
   507   1 h        0.804     0.317     0.672     1.287
   508   8 o        1.609    -0.660    26.657     6.968
   509   1 h        0.804     0.331     0.635     1.252
   510   1 h        0.805     0.318     0.669     1.285
   511   8 o        1.608    -0.670    26.921     7.003
   512   1 h        0.804     0.333     0.629     1.245
   513   1 h        0.804     0.345     0.601     1.217
   514   8 o        1.607    -0.680    27.189     7.037
   515   1 h        0.805     0.329     0.639     1.256
   516   1 h        0.802     0.370     0.543     1.158
   517   8 o        1.606    -0.664    26.775     6.984
   518   1 h        0.805     0.327     0.646     1.263
   519   1 h        0.802     0.339     0.615     1.232
   520   8 o        1.608    -0.688    27.386     7.063
   521   1 h        0.803     0.351     0.586     1.202
   522   1 h        0.805     0.324     0.653     1.269
   523   8 o        1.607    -0.684    27.285     7.050
   524   1 h        0.802     0.365     0.556     1.171
   525   1 h        0.805     0.321     0.661     1.277
   526   8 o        1.606    -0.693    27.538     7.082
   527   1 h        0.804     0.323     0.657     1.273
   528   1 h        0.802     0.349     0.591     1.208
   529   8 o        1.607    -0.697    27.639     7.096
   530   1 h        0.802     0.374     0.536     1.150
   531   1 h        0.804     0.346     0.598     1.215
   532   8 o        1.606    -0.656    26.578     6.958
   533   1 h        0.802     0.353     0.581     1.197
   534   1 h        0.806     0.307     0.701     1.315
   535   8 o        1.605    -0.703    27.803     7.116
   536   1 h        0.804     0.353     0.582     1.199
   537   1 h        0.802     0.334     0.627     1.244
   538   8 o        1.609    -0.688    27.401     7.065
   539   1 h        0.805     0.331     0.635     1.252
   540   1 h        0.804     0.359     0.568     1.184
   541   8 o        1.609    -0.660    26.672     6.970
   542   1 h        0.806     0.316     0.675     1.291
   543   1 h        0.803     0.336     0.622     1.239
   544   8 o        1.607    -0.681    27.220     7.042
   545   1 h        0.804     0.324     0.652     1.268
   546   1 h        0.803     0.353     0.582     1.198
   547   8 o        1.607    -0.688    27.406     7.065
   548   1 h        0.805     0.328     0.642     1.259
   549   1 h        0.803     0.347     0.596     1.213
   550   8 o        1.607    -0.678    27.141     7.031
   551   1 h        0.805     0.323     0.657     1.273
   552   1 h        0.802     0.345     0.599     1.216
   553   8 o        1.609    -0.678    27.126     7.029
   554   1 h        0.804     0.336     0.622     1.239
   555   1 h        0.804     0.327     0.645     1.262
   556   8 o        1.608    -0.685    27.306     7.053
   557   1 h        0.803     0.320     0.665     1.281
   558   1 h        0.804     0.348     0.594     1.210
   559   8 o        1.607    -0.690    27.441     7.070
   560   1 h        0.805     0.332     0.632     1.248
   561   1 h        0.802     0.353     0.581     1.198
   562   8 o        1.608    -0.665    26.808     6.988
   563   1 h        0.804     0.336     0.622     1.239
   564   1 h        0.804     0.335     0.626     1.242
   565   8 o        1.610    -0.658    26.611     6.962
   566   1 h        0.805     0.338     0.618     1.235
   567   1 h        0.805     0.337     0.620     1.236
   568   8 o        1.608    -0.675    27.045     7.019
   569   1 h        0.806     0.306     0.702     1.316
   570   1 h        0.802     0.358     0.571     1.187
   571   8 o        1.609    -0.674    27.036     7.018
   572   1 h        0.805     0.337     0.619     1.236
   573   1 h        0.804     0.341     0.609     1.226
   574   8 o        1.607    -0.682    27.237     7.044
   575   1 h        0.803     0.353     0.582     1.198
   576   1 h        0.804     0.325     0.652     1.268
   577   8 o        1.606    -0.698    27.652     7.097
   578   1 h        0.804     0.341     0.610     1.226
   579   1 h        0.803     0.349     0.591     1.208
   580   8 o        1.610    -0.640    26.166     6.904
   581   1 h        0.804     0.338     0.617     1.234
   582   1 h        0.806     0.301     0.717     1.330
   583   8 o        1.609    -0.660    26.672     6.970
   584   1 h        0.806     0.309     0.695     1.309
   585   1 h        0.804     0.363     0.558     1.173
   586   8 o        1.605    -0.700    27.709     7.104
   587   1 h        0.804     0.328     0.643     1.260
   588   1 h        0.802     0.365     0.554     1.169
   589   8 o        1.610    -0.666    26.832     6.991
   590   1 h        0.805     0.327     0.646     1.262
   591   1 h        0.804     0.342     0.607     1.224
   592   8 o        1.608    -0.672    26.968     7.009
   593   1 h        0.803     0.359     0.567     1.183
   594   1 h        0.805     0.318     0.671     1.286
   595   8 o        1.607    -0.693    27.517     7.080
   596   1 h        0.805     0.327     0.644     1.261
   597   1 h        0.802     0.363     0.558     1.174
   598   8 o        1.606    -0.690    27.444     7.070
   599   1 h        0.805     0.308     0.698     1.312
   600   1 h        0.802     0.363     0.558     1.174
   601   8 o        1.607    -0.659    26.643     6.966
   602   1 h        0.802     0.347     0.595     1.212
   603   1 h        0.805     0.315     0.676     1.292
   604   8 o        1.609    -0.669    26.893     6.999
   605   1 h        0.804     0.344     0.601     1.218
   606   1 h        0.805     0.335     0.625     1.241
   607   8 o        1.608    -0.664    26.775     6.984
   608   1 h        0.803     0.337     0.619     1.236
   609   1 h        0.805     0.327     0.644     1.261
   610   8 o        1.608    -0.669    26.897     7.000
   611   1 h        0.803     0.352     0.583     1.199
   612   1 h        0.805     0.318     0.669     1.285
   613   8 o        1.609    -0.669    26.900     7.000
   614   1 h        0.805     0.326     0.649     1.265
   615   1 h        0.804     0.339     0.615     1.232
   616   8 o        1.607    -0.687    27.367     7.060
   617   1 h        0.803     0.324     0.653     1.270
   618   1 h        0.804     0.328     0.643     1.259
   619   8 o        1.606    -0.673    27.010     7.014
   620   1 h        0.802     0.355     0.577     1.193
   621   1 h        0.804     0.334     0.626     1.243
   622   8 o        1.609    -0.674    27.033     7.017
   623   1 h        0.803     0.353     0.582     1.198
   624   1 h        0.805     0.334     0.627     1.244
   625   8 o        1.604    -0.707    27.892     7.128
   626   1 h        0.801     0.364     0.556     1.172
   627   1 h        0.804     0.324     0.654     1.270
   628   8 o        1.609    -0.656    26.574     6.957
   629   1 h        0.804     0.338     0.617     1.233
   630   1 h        0.804     0.337     0.619     1.235
   631   8 o        1.606    -0.708    27.915     7.131
   632   1 h        0.803     0.360     0.565     1.180
   633   1 h        0.804     0.346     0.597     1.214
   634   8 o        1.607    -0.685    27.309     7.053
   635   1 h        0.803     0.360     0.566     1.181
   636   1 h        0.805     0.313     0.682     1.297
   637   8 o        1.609    -0.662    26.712     6.976
   638   1 h        0.804     0.329     0.641     1.257
   639   1 h        0.805     0.341     0.610     1.226
   640   8 o        1.607    -0.670    26.936     7.005
   641   1 h        0.801     0.367     0.550     1.166
   642   1 h        0.806     0.308     0.698     1.312
   643   8 o        1.609    -0.672    26.985     7.011
   644   1 h        0.805     0.330     0.636     1.253
   645   1 h        0.804     0.337     0.619     1.235
   646   8 o        1.609    -0.675    27.049     7.019
   647   1 h        0.804     0.340     0.613     1.230
   648   1 h        0.804     0.336     0.621     1.238
   649   8 o        1.607    -0.670    26.931     7.004
   650   1 h        0.805     0.331     0.636     1.252
   651   1 h        0.802     0.337     0.621     1.238
   652   8 o        1.607    -0.683    27.267     7.048
   653   1 h        0.803     0.347     0.595     1.212
   654   1 h        0.804     0.324     0.653     1.270
   655   8 o        1.609    -0.660    26.658     6.968
   656   1 h        0.806     0.321     0.660     1.276
   657   1 h        0.803     0.354     0.580     1.196
   658   8 o        1.606    -0.696    27.610     7.092
   659   1 h        0.802     0.363     0.559     1.175
   660   1 h        0.804     0.321     0.662     1.278
   661   8 o        1.607    -0.690    27.437     7.069
   662   1 h        0.805     0.329     0.641     1.258
   663   1 h        0.803     0.350     0.587     1.204
   664   8 o        1.607    -0.681    27.207     7.040
   665   1 h        0.803     0.333     0.630     1.246
   666   1 h        0.804     0.349     0.591     1.208
   667   8 o        1.609    -0.648    26.372     6.931
   668   1 h        0.803     0.342     0.609     1.225
   669   1 h        0.806     0.310     0.691     1.305
   670   8 o        1.607    -0.676    27.071     7.022
   671   1 h        0.804     0.337     0.619     1.236
   672   1 h        0.803     0.335     0.625     1.242
   673   8 o        1.605    -0.725    28.381     7.190
   674   1 h        0.802     0.354     0.580     1.196
   675   1 h        0.803     0.356     0.575     1.191
   676   8 o        1.607    -0.674    27.023     7.016
   677   1 h        0.804     0.336     0.623     1.240
   678   1 h        0.803     0.356     0.575     1.191
   679   8 o        1.606    -0.677    27.110     7.027
   680   1 h        0.804     0.330     0.638     1.254
   681   1 h        0.803     0.357     0.572     1.188
   682   8 o        1.609    -0.677    27.095     7.025
   683   1 h        0.804     0.337     0.620     1.237
   684   1 h        0.805     0.325     0.651     1.268
   685   8 o        1.608    -0.671    26.946     7.006
   686   1 h        0.804     0.354     0.578     1.195
   687   1 h        0.803     0.342     0.608     1.225
   688   8 o        1.608    -0.673    26.997     7.013
   689   1 h        0.804     0.338     0.618     1.235
   690   1 h        0.803     0.355     0.576     1.193
   691   8 o        1.609    -0.679    27.148     7.032
   692   1 h        0.803     0.343     0.606     1.223
   693   1 h        0.805     0.341     0.609     1.226
   694   8 o        1.607    -0.687    27.360     7.060
   695   1 h        0.804     0.352     0.584     1.201
   696   1 h        0.803     0.328     0.643     1.260
   697   8 o        1.608    -0.666    26.829     6.991
   698   1 h        0.803     0.341     0.609     1.226
   699   1 h        0.805     0.322     0.659     1.275
   700   8 o        1.610    -0.659    26.648     6.967
   701   1 h        0.805     0.335     0.623     1.240
   702   1 h        0.805     0.346     0.598     1.215
   703   8 o        1.609    -0.663    26.749     6.980
   704   1 h        0.804     0.354     0.579     1.196
   705   1 h        0.805     0.305     0.707     1.321
   706   8 o        1.605    -0.721    28.267     7.176
   707   1 h        0.804     0.329     0.641     1.258
   708   1 h        0.802     0.358     0.569     1.186
   709   8 o        1.608    -0.688    27.401     7.065
   710   1 h        0.804     0.338     0.616     1.233
   711   1 h        0.804     0.337     0.619     1.236
   712   8 o        1.608    -0.681    27.199     7.039
   713   1 h        0.805     0.331     0.635     1.252
   714   1 h        0.803     0.362     0.560     1.176
   715   8 o        1.608    -0.677    27.112     7.027
   716   1 h        0.803     0.337     0.620     1.237
   717   1 h        0.804     0.343     0.604     1.221
   718   8 o        1.606    -0.685    27.304     7.052
   719   1 h        0.803     0.340     0.612     1.229
   720   1 h        0.803     0.332     0.634     1.250
   721   8 o        1.608    -0.673    26.997     7.013
   722   1 h        0.803     0.338     0.617     1.234
   723   1 h        0.805     0.332     0.631     1.248
   724   8 o        1.608    -0.665    26.803     6.987
   725   1 h        0.804     0.346     0.598     1.215
   726   1 h        0.804     0.330     0.636     1.253
   727   8 o        1.606    -0.695    27.586     7.089
   728   1 h        0.803     0.341     0.609     1.226
   729   1 h        0.802     0.337     0.619     1.236
   730   8 o        1.606    -0.670    26.923     7.003
   731   1 h        0.806     0.314     0.681     1.296
   732   1 h        0.802     0.352     0.583     1.199
   733   8 o        1.610    -0.682    27.241     7.044
   734   1 h        0.803     0.343     0.604     1.221
   735   1 h        0.805     0.339     0.615     1.231
   736   8 o        1.604    -0.692    27.512     7.079
   737   1 h        0.802     0.331     0.636     1.253
   738   1 h        0.803     0.338     0.616     1.233
   739   8 o        1.606    -0.687    27.366     7.060
   740   1 h        0.801     0.362     0.562     1.177
   741   1 h        0.805     0.308     0.696     1.310
   742   8 o        1.606    -0.707    27.910     7.130
   743   1 h        0.802     0.363     0.558     1.174
   744   1 h        0.804     0.330     0.638     1.255
   745   8 o        1.605    -0.685    27.325     7.055
   746   1 h        0.801     0.363     0.559     1.175
   747   1 h        0.806     0.304     0.708     1.322
   748   8 o        1.609    -0.683    27.267     7.048
   749   1 h        0.803     0.359     0.567     1.183
   750   1 h        0.805     0.323     0.657     1.273
   751   8 o        1.609    -0.661    26.705     6.975
   752   1 h        0.805     0.318     0.668     1.284
   753   1 h        0.804     0.341     0.609     1.226
   754   8 o        1.610    -0.671    26.961     7.008
   755   1 h        0.805     0.334     0.626     1.243
   756   1 h        0.805     0.332     0.633     1.249

 Mol. C6AA /au·bohr⁶  :    2900323.494958
 Mol. C8AA /au·bohr⁸  :   52631169.890888
 Mol. α(0) /au        :       2393.352386


Wiberg/Mayer (AO) data.
largest (>0.10) Wiberg bond orders for each atom

 ---------------------------------------------------------------------------
     #   Z sym  total        # sym  WBO       # sym  WBO       # sym  WBO
 ---------------------------------------------------------------------------
     1   8 o    1.858 --     2 h    0.833     3 h    0.827
     2   1 h    0.892 --     1 o    0.833
     3   1 h    0.889 --     1 o    0.827
     4   8 o    1.863 --     6 h    0.837     5 h    0.816
     5   1 h    0.877 --     4 o    0.816
     6   1 h    0.880 --     4 o    0.837
     7   8 o    1.862 --     9 h    0.836     8 h    0.808
     8   1 h    0.874 --     7 o    0.808
     9   1 h    0.877 --     7 o    0.836
    10   8 o    1.803 --    12 h    0.842    11 h    0.816
    11   1 h    0.884 --    10 o    0.816
    12   1 h    0.884 --    10 o    0.842
    13   8 o    1.864 --    15 h    0.844    14 h    0.808
    14   1 h    0.874 --    13 o    0.808
    15   1 h    0.880 --    13 o    0.844
    16   8 o    1.847 --    18 h    0.854    17 h    0.776
    17   1 h    0.871 --    16 o    0.776
    18   1 h    0.895 --    16 o    0.854
    19   8 o    1.842 --    20 h    0.851    21 h    0.830
    20   1 h    0.888 --    19 o    0.851
    21   1 h    0.879 --    19 o    0.830
    22   8 o    1.863 --    23 h    0.837    24 h    0.820
    23   1 h    0.882 --    22 o    0.837
    24   1 h    0.879 --    22 o    0.820
    25   8 o    1.863 --    26 h    0.822    27 h    0.784
    26   1 h    0.881 --    25 o    0.822
    27   1 h    0.865 --    25 o    0.784
    28   8 o    1.852 --    29 h    0.852    30 h    0.777
    29   1 h    0.883 --    28 o    0.852
    30   1 h    0.876 --    28 o    0.777
    31   8 o    1.891 --    32 h    0.829    33 h    0.793
    32   1 h    0.883 --    31 o    0.829
    33   1 h    0.871 --    31 o    0.793
    34   8 o    1.847 --    35 h    0.824    36 h    0.812
    35   1 h    0.880 --    34 o    0.824
    36   1 h    0.881 --    34 o    0.812
    37   8 o    1.849 --    39 h    0.833    38 h    0.799
    38   1 h    0.870 --    37 o    0.799
    39   1 h    0.895 --    37 o    0.833
    40   8 o    1.858 --    42 h    0.833    41 h    0.827
    41   1 h    0.885 --    40 o    0.827
    42   1 h    0.884 --    40 o    0.833
    43   8 o    1.866 --    44 h    0.814    45 h    0.809
    44   1 h    0.881 --    43 o    0.814
    45   1 h    0.877 --    43 o    0.809
    46   8 o    1.863 --    47 h    0.836    48 h    0.799
    47   1 h    0.897 --    46 o    0.836
    48   1 h    0.872 --    46 o    0.799
    49   8 o    1.874 --    51 h    0.861    50 h    0.805
    50   1 h    0.876 --    49 o    0.805
    51   1 h    0.884 --    49 o    0.861
    52   8 o    1.882 --    53 h    0.833    54 h    0.826
    53   1 h    0.889 --    52 o    0.833
    54   1 h    0.882 --    52 o    0.826
    55   8 o    1.863 --    56 h    0.804    57 h    0.800
    56   1 h    0.877 --    55 o    0.804
    57   1 h    0.876 --    55 o    0.800
    58   8 o    1.826 --    59 h    0.878    60 h    0.827
    59   1 h    0.899 --    58 o    0.878
    60   1 h    0.881 --    58 o    0.827
    61   8 o    1.859 --    63 h    0.824    62 h    0.799
    62   1 h    0.873 --    61 o    0.799
    63   1 h    0.892 --    61 o    0.824
    64   8 o    1.859 --    66 h    0.882    65 h    0.818
    65   1 h    0.863 --    64 o    0.818
    66   1 h    0.900 --    64 o    0.882
    67   8 o    1.876 --    68 h    0.800    69 h    0.799
    68   1 h    0.880 --    67 o    0.800
    69   1 h    0.874 --    67 o    0.799
    70   8 o    1.871 --    72 h    0.836    71 h    0.809
    71   1 h    0.873 --    70 o    0.809
    72   1 h    0.878 --    70 o    0.836
    73   8 o    1.848 --    74 h    0.857    75 h    0.803
    74   1 h    0.889 --    73 o    0.857
    75   1 h    0.879 --    73 o    0.803
    76   8 o    1.816 --    78 h    0.868    77 h    0.806
    77   1 h    0.878 --    76 o    0.806
    78   1 h    0.894 --    76 o    0.868
    79   8 o    1.842 --    80 h    0.834    81 h    0.829
    80   1 h    0.882 --    79 o    0.834
    81   1 h    0.888 --    79 o    0.829
    82   8 o    1.854 --    83 h    0.819    84 h    0.796
    83   1 h    0.876 --    82 o    0.819
    84   1 h    0.873 --    82 o    0.796
    85   8 o    1.857 --    87 h    0.830    86 h    0.824
    86   1 h    0.893 --    85 o    0.824
    87   1 h    0.881 --    85 o    0.830
    88   8 o    1.809 --    90 h    0.827    89 h    0.807
    89   1 h    0.879 --    88 o    0.807
    90   1 h    0.884 --    88 o    0.827
    91   8 o    1.860 --    92 h    0.840    93 h    0.795
    92   1 h    0.886 --    91 o    0.840
    93   1 h    0.874 --    91 o    0.795
    94   8 o    1.855 --    95 h    0.838    96 h    0.782
    95   1 h    0.895 --    94 o    0.838
    96   1 h    0.870 --    94 o    0.782
    97   8 o    1.813 --    99 h    0.836    98 h    0.807
    98   1 h    0.878 --    97 o    0.807
    99   1 h    0.892 --    97 o    0.836
   100   8 o    1.890 --   101 h    0.829   102 h    0.784
   101   1 h    0.893 --   100 o    0.829
   102   1 h    0.867 --   100 o    0.784
   103   8 o    1.857 --   104 h    0.831   105 h    0.817
   104   1 h    0.880 --   103 o    0.831
   105   1 h    0.879 --   103 o    0.817
   106   8 o    1.886 --   107 h    0.829   108 h    0.811
   107   1 h    0.890 --   106 o    0.829
   108   1 h    0.870 --   106 o    0.811
   109   8 o    1.867 --   110 h    0.823   111 h    0.796
   110   1 h    0.878 --   109 o    0.823
   111   1 h    0.872 --   109 o    0.796
   112   8 o    1.868 --   114 h    0.830   113 h    0.806
   113   1 h    0.875 --   112 o    0.806
   114   1 h    0.880 --   112 o    0.830
   115   8 o    1.840 --   117 h    0.816   116 h    0.790
   116   1 h    0.875 --   115 o    0.790
   117   1 h    0.877 --   115 o    0.816
   118   8 o    1.858 --   120 h    0.820   119 h    0.807
   119   1 h    0.880 --   118 o    0.807
   120   1 h    0.875 --   118 o    0.820
   121   8 o    1.862 --   123 h    0.861   122 h    0.802
   122   1 h    0.864 --   121 o    0.802
   123   1 h    0.894 --   121 o    0.861
   124   8 o    1.846 --   126 h    0.820   125 h    0.819
   125   1 h    0.890 --   124 o    0.819
   126   1 h    0.874 --   124 o    0.820
   127   8 o    1.865 --   128 h    0.835   129 h    0.813
   128   1 h    0.884 --   127 o    0.835
   129   1 h    0.870 --   127 o    0.813
   130   8 o    1.863 --   132 h    0.852   131 h    0.809
   131   1 h    0.885 --   130 o    0.809
   132   1 h    0.888 --   130 o    0.852
   133   8 o    1.837 --   134 h    0.810   135 h    0.786
   134   1 h    0.889 --   133 o    0.810
   135   1 h    0.875 --   133 o    0.786
   136   8 o    1.848 --   137 h    0.837   138 h    0.779
   137   1 h    0.885 --   136 o    0.837
   138   1 h    0.868 --   136 o    0.779
   139   8 o    1.850 --   141 h    0.831   140 h    0.825
   140   1 h    0.880 --   139 o    0.825
   141   1 h    0.889 --   139 o    0.831
   142   8 o    1.845 --   144 h    0.862   143 h    0.844
   143   1 h    0.895 --   142 o    0.844
   144   1 h    0.895 --   142 o    0.862
   145   8 o    1.871 --   146 h    0.830   147 h    0.819   389 h    0.107
   146   1 h    0.897 --   145 o    0.830
   147   1 h    0.878 --   145 o    0.819
   148   8 o    1.850 --   150 h    0.840   149 h    0.795
   149   1 h    0.872 --   148 o    0.795
   150   1 h    0.890 --   148 o    0.840
   151   8 o    1.855 --   153 h    0.841   152 h    0.818
   152   1 h    0.877 --   151 o    0.818
   153   1 h    0.894 --   151 o    0.841
   154   8 o    1.831 --   155 h    0.843   156 h    0.834
   155   1 h    0.886 --   154 o    0.843
   156   1 h    0.894 --   154 o    0.834
   157   8 o    1.853 --   158 h    0.904   159 h    0.790
   158   1 h    0.908 --   157 o    0.904
   159   1 h    0.875 --   157 o    0.790
   160   8 o    1.857 --   162 h    0.830   161 h    0.823
   161   1 h    0.877 --   160 o    0.823
   162   1 h    0.880 --   160 o    0.830
   163   8 o    1.794 --   165 h    0.855   164 h    0.855
   164   1 h    0.893 --   163 o    0.855
   165   1 h    0.889 --   163 o    0.855
   166   8 o    1.859 --   167 h    0.821   168 h    0.810
   167   1 h    0.878 --   166 o    0.821
   168   1 h    0.883 --   166 o    0.810
   169   8 o    1.824 --   171 h    0.843   170 h    0.813
   170   1 h    0.878 --   169 o    0.813
   171   1 h    0.899 --   169 o    0.843
   172   8 o    1.879 --   173 h    0.839   174 h    0.797
   173   1 h    0.875 --   172 o    0.839
   174   1 h    0.874 --   172 o    0.797
   175   8 o    1.821 --   177 h    0.816   176 h    0.814
   176   1 h    0.875 --   175 o    0.814
   177   1 h    0.886 --   175 o    0.816
   178   8 o    1.864 --   179 h    0.858   180 h    0.791
   179   1 h    0.892 --   178 o    0.858
   180   1 h    0.867 --   178 o    0.791
   181   8 o    1.876 --   182 h    0.821   183 h    0.797
   182   1 h    0.893 --   181 o    0.821
   183   1 h    0.868 --   181 o    0.797
   184   8 o    1.859 --   185 h    0.852   186 h    0.798
   185   1 h    0.883 --   184 o    0.852
   186   1 h    0.871 --   184 o    0.798
   187   8 o    1.850 --   189 h    0.867   188 h    0.827
   188   1 h    0.883 --   187 o    0.827
   189   1 h    0.892 --   187 o    0.867
   190   8 o    1.822 --   191 h    0.850   192 h    0.817
   191   1 h    0.892 --   190 o    0.850
   192   1 h    0.888 --   190 o    0.817
   193   8 o    1.840 --   194 h    0.833   195 h    0.833
   194   1 h    0.883 --   193 o    0.833
   195   1 h    0.885 --   193 o    0.833
   196   8 o    1.861 --   198 h    0.824   197 h    0.808
   197   1 h    0.878 --   196 o    0.808
   198   1 h    0.882 --   196 o    0.824
   199   8 o    1.858 --   200 h    0.856   201 h    0.806
   200   1 h    0.890 --   199 o    0.856
   201   1 h    0.869 --   199 o    0.806
   202   8 o    1.874 --   203 h    0.834   204 h    0.791
   203   1 h    0.883 --   202 o    0.834
   204   1 h    0.870 --   202 o    0.791
   205   8 o    1.810 --   207 h    0.827   206 h    0.802
   206   1 h    0.873 --   205 o    0.802
   207   1 h    0.891 --   205 o    0.827
   208   8 o    1.808 --   210 h    0.821   209 h    0.805
   209   1 h    0.881 --   208 o    0.805
   210   1 h    0.883 --   208 o    0.821
   211   8 o    1.892 --   212 h    0.838   213 h    0.820
   212   1 h    0.883 --   211 o    0.838
   213   1 h    0.885 --   211 o    0.820
   214   8 o    1.856 --   215 h    0.815   216 h    0.809
   215   1 h    0.878 --   214 o    0.815
   216   1 h    0.882 --   214 o    0.809
   217   8 o    1.859 --   218 h    0.865   219 h    0.790
   218   1 h    0.895 --   217 o    0.865
   219   1 h    0.870 --   217 o    0.790
   220   8 o    1.849 --   221 h    0.840   222 h    0.797
   221   1 h    0.894 --   220 o    0.840
   222   1 h    0.876 --   220 o    0.797
   223   8 o    1.893 --   225 h    0.832   224 h    0.806
   224   1 h    0.878 --   223 o    0.806
   225   1 h    0.889 --   223 o    0.832
   226   8 o    1.838 --   228 h    0.821   227 h    0.811
   227   1 h    0.880 --   226 o    0.811
   228   1 h    0.886 --   226 o    0.821
   229   8 o    1.868 --   230 h    0.820   231 h    0.818
   230   1 h    0.878 --   229 o    0.820
   231   1 h    0.883 --   229 o    0.818
   232   8 o    1.840 --   234 h    0.826   233 h    0.787
   233   1 h    0.875 --   232 o    0.787
   234   1 h    0.892 --   232 o    0.826
   235   8 o    1.861 --   237 h    0.848   236 h    0.805
   236   1 h    0.871 --   235 o    0.805
   237   1 h    0.885 --   235 o    0.848
   238   8 o    1.824 --   239 h    0.843   240 h    0.831
   239   1 h    0.887 --   238 o    0.843
   240   1 h    0.885 --   238 o    0.831
   241   8 o    1.795 --   242 h    0.868   243 h    0.823
   242   1 h    0.897 --   241 o    0.868
   243   1 h    0.879 --   241 o    0.823
   244   8 o    1.877 --   245 h    0.839   246 h    0.827
   245   1 h    0.884 --   244 o    0.839
   246   1 h    0.882 --   244 o    0.827
   247   8 o    1.844 --   248 h    0.860   249 h    0.817
   248   1 h    0.891 --   247 o    0.860
   249   1 h    0.870 --   247 o    0.817
   250   8 o    1.859 --   252 h    0.844   251 h    0.816
   251   1 h    0.889 --   250 o    0.816
   252   1 h    0.894 --   250 o    0.844
   253   8 o    1.806 --   255 h    0.829   254 h    0.792
   254   1 h    0.873 --   253 o    0.792
   255   1 h    0.886 --   253 o    0.829
   256   8 o    1.889 --   258 h    0.832   257 h    0.788
   257   1 h    0.873 --   256 o    0.788
   258   1 h    0.886 --   256 o    0.832
   259   8 o    1.823 --   261 h    0.830   260 h    0.817
   260   1 h    0.881 --   259 o    0.817
   261   1 h    0.890 --   259 o    0.830
   262   8 o    1.828 --   263 h    0.822   264 h    0.820
   263   1 h    0.882 --   262 o    0.822
   264   1 h    0.883 --   262 o    0.820
   265   8 o    1.856 --   266 h    0.850   267 h    0.830
   266   1 h    0.886 --   265 o    0.850
   267   1 h    0.889 --   265 o    0.830
   268   8 o    1.832 --   269 h    0.826   270 h    0.819
   269   1 h    0.888 --   268 o    0.826
   270   1 h    0.878 --   268 o    0.819
   271   8 o    1.859 --   273 h    0.815   272 h    0.788
   272   1 h    0.875 --   271 o    0.788
   273   1 h    0.881 --   271 o    0.815
   274   8 o    1.841 --   275 h    0.838   276 h    0.805
   275   1 h    0.880 --   274 o    0.838
   276   1 h    0.879 --   274 o    0.805
   277   8 o    1.871 --   278 h    0.835   279 h    0.786
   278   1 h    0.892 --   277 o    0.835
   279   1 h    0.877 --   277 o    0.786
   280   8 o    1.858 --   281 h    0.899   282 h    0.780
   281   1 h    0.903 --   280 o    0.899
   282   1 h    0.877 --   280 o    0.780
   283   8 o    1.863 --   284 h    0.821   285 h    0.805
   284   1 h    0.889 --   283 o    0.821
   285   1 h    0.876 --   283 o    0.805
   286   8 o    1.859 --   287 h    0.821   288 h    0.801
   287   1 h    0.883 --   286 o    0.821
   288   1 h    0.874 --   286 o    0.801
   289   8 o    1.864 --   290 h    0.822   291 h    0.774
   290   1 h    0.878 --   289 o    0.822
   291   1 h    0.867 --   289 o    0.774
   292   8 o    1.846 --   293 h    0.870   294 h    0.792
   293   1 h    0.893 --   292 o    0.870
   294   1 h    0.866 --   292 o    0.792
   295   8 o    1.822 --   296 h    0.845   297 h    0.840
   296   1 h    0.889 --   295 o    0.845
   297   1 h    0.896 --   295 o    0.840
   298   8 o    1.838 --   299 h    0.804   300 h    0.782
   299   1 h    0.872 --   298 o    0.804
   300   1 h    0.873 --   298 o    0.782
   301   8 o    1.862 --   303 h    0.816   302 h    0.813
   302   1 h    0.880 --   301 o    0.813
   303   1 h    0.889 --   301 o    0.816
   304   8 o    1.836 --   306 h    0.881   305 h    0.819
   305   1 h    0.879 --   304 o    0.819
   306   1 h    0.893 --   304 o    0.881
   307   8 o    1.903 --   308 h    0.813   309 h    0.811   746 h    0.102
   308   1 h    0.878 --   307 o    0.813
   309   1 h    0.885 --   307 o    0.811
   310   8 o    1.812 --   312 h    0.894   311 h    0.803
   311   1 h    0.879 --   310 o    0.803
   312   1 h    0.903 --   310 o    0.894
   313   8 o    1.823 --   315 h    0.885   314 h    0.836
   314   1 h    0.874 --   313 o    0.836
   315   1 h    0.897 --   313 o    0.885
   316   8 o    1.832 --   317 h    0.874   318 h    0.801
   317   1 h    0.897 --   316 o    0.874
   318   1 h    0.880 --   316 o    0.801
   319   8 o    1.873 --   321 h    0.811   320 h    0.790
   320   1 h    0.873 --   319 o    0.790
   321   1 h    0.885 --   319 o    0.811
   322   8 o    1.837 --   324 h    0.843   323 h    0.833
   323   1 h    0.886 --   322 o    0.833
   324   1 h    0.879 --   322 o    0.843
   325   8 o    1.850 --   327 h    0.828   326 h    0.827
   326   1 h    0.879 --   325 o    0.827
   327   1 h    0.876 --   325 o    0.828
   328   8 o    1.838 --   330 h    0.902   329 h    0.789
   329   1 h    0.869 --   328 o    0.789
   330   1 h    0.908 --   328 o    0.902
   331   8 o    1.807 --   332 h    0.857   333 h    0.846
   332   1 h    0.891 --   331 o    0.857
   333   1 h    0.882 --   331 o    0.846
   334   8 o    1.792 --   336 h    0.837   335 h    0.822
   335   1 h    0.885 --   334 o    0.822
   336   1 h    0.892 --   334 o    0.837
   337   8 o    1.792 --   339 h    0.880   338 h    0.819
   338   1 h    0.878 --   337 o    0.819
   339   1 h    0.902 --   337 o    0.880
   340   8 o    1.816 --   341 h    0.865   342 h    0.830
   341   1 h    0.893 --   340 o    0.865
   342   1 h    0.879 --   340 o    0.830
   343   8 o    1.868 --   344 h    0.837   345 h    0.792
   344   1 h    0.897 --   343 o    0.837
   345   1 h    0.873 --   343 o    0.792
   346   8 o    1.837 --   347 h    0.846   348 h    0.835
   347   1 h    0.897 --   346 o    0.846
   348   1 h    0.889 --   346 o    0.835
   349   8 o    1.835 --   351 h    0.845   350 h    0.828
   350   1 h    0.883 --   349 o    0.828
   351   1 h    0.887 --   349 o    0.845
   352   8 o    1.835 --   353 h    0.858   354 h    0.821
   353   1 h    0.891 --   352 o    0.858
   354   1 h    0.876 --   352 o    0.821
   355   8 o    1.834 --   357 h    0.879   356 h    0.797
   356   1 h    0.865 --   355 o    0.797
   357   1 h    0.899 --   355 o    0.879
   358   8 o    1.856 --   359 h    0.843   360 h    0.824
   359   1 h    0.887 --   358 o    0.843
   360   1 h    0.893 --   358 o    0.824
   361   8 o    1.838 --   362 h    0.872   363 h    0.825
   362   1 h    0.891 --   361 o    0.872
   363   1 h    0.883 --   361 o    0.825
[...]
   370   8 o    1.835 --   372 h    0.826   371 h    0.793
   371   1 h    0.866 --   370 o    0.793
   372   1 h    0.891 --   370 o    0.826
   373   8 o    1.814 --   374 h    0.864   375 h    0.804
   374   1 h    0.892 --   373 o    0.864
   375   1 h    0.874 --   373 o    0.804
   376   8 o    1.872 --   377 h    0.830   378 h    0.805
   377   1 h    0.879 --   376 o    0.830
   378   1 h    0.881 --   376 o    0.805
   379   8 o    1.847 --   381 h    0.862   380 h    0.806
   380   1 h    0.882 --   379 o    0.806
   381   1 h    0.892 --   379 o    0.862
   382   8 o    1.829 --   383 h    0.860   384 h    0.854
   383   1 h    0.891 --   382 o    0.860
   384   1 h    0.879 --   382 o    0.854
   385   8 o    1.830 --   386 h    0.881   387 h    0.845
   386   1 h    0.890 --   385 o    0.881
   387   1 h    0.881 --   385 o    0.845
   388   8 o    1.830 --   390 h    0.838   389 h    0.757
   389   1 h    0.873 --   388 o    0.757   145 o    0.107
   390   1 h    0.892 --   388 o    0.838
   391   8 o    1.876 --   392 h    0.884   393 h    0.782
   392   1 h    0.900 --   391 o    0.884
   393   1 h    0.863 --   391 o    0.782
   394   8 o    1.845 --   396 h    0.853   395 h    0.773
   395   1 h    0.865 --   394 o    0.773
   396   1 h    0.890 --   394 o    0.853
   397   8 o    1.873 --   399 h    0.848   398 h    0.768
   398   1 h    0.864 --   397 o    0.768
   399   1 h    0.887 --   397 o    0.848
   400   8 o    1.844 --   401 h    0.844   402 h    0.837
   401   1 h    0.890 --   400 o    0.844
   402   1 h    0.886 --   400 o    0.837
   403   8 o    1.824 --   405 h    0.872   404 h    0.837
   404   1 h    0.883 --   403 o    0.837
   405   1 h    0.894 --   403 o    0.872
   406   8 o    1.832 --   407 h    0.834   408 h    0.802
   407   1 h    0.896 --   406 o    0.834
   408   1 h    0.879 --   406 o    0.802
   409   8 o    1.849 --   410 h    0.843   411 h    0.840
   410   1 h    0.882 --   409 o    0.843
   411   1 h    0.888 --   409 o    0.840
   412   8 o    1.813 --   414 h    0.805   413 h    0.803
   413   1 h    0.882 --   412 o    0.803
   414   1 h    0.874 --   412 o    0.805
   415   8 o    1.867 --   416 h    0.837   417 h    0.817
   416   1 h    0.885 --   415 o    0.837
   417   1 h    0.883 --   415 o    0.817
   418   8 o    1.830 --   419 h    0.872   420 h    0.862
   419   1 h    0.889 --   418 o    0.872
   420   1 h    0.884 --   418 o    0.862
   421   8 o    1.861 --   422 h    0.840   423 h    0.805
   422   1 h    0.889 --   421 o    0.840
   423   1 h    0.871 --   421 o    0.805
   424   8 o    1.802 --   426 h    0.868   425 h    0.846
   425   1 h    0.886 --   424 o    0.846
   426   1 h    0.892 --   424 o    0.868
   427   8 o    1.869 --   429 h    0.831   428 h    0.824
   428   1 h    0.880 --   427 o    0.824
   429   1 h    0.872 --   427 o    0.831
   430   8 o    1.888 --   432 h    0.817   431 h    0.807
   431   1 h    0.873 --   430 o    0.807
   432   1 h    0.880 --   430 o    0.817
   433   8 o    1.809 --   435 h    0.874   434 h    0.795
   434   1 h    0.879 --   433 o    0.795
   435   1 h    0.898 --   433 o    0.874
   436   8 o    1.884 --   437 h    0.822   438 h    0.788
   437   1 h    0.879 --   436 o    0.822
   438   1 h    0.875 --   436 o    0.788
   439   8 o    1.824 --   440 h    0.856   441 h    0.805
   440   1 h    0.898 --   439 o    0.856
   441   1 h    0.872 --   439 o    0.805
   442   8 o    1.873 --   444 h    0.848   443 h    0.844
   443   1 h    0.885 --   442 o    0.844
   444   1 h    0.883 --   442 o    0.848
   445   8 o    1.845 --   447 h    0.899   446 h    0.809
   446   1 h    0.874 --   445 o    0.809
   447   1 h    0.903 --   445 o    0.899
   448   8 o    1.827 --   450 h    0.847   449 h    0.827
   449   1 h    0.887 --   448 o    0.827
   450   1 h    0.891 --   448 o    0.847
   451   8 o    1.857 --   453 h    0.836   452 h    0.808
   452   1 h    0.872 --   451 o    0.808
   453   1 h    0.895 --   451 o    0.836
   454   8 o    1.830 --   455 h    0.851   456 h    0.850
   455   1 h    0.887 --   454 o    0.851
   456   1 h    0.884 --   454 o    0.850
   457   8 o    1.875 --   458 h    0.880   459 h    0.793
   458   1 h    0.900 --   457 o    0.880
   459   1 h    0.885 --   457 o    0.793
   460   8 o    1.838 --   461 h    0.853   462 h    0.842
   461   1 h    0.886 --   460 o    0.853
   462   1 h    0.887 --   460 o    0.842
   463   8 o    1.839 --   464 h    0.842   465 h    0.812
   464   1 h    0.894 --   463 o    0.842
   465   1 h    0.883 --   463 o    0.812
   466   8 o    1.861 --   467 h    0.857   468 h    0.795
   467   1 h    0.899 --   466 o    0.857
   468   1 h    0.880 --   466 o    0.795
   469   8 o    1.817 --   471 h    0.886   470 h    0.848
   470   1 h    0.885 --   469 o    0.848
   471   1 h    0.895 --   469 o    0.886
   472   8 o    1.824 --   473 h    0.898   474 h    0.788
   473   1 h    0.906 --   472 o    0.898
   474   1 h    0.871 --   472 o    0.788
   475   8 o    1.852 --   477 h    0.825   476 h    0.816
   476   1 h    0.881 --   475 o    0.816
   477   1 h    0.887 --   475 o    0.825
   478   8 o    1.792 --   480 h    0.838   479 h    0.828
   479   1 h    0.884 --   478 o    0.828
   480   1 h    0.890 --   478 o    0.838
   481   8 o    1.825 --   483 h    0.815   482 h    0.794
   482   1 h    0.885 --   481 o    0.794
   483   1 h    0.879 --   481 o    0.815
   484   8 o    1.838 --   485 h    0.842   486 h    0.829
   485   1 h    0.894 --   484 o    0.842
   486   1 h    0.878 --   484 o    0.829
   487   8 o    1.874 --   488 h    0.861   489 h    0.816
   488   1 h    0.891 --   487 o    0.861
   489   1 h    0.885 --   487 o    0.816
   490   8 o    1.844 --   492 h    0.837   491 h    0.834
   491   1 h    0.882 --   490 o    0.834
   492   1 h    0.886 --   490 o    0.837
   493   8 o    1.880 --   495 h    0.831   494 h    0.821
   494   1 h    0.889 --   493 o    0.821
   495   1 h    0.878 --   493 o    0.831
   496   8 o    1.848 --   497 h    0.811   498 h    0.810
   497   1 h    0.880 --   496 o    0.811
   498   1 h    0.881 --   496 o    0.810
   499   8 o    1.813 --   500 h    0.871   501 h    0.842
   500   1 h    0.884 --   499 o    0.871
   501   1 h    0.885 --   499 o    0.842
   502   8 o    1.833 --   503 h    0.864   504 h    0.793
   503   1 h    0.895 --   502 o    0.864
   504   1 h    0.871 --   502 o    0.793
   505   8 o    1.801 --   506 h    0.858   507 h    0.844
   506   1 h    0.898 --   505 o    0.858
   507   1 h    0.899 --   505 o    0.844
   508   8 o    1.819 --   510 h    0.876   509 h    0.835
   509   1 h    0.890 --   508 o    0.835
   510   1 h    0.899 --   508 o    0.876
   511   8 o    1.867 --   512 h    0.828   513 h    0.818
   512   1 h    0.889 --   511 o    0.828
   513   1 h    0.881 --   511 o    0.818
   514   8 o    1.866 --   515 h    0.860   516 h    0.789
   515   1 h    0.892 --   514 o    0.860
   516   1 h    0.863 --   514 o    0.789
   517   8 o    1.877 --   518 h    0.857   519 h    0.797
   518   1 h    0.893 --   517 o    0.857
   519   1 h    0.885 --   517 o    0.797
   520   8 o    1.824 --   522 h    0.863   521 h    0.810
   521   1 h    0.877 --   520 o    0.810
   522   1 h    0.895 --   520 o    0.863
   523   8 o    1.845 --   525 h    0.862   524 h    0.792
   524   1 h    0.867 --   523 o    0.792
   525   1 h    0.897 --   523 o    0.862
   526   8 o    1.821 --   527 h    0.861   528 h    0.799
   527   1 h    0.896 --   526 o    0.861
   528   1 h    0.878 --   526 o    0.799
   529   8 o    1.877 --   531 h    0.821   530 h    0.775
   530   1 h    0.860 --   529 o    0.775
   531   1 h    0.880 --   529 o    0.821
   532   8 o    1.860 --   534 h    0.900   533 h    0.778
   533   1 h    0.875 --   532 o    0.778
   534   1 h    0.906 --   532 o    0.900
   535   8 o    1.837 --   536 h    0.831   537 h    0.797
   536   1 h    0.876 --   535 o    0.831
   537   1 h    0.888 --   535 o    0.797
   538   8 o    1.811 --   539 h    0.856   540 h    0.824
   539   1 h    0.890 --   538 o    0.856
   540   1 h    0.871 --   538 o    0.824
   541   8 o    1.809 --   542 h    0.890   543 h    0.832
   542   1 h    0.900 --   541 o    0.890
   543   1 h    0.887 --   541 o    0.832
   544   8 o    1.856 --   545 h    0.838   546 h    0.806
   545   1 h    0.895 --   544 o    0.838
   546   1 h    0.875 --   544 o    0.806
   547   8 o    1.824 --   548 h    0.866   549 h    0.806
   548   1 h    0.892 --   547 o    0.866
   549   1 h    0.880 --   547 o    0.806
   550   8 o    1.817 --   551 h    0.870   552 h    0.796
   551   1 h    0.896 --   550 o    0.870
   552   1 h    0.881 --   550 o    0.796
   553   8 o    1.812 --   555 h    0.856   554 h    0.843
   554   1 h    0.887 --   553 o    0.843
   555   1 h    0.893 --   553 o    0.856
   556   8 o    1.851 --   557 h    0.827   558 h    0.816
   557   1 h    0.898 --   556 o    0.827
   558   1 h    0.879 --   556 o    0.816
   559   8 o    1.831 --   560 h    0.861   561 h    0.805
   560   1 h    0.890 --   559 o    0.861
   561   1 h    0.875 --   559 o    0.805
   562   8 o    1.869 --   563 h    0.836   564 h    0.826
   563   1 h    0.887 --   562 o    0.836
   564   1 h    0.888 --   562 o    0.826
   565   8 o    1.831 --   567 h    0.863   566 h    0.862
   566   1 h    0.886 --   565 o    0.862
   567   1 h    0.886 --   565 o    0.863
   568   8 o    1.820 --   569 h    0.891   570 h    0.792
   569   1 h    0.906 --   568 o    0.891
   570   1 h    0.872 --   568 o    0.792
   571   8 o    1.832 --   572 h    0.851   573 h    0.847
   572   1 h    0.886 --   571 o    0.851
   573   1 h    0.884 --   571 o    0.847
   574   8 o    1.831 --   576 h    0.845   575 h    0.818
   575   1 h    0.876 --   574 o    0.818
   576   1 h    0.895 --   574 o    0.845
   577   8 o    1.846 --   578 h    0.822   579 h    0.790
   578   1 h    0.884 --   577 o    0.822
   579   1 h    0.878 --   577 o    0.790
   580   8 o    1.832 --   582 h    0.899   581 h    0.839
   581   1 h    0.886 --   580 o    0.839
   582   1 h    0.909 --   580 o    0.899
   583   8 o    1.842 --   584 h    0.897   585 h    0.811
   584   1 h    0.905 --   583 o    0.897
   585   1 h    0.868 --   583 o    0.811
   586   8 o    1.842 --   587 h    0.846   588 h    0.780
   587   1 h    0.893 --   586 o    0.846
   588   1 h    0.867 --   586 o    0.780
   589   8 o    1.820 --   590 h    0.873   591 h    0.835
   590   1 h    0.893 --   589 o    0.873
   591   1 h    0.883 --   589 o    0.835
   592   8 o    1.838 --   594 h    0.867   593 h    0.817
   593   1 h    0.871 --   592 o    0.817
   594   1 h    0.899 --   592 o    0.867
   595   8 o    1.831 --   596 h    0.860   597 h    0.790
   596   1 h    0.893 --   595 o    0.860
   597   1 h    0.868 --   595 o    0.790
   598   8 o    1.811 --   599 h    0.894   600 h    0.776
   599   1 h    0.905 --   598 o    0.894
   600   1 h    0.868 --   598 o    0.776
   601   8 o    1.853 --   603 h    0.890   602 h    0.803
   602   1 h    0.879 --   601 o    0.803
   603   1 h    0.900 --   601 o    0.890
   604   8 o    1.833 --   606 h    0.863   605 h    0.852
   605   1 h    0.881 --   604 o    0.852
   606   1 h    0.888 --   604 o    0.863
   607   8 o    1.818 --   609 h    0.866   608 h    0.832
   608   1 h    0.886 --   607 o    0.832
   609   1 h    0.893 --   607 o    0.866
   610   8 o    1.843 --   612 h    0.876   611 h    0.808
   611   1 h    0.876 --   610 o    0.808
   612   1 h    0.899 --   610 o    0.876
   613   8 o    1.814 --   614 h    0.863   615 h    0.852
   614   1 h    0.894 --   613 o    0.863
   615   1 h    0.885 --   613 o    0.852
   616   8 o    1.809 --   618 h    0.836   617 h    0.830
   617   1 h    0.895 --   616 o    0.830
   618   1 h    0.892 --   616 o    0.836
   619   8 o    1.890 --   621 h    0.838   620 h    0.795
   620   1 h    0.874 --   619 o    0.795
   621   1 h    0.888 --   619 o    0.838
   622   8 o    1.842 --   624 h    0.867   623 h    0.821
   623   1 h    0.875 --   622 o    0.821
   624   1 h    0.888 --   622 o    0.867
   625   8 o    1.835 --   627 h    0.849   626 h    0.766
   626   1 h    0.867 --   625 o    0.766
   627   1 h    0.895 --   625 o    0.849
   628   8 o    1.862 --   630 h    0.846   629 h    0.842
   629   1 h    0.885 --   628 o    0.842
   630   1 h    0.886 --   628 o    0.846
   631   8 o    1.859 --   633 h    0.813   632 h    0.780
   632   1 h    0.870 --   631 o    0.780
   633   1 h    0.880 --   631 o    0.813
   634   8 o    1.831 --   636 h    0.866   635 h    0.794
   635   1 h    0.870 --   634 o    0.794
   636   1 h    0.902 --   634 o    0.866
   637   8 o    1.843 --   639 h    0.853   638 h    0.842
   638   1 h    0.892 --   637 o    0.842
   639   1 h    0.884 --   637 o    0.853
   640   8 o    1.850 --   642 h    0.894   641 h    0.776
   641   1 h    0.865 --   640 o    0.776
   642   1 h    0.905 --   640 o    0.894
   643   8 o    1.811 --   644 h    0.869   645 h    0.842
   644   1 h    0.891 --   643 o    0.869
   645   1 h    0.886 --   643 o    0.842
   646   8 o    1.819 --   648 h    0.857   647 h    0.838
   647   1 h    0.885 --   646 o    0.838
   648   1 h    0.887 --   646 o    0.857
   649   8 o    1.846 --   650 h    0.864   651 h    0.807
   650   1 h    0.891 --   649 o    0.864
   651   1 h    0.886 --   649 o    0.807
   652   8 o    1.816 --   654 h    0.853   653 h    0.823
   653   1 h    0.880 --   652 o    0.823
   654   1 h    0.895 --   652 o    0.853
   655   8 o    1.839 --   656 h    0.890   657 h    0.824
   656   1 h    0.897 --   655 o    0.890
   657   1 h    0.875 --   655 o    0.824
   658   8 o    1.833 --   660 h    0.853   659 h    0.793
   659   1 h    0.868 --   658 o    0.793
   660   1 h    0.897 --   658 o    0.853
   661   8 o    1.810 --   662 h    0.867   663 h    0.806
   662   1 h    0.892 --   661 o    0.867
   663   1 h    0.877 --   661 o    0.806
   664   8 o    1.856 --   665 h    0.823   666 h    0.820
   665   1 h    0.889 --   664 o    0.823
   666   1 h    0.878 --   664 o    0.820
   667   8 o    1.839 --   669 h    0.901   668 h    0.826
   668   1 h    0.883 --   667 o    0.826
   669   1 h    0.904 --   667 o    0.901
   670   8 o    1.844 --   671 h    0.838   672 h    0.822
   671   1 h    0.886 --   670 o    0.838
   672   1 h    0.888 --   670 o    0.822
   673   8 o    1.836 --   675 h    0.790   674 h    0.785
   674   1 h    0.875 --   673 o    0.785
   675   1 h    0.873 --   673 o    0.790
   676   8 o    1.884 --   677 h    0.834   678 h    0.807
   677   1 h    0.887 --   676 o    0.834
   678   1 h    0.873 --   676 o    0.807
   679   8 o    1.891 --   680 h    0.837   681 h    0.797
   680   1 h    0.891 --   679 o    0.837
   681   1 h    0.872 --   679 o    0.797
   682   8 o    1.796 --   684 h    0.882   683 h    0.840
   683   1 h    0.887 --   682 o    0.840
   684   1 h    0.895 --   682 o    0.882
   685   8 o    1.879 --   686 h    0.834   687 h    0.814
   686   1 h    0.874 --   685 o    0.834
   687   1 h    0.883 --   685 o    0.814
   688   8 o    1.873 --   689 h    0.836   690 h    0.801
   689   1 h    0.886 --   688 o    0.836
   690   1 h    0.874 --   688 o    0.801
   691   8 o    1.849 --   693 h    0.853   692 h    0.825
   692   1 h    0.883 --   691 o    0.825
   693   1 h    0.884 --   691 o    0.853
   694   8 o    1.863 --   696 h    0.824   695 h    0.802
   695   1 h    0.876 --   694 o    0.802
   696   1 h    0.892 --   694 o    0.824
   697   8 o    1.836 --   699 h    0.867   698 h    0.816
   698   1 h    0.883 --   697 o    0.816
   699   1 h    0.896 --   697 o    0.867
   700   8 o    1.837 --   701 h    0.868   702 h    0.866
   701   1 h    0.887 --   700 o    0.868
   702   1 h    0.880 --   700 o    0.866
   703   8 o    1.821 --   705 h    0.887   704 h    0.824
   704   1 h    0.875 --   703 o    0.824
   705   1 h    0.907 --   703 o    0.887
   706   8 o    1.804 --   707 h    0.850   708 h    0.777
   707   1 h    0.892 --   706 o    0.850
   708   1 h    0.872 --   706 o    0.777
   709   8 o    1.820 --   711 h    0.837   710 h    0.835
   710   1 h    0.886 --   709 o    0.835
   711   1 h    0.886 --   709 o    0.837
   712   8 o    1.844 --   713 h    0.859   714 h    0.806
   713   1 h    0.890 --   712 o    0.859
   714   1 h    0.869 --   712 o    0.806
   715   8 o    1.855 --   717 h    0.831   716 h    0.818
   716   1 h    0.886 --   715 o    0.818
   717   1 h    0.882 --   715 o    0.831
   718   8 o    1.841 --   720 h    0.822   719 h    0.818
   719   1 h    0.884 --   718 o    0.818
   720   1 h    0.890 --   718 o    0.822
   721   8 o    1.842 --   723 h    0.841   722 h    0.819
   722   1 h    0.886 --   721 o    0.819
   723   1 h    0.889 --   721 o    0.841
   724   8 o    1.866 --   726 h    0.832   725 h    0.826
   725   1 h    0.880 --   724 o    0.826
   726   1 h    0.891 --   724 o    0.832
   727   8 o    1.845 --   728 h    0.822   729 h    0.808
   728   1 h    0.884 --   727 o    0.822
   729   1 h    0.886 --   727 o    0.808
   730   8 o    1.834 --   731 h    0.892   732 h    0.792
   731   1 h    0.901 --   730 o    0.892
   732   1 h    0.876 --   730 o    0.792
   733   8 o    1.841 --   735 h    0.849   734 h    0.816
   734   1 h    0.882 --   733 o    0.816
   735   1 h    0.885 --   733 o    0.849
   736   8 o    1.837 --   737 h    0.814   738 h    0.813
   737   1 h    0.891 --   736 o    0.814
   738   1 h    0.885 --   736 o    0.813
   739   8 o    1.825 --   741 h    0.884   740 h    0.770
   740   1 h    0.869 --   739 o    0.770
   741   1 h    0.905 --   739 o    0.884
   742   8 o    1.825 --   744 h    0.833   743 h    0.790
   743   1 h    0.868 --   742 o    0.790
   744   1 h    0.891 --   742 o    0.833
   745   8 o    1.826 --   747 h    0.899   746 h    0.763
   746   1 h    0.868 --   745 o    0.763   307 o    0.102
   747   1 h    0.907 --   745 o    0.899
   748   8 o    1.814 --   750 h    0.878   749 h    0.816
   749   1 h    0.871 --   748 o    0.816
   750   1 h    0.896 --   748 o    0.878
   751   8 o    1.816 --   752 h    0.889   753 h    0.832
   752   1 h    0.898 --   751 o    0.889
   753   1 h    0.883 --   751 o    0.832
   754   8 o    1.804 --   755 h    0.866   756 h    0.861
   755   1 h    0.888 --   754 o    0.866
   756   1 h    0.890 --   754 o    0.861
 ---------------------------------------------------------------------------

Topologies differ in total number of bonds
Writing topology from bond orders to xtbtopo.mol

molecular dipole:
                 x           y           z       tot (Debye)
 q only:        3.326      -0.198       0.546
   full:        3.410       0.199       1.140       9.153
molecular quadrupole (traceless):
                xx          xy          yy          xz          yz          zz
 q only:       75.574      13.444     -27.521      -9.289     -49.020     -48.053
  q+dip:       89.422      11.461     -47.291     -28.742     -53.797     -42.131
   full:       90.219      11.237     -48.390     -30.849     -52.832     -41.829


           -------------------------------------------------
          | TOTAL ENERGY            -1283.601145428538 Eh   |
          | GRADIENT NORM               0.094588682833 Eh/α |
          | HOMO-LUMO GAP               7.923648555117 eV   |
           -------------------------------------------------

------------------------------------------------------------------------
 * finished run on 2022/11/24 at 09:28:08.380     
------------------------------------------------------------------------
 total:
 * wall-time:     0 d,  0 h,  0 min, 21.854 sec
 *  cpu-time:     0 d,  0 h,  0 min, 35.205 sec
 * ratio c/w:     1.611 speedup
 SCF:
 * wall-time:     0 d,  0 h,  0 min, 20.833 sec
 *  cpu-time:     0 d,  0 h,  0 min, 33.496 sec
 * ratio c/w:     1.608 speedup

