756
 energy: -1283.333538355872 gnorm: 0.013279851973 xtb: 6.5.1 (579679a)
o           -3.03327400828165       -6.98070043625110       -3.86959252349053
h           -3.44866835764255       -6.85641615098189       -4.74698333708900
h           -3.68595493902802       -7.38079781503124       -3.26444561663455
o            1.61938802025804       -2.95268251205858       -0.64857756922696
h            2.01194611733732       -3.78285555543760       -0.98458443615299
h            0.96192833005529       -2.71047585392978       -1.31731071688391
o            3.58729281928173        0.91516401279384       -2.02175400692753
h            4.15618861440121        1.68637227694308       -1.84303609130849
h            2.81328159289210        0.99462916362101       -1.44275302694543
o            4.65979378677779        0.07959174391591        2.29111613693683
h            5.55081025981205        0.29338799598029        2.61698088540439
h            4.44173009670907        0.75996637479278        1.64379000809385
o            1.28765488003493       -0.28010612841282       -3.27405665244253
h            0.32607037284822       -0.46636213373248       -3.29076199349260
h            1.56614830429751       -0.42342647091558       -2.36319000115002
o           -3.87716217338828       -4.43629152231403        1.32797343549455
h           -2.92818386703175       -4.24448501350905        1.11038982958150
h           -4.03312956661792       -5.33807773514859        1.01731642251659
o            3.88729531884810       -2.62605713046209        1.76296806573712
h            3.76144702212374       -2.51161825577942        2.71301158569459
h            4.66673297633397       -2.10694133142426        1.50617785646144
o           -1.50624428585529       -3.65767970645128        0.60590517388597
h           -0.79005712160056       -4.30551128214741        0.61330062459965
h           -1.68455606281169       -3.37694905499640       -0.30841783688579
o            3.29479048931896       -5.09089865638138        0.95645851356266
h            3.35445697708350       -5.15699947734881       -0.01474407743217
h            3.57757555198318       -4.18491095703639        1.20912013422153
o            2.23348119948426        2.24334135556944        3.06101303250800
h            2.23681514867505        1.28470004310949        2.97239454363007
h            1.47465559288583        2.55812446656468        2.50607321259381
o            0.59316095626827        2.80028584229785        5.10769343872339
h            0.52774310703743        1.97706065047411        5.61627027073868
h            1.28846324706023        2.68604747419657        4.42181093335752
o           -2.12572144938190        0.43588448396005        3.00203255818006
h           -2.05775683668714        1.22640116871829        2.44229996271073
h           -1.22132191608959        0.12901374313062        3.18923111161227
o           -0.06981705062235       -5.00397022614656       -5.08036973545799
h           -0.76876647107622       -4.55836891388808       -4.55804192501813
h           -0.02643878234685       -5.90005944210959       -4.69650859487197
o            0.14787219758108        2.94508655556362        1.70377180952911
h            0.23106744666225        3.86528214429067        1.40071667724584
h           -0.56094146785737        2.95835535513268        2.36497372568453
o            4.97089120091556        3.21618311411223       -1.80125669348445
h            5.89683605600902        3.24901823306549       -2.10287541890133
h            5.00552704070168        3.62615801657573       -0.91751625757529
o           -0.67376273279004       -1.90148957968538       -5.32810393337412
h           -0.23730974908286       -2.32398711348719       -6.08935975874720
h           -0.47085313831586       -0.94659862027747       -5.38760277705422
o           -1.37449587647824       -0.49042444059990       -3.02282845295074
h           -1.89612404488333       -0.33550698827289       -3.83753602126476
h           -1.62016932898568        0.20558775102611       -2.40820278737378
o           -7.73952118814974       -1.63455425165084       -3.87579576401480
h           -8.46592408375649       -2.28418830017973       -3.82479363794674
h           -8.17337958549802       -0.82407531414468       -4.20062540627806
o           -6.08238860159359        0.80605779661640       -3.73467190070811
h           -5.75905169919207       -0.11689386895488       -3.84400740816452
h           -5.29882291719083        1.38089695978465       -3.87422004766140
o           -2.59897550327483        2.43758865834763        1.14430471593461
h           -2.63804316875034        3.20827550594546        1.71279221739240
h           -3.49427391571161        2.05922556185098        1.14448413481790
o           -4.15669046335469        2.44383242796814       -4.50293947233075
h           -4.07661691378338        3.14496668931944       -3.82571327296176
h           -4.27668290172167        2.90029942071888       -5.35971316864148
o            2.37313588812757       -1.25783035560215       -5.63892215493730
h            1.91508550372393       -0.70691321441477       -4.97779413717497
h            1.71461557822290       -1.57423736844698       -6.26099721602326
o           -4.74137856600868       -2.89386103231620       -0.65285317363001
h           -4.49287568166435       -3.45629414993502        0.11459142436870
h           -3.88994249350258       -2.65179953367397       -1.07781957690303
o           -3.96073780673447       -0.28728145244700       -1.74271571621600
h           -4.61622622332013        0.28908752977934       -1.31382874350677
h           -3.26427998874969       -0.47517796501456       -1.05783973665682
o           -3.54806272112140       -1.81344976735362        2.22084723205641
h           -4.01993855884212       -2.60774578346097        1.95247157515541
h           -2.67069360542110       -2.13287101991859        2.52590778335391
o           -5.25405316394418        1.77430835288497       -0.77547947855319
h           -4.93965048741383        2.61268539490275       -0.39041485197871
h           -6.15109607841914        1.67111314235881       -0.45615700997897
o            0.52271234140418       -2.87688885719085       -7.54881634914278
h            1.27590228702547       -3.44332028083908       -7.30653685252103
h           -0.21490869466155       -3.50054031343016       -7.72605896779910
o            3.84976914122951       -1.62522858971581       -1.30682186155680
h            3.01343387802229       -1.86061713217740       -0.86099495871964
h            3.78689326856311       -0.69020718466438       -1.59530581409225
o           -7.53163753603698       -2.65826464287409       -1.39297494826385
h           -7.95552511210988       -3.48685864289963       -1.69619454113215
h           -7.30460953299967       -2.17211766257740       -2.20249921175852
o            3.67522158762396        2.14760608605130        0.71781306680324
h            2.99081529652091        2.42689529823966        0.08502668111141
h            3.35111597379326        2.42948287159978        1.59085477550501
o           -7.01467213179925       -2.79317289895761       -6.16275364903797
h           -6.50109627054743       -3.53808981614620       -5.80331011038581
h           -7.18207578546813       -2.24469162024417       -5.36038164887972
o           -4.70794014821113       -0.67815772708249        4.29258260764654
h           -4.77849046316578       -1.38112743326297        4.95844533677018
h           -4.18548462438314       -1.07158340358169        3.55357028811029
o            4.14186520413009        4.75752624961078       -5.80414978850812
h            4.80560496395001        5.00034655618254       -5.12829594611150
h            4.63211515184570        4.16004861804299       -6.40134027980255
o            4.66488587520565       -4.75181352124060        3.68105438768233
h            5.01257819994766       -5.66722279041152        3.72435288616524
h            5.10499589187330       -4.38823255227241        2.87672344360582
o            5.97188709484592       -1.37848809380789        0.35117072341966
h            6.18594491228613       -0.43874561189470        0.45968487735199
h            5.27005692385943       -1.42425187606198       -0.32088004222982
o           -6.86261778430659       -3.98506968477698        0.85314286804805
h           -7.01231744911797       -4.94482328833383        0.75545236991140
h           -6.88360399545926       -3.54350536784423       -0.01265210882598
o            1.86399400376417        3.12145739490043       -0.97184702403470
h            0.94325196388763        3.21444166547365       -0.66855702867301
h            1.78549062144743        2.88660803838897       -1.92008277586033
o            0.20679745801392       -0.35822391916499        3.97574923504168
h            0.83338472818082       -0.38360758611018        3.22748447886332
h            0.15659445537138       -1.26463747587075        4.32496088324258
o           -2.59024667918435        1.97989362961127       -2.06937117881008
h           -3.18170989951025        1.20078664539433       -2.00911932199994
h           -3.18962410887591        2.74709757893234       -1.99610516080717
o            5.06423705415470       -1.02523862458119       -3.92373937466695
h            5.54405263113897       -1.75890922441346       -3.48019047921822
h            5.20044764061770       -0.26035186374524       -3.33909759770844
o            5.62046973194928       -6.63398211481888       -1.00640615652863
h            5.38024021303728       -5.68646808872601       -0.95763588115314
h            6.10742310927100       -6.72010967732781       -1.83867854211302
o            3.71816936083914        1.85385606440491       -4.57240861888518
h            4.64219125751092        2.15047868628489       -4.47578336055010
h            3.53224602588838        1.33261898446359       -3.77342282211304
o           -4.74590809488881       -1.50766144102350       -3.95393859506533
h           -4.07173129653667       -1.10499292948200       -4.52765195893797
h           -4.44225858656005       -1.32127895891554       -3.04406527368055
o           -2.05278354024880        0.94252600775509       -7.49751916940226
h           -1.37712737573425        0.41818940070151       -7.98457061401510
h           -1.70629266289507        1.84269598953997       -7.42450674517613
o            6.36835383856281        0.72947415292143       -2.36155629280161
h            7.13288189193201        0.12063792230781       -2.33385441127181
h            6.24711627151112        1.01773234907799       -1.43155172508469
o            6.32291060607892        2.39080872578795       -4.41115271704639
h            6.34963073619997        3.30467277290212       -4.08915190012049
h            6.45511509591322        1.79468117059460       -3.64005524678642
o            2.77925261444903       -2.90258525360690       -3.51935577598463
h            3.28501023712622       -2.41107129280765       -2.85392637032111
h            2.75248888953193       -2.34084995812263       -4.31004103972681
o           -9.84435710266932       -0.41983397454928       -2.52577444326631
h          -10.40138764089000       -1.19928462543386       -2.39381895390825
h          -10.43114764382867        0.34139428962627       -2.45524899420910
o            1.44783524297392        5.06518324146709        3.69850194866402
h            0.78370754248977        5.51287571793159        4.25603969483695
h            1.15652432510133        5.23091886829074        2.78345708735888
o           -6.90643565764134        1.54774918340427       -6.17322500906638
h           -6.60355292654190        1.24842695907475       -5.28879220732127
h           -6.17447564505020        1.37583212485418       -6.78816238371447
o            2.75551624685132       -5.17489333008834       -1.66556716087374
h            3.41505674866098       -4.86079681112942       -2.31341756196765
h            2.41636914051615       -5.99598423841012       -2.06134875425422
o            0.04798132094841        0.62621213610183       -5.54447056850021
h           -0.45136356882367        1.39344957111968       -5.24310624456021
h            0.63110290224809        0.90658338768963       -6.27104857739067
o            5.21905755639111        7.40408957247034       -0.40986301947409
h            5.31028213702743        8.35372405866577       -0.33536026878619
h            4.53225383801066        7.26311650374934       -1.11389637115579
o            4.73957637427590        1.69097429961647        4.72905614625186
h            5.26056264834022        0.87329870967809        4.65156090614165
h            3.82636043800174        1.38108958946641        4.84191932868092
o            3.53057115194407        3.04240573753447        7.57806266652969
h            2.75721308009409        3.61461329664687        7.45818491435145
h            3.18487611181639        2.15750144283310        7.75664142196166
o            6.21244975892736        1.37030716756700        0.18480327765440
h            5.37086689020694        1.82346932482405        0.35505881045846
h            6.94448821431087        1.99888013694984        0.34573220252391
o           -4.50471858396561        4.12229281234584        2.94056155978323
h           -4.39066982244664        3.24929868293973        3.35419469880754
h           -4.91141730323339        4.68983006889110        3.61423311568221
o           -4.63561458452107        0.84156515242198        1.73994059797338
h           -3.94662877554332        0.34743531166606        2.20071400182410
h           -5.10168384428055        0.21067227165469        1.15339278189149
o           -5.20842420077772       -4.10794096617742       -4.68332828919461
h           -4.99255687430525       -3.17784951406870       -4.47378874023508
h           -5.18256498827685       -4.56263822479186       -3.81899493048472
o          -11.79146183612271       -0.55388955581182        0.04772300067245
h          -11.83022825992591        0.06724629256132        0.79248838437517
h          -10.83636055243404       -0.79597315705212       -0.01267437532400
o            6.20108133418205       -4.22717663331477        1.62815136534506
h            6.63301802660829       -5.10093316125061        1.53882287223238
h            5.91180939011990       -3.98149087750915        0.72750784310405
o           -6.77714572353617        3.44320187215007       -2.43630967036651
h           -6.66292151723360        2.55543704281431       -2.78907197343828
h           -7.03656778376803        3.35393041083242       -1.49208437326882
o           -4.22495457242124        3.64232943807531       -6.90534619614204
h           -3.25297769949849        3.67547245190044       -6.99473095674957
h           -4.53524074883359        2.91274272006403       -7.45437876710488
o            3.23932913766460       -3.29353801973505        7.00080274068615
h            2.53636101678369       -2.76803910838965        7.41444842780920
h            2.82455045844650       -4.16583869770557        6.81949816160710
o           -9.44460649655716        1.64296965407017        5.59861316097697
h           -8.51450774864890        1.82953065966129        5.81376239981636
h           -9.45295160928304        0.68374900366397        5.42197984836452
o           -7.59190169104562        0.47592716394480       -1.51486235675552
h           -8.37742779556680       -0.02993243732309       -1.80848543141426
h           -7.00406049088381        0.51639133229055       -2.29104472514375
o            5.44726599381885        4.49590290118335        0.45424120495684
h            6.31398637640708        4.86682903096990        0.64312867063216
h            5.14959087193631        4.02062154147870        1.25310096754080
o           -1.35632201476434       -2.92762403678375        3.18613266180004
h           -1.55135710016965       -3.87304371737045        3.07042314743540
h           -0.54662184548593       -2.78746713238724        2.65356456901033
o           -9.43256965567390        2.49739981649876       -1.82972092234397
h           -8.70142751600723        1.86933000886915       -1.67798737462123
h           -9.36016000219171        2.82065270910810       -2.74537786689171
o           -1.55277050483830       -4.60038748968934       -7.30624910234765
h           -2.15021829500883       -3.93054924883513       -6.90945704666095
h           -1.00442931971173       -4.91956344357745       -6.56149781714347
o           -2.36295549967215       -4.37261591942148       -3.85351325418261
h           -2.87785486350109       -3.94085653617864       -4.55314272777289
h           -2.68259301721682       -5.29355750817924       -3.77297100575464
o           -2.36616776547401       -2.73044968057706       -1.80269694515084
h           -1.98731487392296       -1.93010035323113       -2.20708185083366
h           -2.37683130758440       -3.39758389368226       -2.51908334628709
o            3.08467975351234        4.60628227354287       -3.06772375898565
h            3.26528486075641        4.50948799412276       -4.00798024515127
h            3.76216957235693        4.06409824274487       -2.61041465001327
o            3.26975839754137       -2.14379757320479        4.48503962069125
h            3.32769640496612       -2.61885577293006        5.33275764424228
h            2.91032675998838       -1.25233590861180        4.69672164005178
o           -4.68805916795557        4.12787301132791        0.34452877153549
h           -4.81305280385899        4.11985987457137        1.31536181756457
h           -5.28986779232140        4.78615204585513       -0.03985641490199
o           -2.75569118063494       -5.94668608248411       -0.90238124287958
h           -1.94675869658568       -5.52721524090106       -1.25174207086707
h           -3.48837607515853       -5.63535513746837       -1.46674452181991
o           -1.66300879101103        3.17946674721862        3.71445739758340
h           -2.42654931887181        2.70607415973842        4.08407188009170
h           -0.93155712347290        3.12882286521682        4.36110424798953
o            0.06316700133940        0.70344428803671        6.72043590309776
h           -0.78116397112597        0.47032728176445        6.26778793599310
h            0.39342630309899       -0.11735854921175        7.12149432808843
o           -5.75325366003008       -3.71710256903807        3.24689914316202
h           -6.09121929187436       -3.60285565863757        2.33916019127949
h           -4.98590206052290       -4.30025682313473        3.14138893465123
o          -11.23697358026635        1.53355308732162       -4.60511673285086
h          -11.66107438511973        1.42944359228063       -3.73909696769748
h          -10.76479524777374        2.38474385555058       -4.56651019183283
o           -5.08010190628295        5.43837530074375       -4.95557983873559
h           -4.89005978641485        5.09961900667252       -5.83912314666354
h           -4.20546379042954        5.48546708767444       -4.52676279901998
o           -8.76192503029436       -4.91676364733710       -2.09598467324071
h           -9.10556909211228       -4.62031658264061       -2.95391995264403
h           -9.49106052884749       -4.78445897061194       -1.46008394323764
o           -8.79571019596001       -0.92459522021898        4.98646119907066
h           -8.25572936995753       -1.05855275569034        5.77535843487907
h           -8.17286866744518       -0.81236722143075        4.24664077960919
o            1.73326147699306        3.49037573137314       -5.88266806792324
h            1.10507666527415        4.23909148760961       -5.84018831266446
h            2.62073396455623        3.87989569533450       -5.90790089828250
o            2.97338977713746        5.40650618510028       -0.16911499321003
h            2.61617830397883        4.58118293577109       -0.56214648614564
h            3.90919130981680        5.22201057681735        0.00794648856274
o            1.21782909531361        2.36605812688389       -3.44122070593385
h            1.27677891764428        1.38304970618478       -3.45255519428216
h            1.66308710540383        2.66564639898904       -4.25531852010415
o            1.77927898492346        1.36420535133301       -7.50786741804222
h            1.77035852575143        2.23247904347693       -7.06170304653609
h            2.67929572882258        1.01402109012219       -7.36777196793980
o            9.11413339261760        0.34973963625218       -4.64717620604884
h            8.34680489510781        0.04084636731024       -5.17156149929764
h            9.01551223936745        1.32123708201975       -4.61494270313940
o            8.05944755376816       -3.06797217426281       -5.20556716554301
h            7.72675269323472       -2.24732199309992       -5.60088164176641
h            8.97131203486809       -2.90164075599439       -4.89430828552031
o           -4.66153734281645        3.39371107614132        6.63905838704744
h           -4.31690477569046        2.73567545279206        7.27582957966971
h           -3.88059874686969        3.95825534806447        6.45782830576157
o            8.50175480813227       -0.46815337006609        1.30836034821427
h            8.08837323538458        0.14942391893678        1.95499276212157
h            8.82028400897978        0.08126277656073        0.57164960136378
o            7.33672940161989       -2.27310560080804        3.02001184451227
h            7.65817803689661       -1.68703779498171        2.32284089739388
h            6.94654957431973       -3.03445141287273        2.54650315574303
o            7.15276903858695        0.88351556513002        3.09690407447823
h            7.39873110716732        0.73330207626639        4.02463499060616
h            7.27226221150076        1.84975131168549        2.93890279843725
o           -5.05282561401370       -1.71053634230159       -7.50925349111327
h           -5.04019079738608       -2.18333436503647       -8.34070046187449
h           -5.83368616466750       -2.06062998822072       -6.99882560296957
o           -9.23866286456384       -1.29634601922860        0.21546249381020
h           -9.26462692145534       -1.88842604519730        0.99394273238470
h           -8.65712796611726       -1.74590906151952       -0.43052605015682
o           -6.14772908703182       -0.86116810420339        0.38779943232102
h           -6.71125638184915       -0.45490325469553       -0.29589685744770
h           -5.66565968255662       -1.59897716635150       -0.04270272663834
o            0.40240468276626        5.10670010351542       -2.84206675672155
h            1.35153593040843        4.89590948787211       -2.81206982240421
h           -0.04735137070668        4.51407022549808       -2.19395119235161
o           -3.20809012306302        1.46992711582422        7.77604462876147
h           -2.46939937379618        1.94901500677606        8.16947911495948
h           -2.86122781094377        1.10287549427863        6.93158141830841
o            9.82305168354617        1.98846331461642        2.19244834929091
h            9.45452099403746        2.44852545963313        2.96353417705216
h           10.37952697161799        1.29013736300475        2.56653320398433
o            2.10613698479900       -0.44567543975144        2.12069741184794
h            3.06959130241219       -0.42120858722153        2.27628703051295
h            1.86906498129374       -1.39796626320103        2.02534755999404
o            8.49998292989639       -0.81104692755350       -2.33985898221475
h            9.05981406235718       -0.37481957602521       -1.67030311953431
h            8.76136127304662       -0.42718937346656       -3.20150872147368
o            7.85411989301789        4.73939823019269       -6.02013776706929
h            8.33802818862219        4.03255390527164       -5.54804383806876
h            7.30581475048771        4.29232240737117       -6.67337236546430
o            4.67089478344799       -4.85942655355651       -3.50663662896441
h            4.73197736588103       -4.11527767499642       -4.13538116913139
h            5.57122429701797       -5.21574488069835       -3.36504941030078
o          -12.20687010708244        1.11678545888806       -2.04852924464361
h          -12.11891985924196        0.54428568850292       -1.25428431363094
h          -12.44472697961485        1.98406872512390       -1.71708428299404
o          -11.20244989826978        4.67606024746885       -1.61854198493622
h          -10.53373334331142        3.97469350053973       -1.62376336495179
h          -11.47419943935746        4.78950887934351       -0.70284615529183
o           -4.40586604123668        7.06762520968671        3.27767901320678
h           -4.69956456148838        6.93281356259411        4.18326600298908
h           -5.21205322884092        6.90498492417564        2.73499371605507
o           -2.31624289100578        5.28587689019186        0.33851771769334
h           -3.14591870633109        4.75496755074802        0.33609642501797
h           -2.13882919236554        5.53429257074466        1.26940283892874
o            4.69394661600957       -3.22104457456108       -5.66981615597130
h            3.78864438900056       -3.48538580163616       -5.91484782783803
h            4.64091323262968       -2.32488236750414       -5.31842582267187
o           -6.57208458056137        6.49383752242077        1.84576102085564
h           -6.32875455093692        6.37922696825409        0.91080126319876
h           -6.81951577350523        5.62857335809726        2.21721371169357
o           -0.75874281680632        7.43884969594548       -2.40137171260754
h           -0.31740941845183        6.57381573390068       -2.56916071654095
h           -0.17221801462229        8.11453020955772       -2.74035130355841
o            6.60596047671847       -5.27204187297567       -5.90035609438248
h            7.35380982643514       -4.65898146635315       -5.84213569418396
h            5.84655997877318       -4.67412273974839       -5.97105624172305
o           -4.74275458588115        0.98186597670532       -7.75510722220371
h           -3.76737661677400        0.99262925750670       -7.73961916554106
h           -4.95462768952436        0.03300042473855       -7.72473083152195
o           -1.55133439767195       -2.26025654490007        8.11253053634330
h           -1.80308431561498       -2.38721871842095        7.17846963520264
h           -2.35100229608105       -1.96961762966450        8.56092126824271
o           -3.90260969552732       -6.01058756865542       -6.20132698425904
h           -3.18368431232721       -5.65192059233146       -6.73837619723314
h           -4.37788421473279       -5.25321804802159       -5.81384873030831
o           -4.96290529815622       -5.03784373730355       -2.18979745753695
h           -5.68602787476687       -5.63188181969048       -1.91992417217533
h           -5.04307327471866       -4.20307040905164       -1.67576653092736
o           -7.45290301094177        3.27960394742799        0.15817651062481
h           -7.98101147184504        4.07776137537748        0.32954374112602
h           -7.92470865496866        2.52703494344936        0.54939979752808
o           -6.92336350107073       -6.75269300220478       -1.47855610032390
h           -7.67006049269454       -6.24181128240323       -1.83702515776632
h           -7.09806445586243       -6.83050254488628       -0.52942767198128
o            8.15522714878189       -2.12177104734811        5.57973570542866
h            7.41624628694219       -2.62313799703311        5.94708997984630
h            8.07538574298966       -2.25214896915225        4.61584282625557
o           -1.50915201618532        3.56764088580462       -6.73574698547739
h           -1.46586026620200        3.28229653237811       -5.79908758477745
h           -0.98048989453281        4.36947282101340       -6.77144002946573
o            6.11414545724751        5.14112755902148       -4.07259660725641
h            6.37642382961406        5.72507605464417       -3.35062589793892
h            6.80316390262224        5.19010911617680       -4.77165537869998
o          -11.90883710613310       -2.24148574064180       -2.40132921241190
h          -12.34115298392416       -1.73601155763771       -1.70516070610031
h          -12.20007906171253       -1.85794945332473       -3.25640384798035
o            4.69902868993810        3.50868257477456        2.79915486180276
h            4.29568250675926        4.29188211611194        3.21539699688516
h            4.56828059706850        2.75526278537467        3.41502058996417
o           -0.76563037566706        2.93783423173614        7.98890413631301
h           -0.02996313572019        3.56847818582730        7.94188601047489
h           -0.40669843326761        2.11058642508585        7.60910391104960
o           -2.45783710016916       -2.44152517578266        5.54541193981314
h           -1.95062959222643       -2.55415322913338        4.71413267313659
h           -2.96096962198999       -3.26876521493383        5.65194163952951
o            1.89848147996450       -5.45663917944888        6.19298888593267
h            0.94449960307211       -5.45586503692106        6.34750251239727
h            1.98492208534472       -5.17374363069503        5.26059423923756
o           -0.73660570336010        3.64024950046859       -0.98527829278858
h           -1.35803916360497        2.92777038537014       -1.19313934970385
h           -1.23752893528564        4.26043611282936       -0.41468408482705
o            2.93369217372042        0.28903889318390        7.83130786603400
h            3.76602809209902       -0.22132534636627        7.70512954444050
h            2.27020694147713       -0.34719188638871        8.12077140147878
o           -4.54771030027704       -8.07697597494171       -1.89624666557157
h           -5.48515554890312       -7.85402268572705       -1.95712216612386