      -----------------------------------------------------------      
     |                   =====================                   |     
     |                           x T B                           |     
     |                   =====================                   |     
     |                         S. Grimme                         |     
     |          Mulliken Center for Theoretical Chemistry        |     
     |                    University of Bonn                     |     
      -----------------------------------------------------------      

   * xtb version 6.5.1 (579679a) compiled by 'ehlert@majestix' on 2022-07-11

   xtb is free software: you can redistribute it and/or modify it under
   the terms of the GNU Lesser General Public License as published by
   the Free Software Foundation, either version 3 of the License, or
   (at your option) any later version.
   
   xtb is distributed in the hope that it will be useful,
   but WITHOUT ANY WARRANTY; without even the implied warranty of
   MERCHANTABILITY or FITNESS FOR A PARTICULAR PURPOSE.  See the
   GNU Lesser General Public License for more details.
   
   Cite this work as:
   * C. Bannwarth, E. Caldeweyher, S. Ehlert, A. Hansen, P. Pracht,
     J. Seibert, S. Spicher, S. Grimme, WIREs Comput. Mol. Sci., 2020, 11,
     e01493. DOI: 10.1002/wcms.1493
   
   for GFN2-xTB:
   * C. Bannwarth, S. Ehlert and S. Grimme., J. Chem. Theory Comput., 2019,
     15, 1652-1671. DOI: 10.1021/acs.jctc.8b01176
   for GFN1-xTB:
   * S. Grimme, C. Bannwarth, P. Shushkov, J. Chem. Theory Comput., 2017,
     13, 1989-2009. DOI: 10.1021/acs.jctc.7b00118
   for GFN0-xTB:
   * P. Pracht, E. Caldeweyher, S. Ehlert, S. Grimme, ChemRxiv, 2019, preprint.
     DOI: 10.26434/chemrxiv.8326202.v1
   for GFN-FF:
   * S. Spicher and S. Grimme, Angew. Chem. Int. Ed., 2020, 59, 15665-15673.
     DOI: 10.1002/anie.202004239
   
   for ALPB and GBSA implicit solvation:
   * S. Ehlert, M. Stahn, S. Spicher, S. Grimme, J. Chem. Theory Comput.,
     2021, 17, 4250-4261. DOI: 10.1021/acs.jctc.1c00471
   
   for DFT-D4:
   * E. Caldeweyher, C. Bannwarth and S. Grimme, J. Chem. Phys., 2017,
     147, 034112. DOI: 10.1063/1.4993215
   * E. Caldeweyher, S. Ehlert, A. Hansen, H. Neugebauer, S. Spicher,
     C. Bannwarth and S. Grimme, J. Chem. Phys., 2019, 150, 154122.
     DOI: 10.1063/1.5090222
   * E. Caldeweyher, J.-M. Mewes, S. Ehlert and S. Grimme, Phys. Chem. Chem. Phys.
     2020, 22, 8499-8512. DOI: 10.1039/D0CP00502A
   
   for sTDA-xTB:
   * S. Grimme and C. Bannwarth, J. Chem. Phys., 2016, 145, 054103.
     DOI: 10.1063/1.4959605
   
   in the mass-spec context:
   * V. Asgeirsson, C. Bauer and S. Grimme, Chem. Sci., 2017, 8, 4879.
     DOI: 10.1039/c7sc00601b
   * J. Koopman and S. Grimme, ACS Omega 2019, 4, 12, 15120-15133.
     DOI: 10.1021/acsomega.9b02011
   
   for metadynamics refer to:
   * S. Grimme, J. Chem. Theory Comput., 2019, 155, 2847-2862
     DOI: 10.1021/acs.jctc.9b00143
   
   for SPH calculations refer to:
   * S. Spicher and S. Grimme, J. Chem. Theory Comput., 2021, 17, 1701-1714
     DOI: 10.1021/acs.jctc.0c01306
   
   with help from (in alphabetical order)
   P. Atkinson, C. Bannwarth, F. Bohle, G. Brandenburg, E. Caldeweyher
   M. Checinski, S. Dohm, S. Ehlert, S. Ehrlich, I. Gerasimov, C. Hölzer
   A. Katbashev, J. Koopman, C. Lavigne, S. Lehtola, F. März, M. Müller,
   F. Musil, H. Neugebauer, J. Pisarek, C. Plett, P. Pracht, F. Pultar,
   J. Seibert, P. Shushkov, S. Spicher, M. Stahn, M. Steiner, T. Strunk,
   J. Stückrath, T. Rose, and J. Unsleber
   
 * started run on 2022/11/03 at 00:49:15.947     

           -------------------------------------------------
          |                Calculation Setup                |
           -------------------------------------------------

          program call               : xtb cluster.xyz --gfn2 --ohess
          hostname                   : cn0272
          coordinate file            : cluster.xyz
          omp threads                :                     1

   ID    Z sym.   atoms
    1    1 H      1, 3, 5, 6, 8, 10-12, 14, 15, 17, 18, 20, 21, 23, 24, 26,
                  27, 29, 30, 32, 33, 35, 36, 38, 39, 41, 42, 44, 45, 47, 48,
                  50, 51, 53, 54, 56, 57, 59, 60, 62, 63, 65, 66, 68, 69, 71,
                  72, 74, 75, 77, 78, 80, 81, 83, 84, 86, 87, 89, 90, 92, 93,
                  95, 96, 98, 99, 101, 102, 104, 105, 107, 108, 110, 111,
                  113, 114, 116, 117, 119, 120, 122, 123, 125, 126, 128, 129,
                  131, 132, 134, 135, 137, 138, 140, 141, 143, 144, 146, 147,
                  149, 150, 152, 153, 155, 156, 158, 159, 161, 162, 164, 165,
                  167, 168, 170, 171, 173, 174, 176, 177, 179, 180, 182, 183,
                  185, 186, 188, 189, 191, 192, 194, 195, 197, 198, 200, 201,
                  203, 204, 206, 207, 209, 210, 212, 213, 215, 216, 218, 219,
                  221, 222, 224, 225, 227, 228, 230, 231, 233, 234, 236, 237,
                  239, 240, 242, 243, 245, 246, 248, 249, 251, 252, 254, 255,
                  257, 258, 260, 261, 263, 264, 266, 267, 269, 270, 272, 273,
                  275, 276, 278, 279, 281, 282, 284, 285, 287, 288, 290, 291,
                  293, 294, 296, 297, 299, 300, 302, 303, 305, 306, 308, 309,
                  311, 312, 314, 315, 317, 318, 320, 321, 323, 324, 326, 327,
                  329, 330, 332, 333, 335, 336, 338, 339, 341, 342, 344, 345,
                  347, 348, 350, 351, 353, 354, 356, 357, 359, 360, 362, 363,
                  365, 366, 368, 369, 371, 372, 374, 375, 377, 378, 380, 381,
                  383, 384, 386, 387, 389, 390, 392, 393, 395, 396, 398, 399,
                  401, 402, 404, 405, 407, 408, 410, 411, 413, 414, 416, 417,
                  419, 420, 422, 423, 425, 426, 428, 429, 431, 432, 434, 435,
                  437, 438, 440, 441, 443, 444, 446, 447, 449, 450, 452, 453,
                  455, 456, 458, 459, 461, 462, 464, 465, 467, 468, 470, 471,
                  473, 474, 476, 477, 479, 480, 482, 483, 485, 486, 488, 489,
                  491, 492, 494, 495, 497, 498, 500, 501, 503, 504, 506, 507,
                  509, 510, 512, 513, 515, 516, 518, 519, 521, 522, 524, 525,
                  527, 528, 530, 531, 533, 534, 536, 537, 539, 540, 542, 543,
                  545, 546, 548, 549, 551, 552, 554, 555, 557, 558, 560, 561,
                  563, 564, 566, 567, 569, 570, 572, 573, 575, 576, 578, 579,
                  581, 582, 584, 585, 587, 588, 590, 591, 593, 594, 596, 597,
                  599, 600, 602, 603, 605, 606, 608, 609, 611, 612
    2    6 C      2, 4
    3    8 O      7, 13, 16, 19, 22, 25, 28, 31, 34, 37, 40, 43, 46, 49, 52,
                  55, 58, 61, 64, 67, 70, 73, 76, 79, 82, 85, 88, 91, 94, 97,
                  100, 103, 106, 109, 112, 115, 118, 121, 124, 127, 130, 133,
                  136, 139, 142, 145, 148, 151, 154, 157, 160, 163, 166, 169,
                  172, 175, 178, 181, 184, 187, 190, 193, 196, 199, 202, 205,
                  208, 211, 214, 217, 220, 223, 226, 229, 232, 235, 238, 241,
                  244, 247, 250, 253, 256, 259, 262, 265, 268, 271, 274, 277,
                  280, 283, 286, 289, 292, 295, 298, 301, 304, 307, 310, 313,
                  316, 319, 322, 325, 328, 331, 334, 337, 340, 343, 346, 349,
                  352, 355, 358, 361, 364, 367, 370, 373, 376, 379, 382, 385,
                  388, 391, 394, 397, 400, 403, 406, 409, 412, 415, 418, 421,
                  424, 427, 430, 433, 436, 439, 442, 445, 448, 451, 454, 457,
                  460, 463, 466, 469, 472, 475, 478, 481, 484, 487, 490, 493,
                  496, 499, 502, 505, 508, 511, 514, 517, 520, 523, 526, 529,
                  532, 535, 538, 541, 544, 547, 550, 553, 556, 559, 562, 565,
                  568, 571, 574, 577, 580, 583, 586, 589, 592, 595, 598, 601,
                  604, 607, 610
    4    7 N      9

molecular fragmentation (1/2 indicates fragments):
111111111111222222222222222222222222222222222222222222222222222222222222
222222222222222222222222222222222222222222222222222222222222222222222222
222222222222222222222222222222222222222222222222222222222222222222222222
222222222222222222222222222222222222222222222222222222222222222222222222
222222222222222222222222222222222222222222222222222222222222222222222222
222222222222222222222222222222222222222222222222222222222222222222222222
222222222222222222222222222222222222222222222222222222222222222222222222
222222222222222222222222222222222222222222222222222222222222222222222222
222222222222222222222222222222222222
# atoms in fragment 1/2:    12   600
 fragment masses (1/2) :       62.09     3603.06
CMA distance (Bohr)    :   2.296
constraining FC (au)   :  0.0500

           -------------------------------------------------
          |                 G F N 2 - x T B                 |
           -------------------------------------------------

        Reference                      10.1021/acs.jctc.8b01176
      * Hamiltonian:
        H0-scaling (s, p, d)           1.850000    2.230000    2.230000
        zeta-weighting                 0.500000
      * Dispersion:
        s8                             2.700000
        a1                             0.520000
        a2                             5.000000
        s9                             5.000000
      * Repulsion:
        kExp                           1.500000    1.000000
        rExp                           1.000000
      * Coulomb:
        alpha                          2.000000
        third order                    shell-resolved
        anisotropic                    true
        a3                             3.000000
        a5                             4.000000
        cn-shift                       1.200000
        cn-exp                         4.000000
        max-rad                        5.000000


          ...................................................
          :                      SETUP                      :
          :.................................................:
          :  # basis functions                1224          :
          :  # atomic orbitals                1224          :
          :  # shells                          816          :
          :  # electrons                      1626          :
          :  max. iterations                   250          :
          :  Hamiltonian                  GFN2-xTB          :
          :  restarted?                      false          :
          :  GBSA solvation                  false          :
          :  PC potential                    false          :
          :  electronic temp.          300.0000000     K    :
          :  accuracy                    1.0000000          :
          :  -> integral cutoff          0.2500000E+02      :
          :  -> integral neglect         0.1000000E-07      :
          :  -> SCF convergence          0.1000000E-05 Eh   :
          :  -> wf. convergence          0.1000000E-03 e    :
          :  Broyden damping             0.4000000          :
          ...................................................

 iter      E             dE          RMSdq      gap      omega  full diag
   1  -1039.6667418 -0.103967E+04  0.406E+00    8.00       0.0  T
   2  -1039.7831216 -0.116380E+00  0.241E+00    8.15       1.0  T
   3  -1039.8083467 -0.252251E-01  0.229E-01    8.04       1.0  T
   4  -1039.8124319 -0.408519E-02  0.909E-02    8.04       1.0  T
   5  -1039.8129518 -0.519930E-03  0.292E-02    8.06       1.0  T
   6  -1039.8129802 -0.283926E-04  0.134E-02    8.07       1.0  T
   7  -1039.8129852 -0.498370E-05  0.187E-03    8.07       2.2  T
   8  -1039.8129857 -0.450127E-06  0.631E-04    8.07       6.4  T
   9  -1039.8129857 -0.189864E-07  0.201E-04    8.07      20.1  T

   *** convergence criteria satisfied after 9 iterations ***

         #    Occupation            Energy/Eh            Energy/eV
      -------------------------------------------------------------
         1        2.0000           -0.7411895             -20.1688
       ...           ...                  ...                  ...
       807        2.0000           -0.4590687             -12.4919
       808        2.0000           -0.4584697             -12.4756
       809        2.0000           -0.4580292             -12.4636
       810        2.0000           -0.4578463             -12.4586
       811        2.0000           -0.4567114             -12.4278
       812        2.0000           -0.4551076             -12.3841
       813        2.0000           -0.4468089             -12.1583 (HOMO)
       814                         -0.1503008              -4.0899 (LUMO)
       815                         -0.1383195              -3.7639
       816                         -0.1265199              -3.4428
       817                         -0.1241220              -3.3775
       818                         -0.1122268              -3.0538
       ...                                ...                  ...
      1224                          0.3855114              10.4903
      -------------------------------------------------------------
                  HL-Gap            0.2965081 Eh            8.0684 eV
             Fermi-level           -0.2985549 Eh           -8.1241 eV

 SCC (total)                   0 d,  0 h,  0 min, 16.722 sec
 SCC setup                      ...        0 min,  0.036 sec (  0.213%)
 Dispersion                     ...        0 min,  0.087 sec (  0.518%)
 classical contributions        ...        0 min,  0.021 sec (  0.124%)
 integral evaluation            ...        0 min,  0.713 sec (  4.264%)
 iterations                     ...        0 min,  6.043 sec ( 36.138%)
 molecular gradient             ...        0 min,  9.751 sec ( 58.314%)
 printout                       ...        0 min,  0.072 sec (  0.428%)

         :::::::::::::::::::::::::::::::::::::::::::::::::::::
         ::                     SUMMARY                     ::
         :::::::::::::::::::::::::::::::::::::::::::::::::::::
         :: total energy           -1033.465792460441 Eh    ::
         :: gradient norm              0.000450104750 Eh/a0 ::
         :: HOMO-LUMO gap              8.068396738993 eV    ::
         ::.................................................::
         :: SCC energy             -1039.812985692860 Eh    ::
         :: -> isotropic ES            5.731072889108 Eh    ::
         :: -> anisotropic ES         -1.308136357921 Eh    ::
         :: -> anisotropic XC         -0.097724261404 Eh    ::
         :: -> dispersion             -0.636803775618 Eh    ::
         :: repulsion energy           6.223505005332 Eh    ::
         :: add. restraining           0.000000000000 Eh    ::
         :: total charge               1.000000000000 e     ::
         :::::::::::::::::::::::::::::::::::::::::::::::::::::

      ----------------------------------------------------------- 
     |                       L-ANC optimizer                     |
      ----------------------------------------------------------- 
          low memory version by Sebastian Ehlert

          ...................................................
          :                      SETUP                      :
          :.................................................:
          :   energy convergence        0.5000000E-05 Eh    :
          :   grad. convergence         0.1000000E-02 Eh/a0 :
          :   optimization log               true           :
          :   writing optlog all                1     steps :
          :   Hessian reset                    20     steps :
          :   maximium step len.        1.0000000     a0    :
          :   LBFGS images                     20           :
          ...................................................
 * calculating model hessian...
Using Lindh-Hessian (1995)
 Shifting diagonal of input Hessian by   1.060541986022145E-002
 Lowest  eigenvalues of input Hessian
    0.010000    0.010325    0.000000    0.000000    0.000000    0.000000
    0.000000    0.000000    0.010610    0.010621    0.010643    0.010710
    0.010726    0.010766    0.010775    0.010800    0.010806    0.010831
 Highest eigenvalues
    1.442172    1.442448    1.443800    1.456053    1.459035    1.500318
 

........................................................................
.............................. CYCLE    1 ..............................
........................................................................
   1  -1039.8128600 -0.103981E+04  0.982E-04    8.07       0.0  T
   2  -1039.8128600 -0.140897E-07  0.597E-04    8.07       6.8  T
   3  -1039.8128601 -0.460341E-08  0.681E-05    8.07      59.3  T
     SCC iter.                  ...        0 min,  1.779 sec
     gradient                   ...        0 min,  9.570 sec
 * total energy  : -1033.4657925 Eh     change       -0.1033686E-07 Eh
   gradient norm :     0.0003895 Eh/a0  converged?    E=T G=T D=F
   step length   :     0.0119465 a0

   *** GEOMETRY OPTIMIZATION CONVERGED AFTER 1 CYCLES ***

------------------------------------------------------------------------
 total energy gain   :        -0.0000000 Eh       -0.0000 kcal/mol
 total RMSD          :         0.0004829 a0        0.0003 Å
 total power (kW/mol):        -0.0000271 (step)   -0.0000 (real)
------------------------------------------------------------------------

 L-ANCopt (total)              0 d,  0 h,  0 min, 18.498 sec
 setup                          ...        0 min,  0.021 sec (  0.115%)
 model hessian                  ...        0 min,  4.676 sec ( 25.279%)
 ANC generation                 ...        0 min,  1.528 sec (  8.262%)
 coordinate transformation      ...        0 min,  0.007 sec (  0.036%)
 Rational function              ...        0 min,  0.002 sec (  0.012%)
 singlepoint calculation        ...        0 min, 12.248 sec ( 66.215%)
 optimization log               ...        0 min,  0.011 sec (  0.057%)
                                ...        0 min,  0.000 sec (  0.000%)

================
 final structure:
================
612
 xtb: 6.5.1 (579679a)
H           -2.37948762452486       -0.19459978090902       -1.24436516975931
C           -1.34790977845584       -0.40638904839813       -1.52305048634832
H           -1.33840637049041       -1.25279854245491       -2.20389700358484
C           -0.54033053313235       -0.73629858561925       -0.27859646810191
H            0.51496293473718       -0.60394195893887       -0.50127428095954
H           -0.70570503807703       -1.77308108620597       -0.01140026744782
O           -0.80780993975170        0.69165244409446       -2.24101936289791
H           -0.60344688207228        1.42289161903668       -1.61866416171796
N           -0.91491614581925        0.12839493196006        0.85785692160412
H           -0.08026669155495        0.64210587017591        1.21413514134837
H           -1.29410531194890       -0.41997316748618        1.65397840823377
H           -1.62438638713706        0.84100375672004        0.56595750084219
O            1.54056900755168        6.52239977709689        3.38583330967959
H            0.96056423446685        5.97534274511757        3.95057287930396
H            2.40935791401991        6.44560549877598        3.81902418227664
O            3.07495104035219        3.07803203726529       -3.34450282925840
H            3.98965428514026        3.38343384876105       -3.23774666974740
H            2.90430934966776        2.43571028802264       -2.62631277555445
O            6.10899973759753        3.38302374671734        0.46953696249491
H            6.67040889514551        3.02391896057022       -0.25002985241025
H            6.24547418613947        2.75398842462839        1.20495802016412
O           -2.02667617358128        1.65992078658814        3.05056332253025
H           -2.67690193185610        2.30569509676793        3.38286570295280
H           -2.56609535433179        0.83905102475397        2.98936423434041
O           -4.64232486878403        1.40281990859021       -1.52880265660785
H           -5.24470298015888        1.05930667581808       -0.84786405539031
H           -4.97863950026246        2.27649431226901       -1.76778926949717
O           -1.61142484030583       -4.07801644264850       -4.81539068453994
H           -1.00593666404773       -3.94660539301658       -5.57007766338007
H           -1.66491643740494       -5.03268515083348       -4.65102433930769
O            1.18474205799377        1.61429421331020        1.52431223512617
H            2.11055897559096        1.46810578086407        1.25779640940728
H            1.26238356119409        1.99532268254399        2.42370356247786
O            4.75695799049815        6.35370835636639       -0.51951529782458
H            5.01610603153046        6.31614670140858        0.41866999086596
H            4.32215774910179        5.49212166400873       -0.67372058103256
O            1.31116954576043       -1.59481546907552        2.49274997258530
H            1.53257135500063       -1.97969335552938        1.61853572345188
H            2.03728611176984       -1.01431823702208        2.76633479102168
O           -0.44840033169081       -3.85156255642012       -1.04181815421936
H            0.28268222652135       -3.67332740200170       -0.41822623179067
H           -0.16935436295576       -3.48404561600229       -1.90637507829041
O            1.29320951320051        4.85737925314903       -1.28844411096855
H            1.10985012446259        5.50119413382580       -0.58259000958641
H            2.20472970144966        4.55411438305967       -1.15913403636426
O            5.74576838031445        3.58960891041882       -2.95279344074827
H            5.77208512075244        4.54652277377305       -2.76681733396373
H            6.51060307176965        3.43528748739621       -3.53099606024503
O           -3.82129999833148       -0.25546972138992        2.94652614793712
H           -3.83638986135519       -1.09663572908166        3.43650053202047
H           -3.85783805224435       -0.50612122086917        1.99672750308744
O            0.09697134146104        1.76085104718309        7.80196297879476
H           -0.01911967060072        1.55144078527569        6.85940425268560
H           -0.79554108855396        1.87405831188284        8.14187593899449
O           -0.41347576934720        1.75017018014982        5.09921611678313
H           -0.94663976137274        1.47324244096306        4.31684249069005
H           -0.89322040307736        2.54543432771308        5.40442060709113
O            5.27709532624421       -2.06421551419465       -2.16159850092874
H            5.22310415006913       -3.03759243226427       -2.11374572732459
H            4.38489348880824       -1.69438119843397       -1.98934172491834
O           -3.01106290179742       -5.57321420685804        4.30060556207131
H           -2.71079434922875       -5.15739603488770        5.12016946559556
H           -3.97976902753942       -5.69700785888465        4.43199451836163
O            0.29623480411027       -4.69424841622360        1.47123189239345
H            0.17423690353963       -5.65564642686923        1.52212184408426
H            1.09174683754066       -4.50469338697475        2.00930590315479
O            1.05407614640678       -0.73169936935702        5.57123604524746
H            0.76628030605387       -1.62424637352674        5.30900805137407
H            0.34052424511976       -0.12322444670894        5.34864269070710
O           -1.14093174858116       -1.99172795280974        7.46550871192232
H           -1.43555339978057       -1.56337705551829        8.26903030900379
H           -1.36943575322796       -1.37685800597705        6.71861994369578
O            4.60605895480406        2.93762005253225        3.36119128920776
H            5.52493515658763        3.26091993752836        3.43417596319492
H            4.38610373244333        2.50450466589515        4.20329414373282
O           -1.18941298874963        4.91616779209612       -2.52447799178424
H           -1.49779787698325        4.66792905232051       -1.63641184834935
H           -0.80204169063794        5.79526228869391       -2.42564417295219
O           -4.77013215528743        2.13869431484283        1.60148906753656
H           -3.88935855861454        1.99370709678336        1.19933232545858
H           -5.34115249962312        1.42027306892181        1.25834137882975
O           -2.82118470583885       -3.52253814768048        0.20269955915604
H           -2.08440589426797       -3.62178417464314       -0.42806525348175
H           -2.40466674260364       -3.63739542225787        1.09302957741250
O            2.85070021165380       -0.99323794970714       -1.73472089318922
H            2.35273086978888       -0.77955107383741       -2.55122159729877
H            2.90020241292335       -0.13448422320978       -1.28382878746456
O            7.84567493393088        2.42000229000932       -1.24209217288643
H            7.60195316621577        1.78551331047732       -1.95675316030100
H            8.27158392540478        3.18802234762968       -1.65589206320587
O           -2.64088174103458        2.02965889443410        0.07581738098503
H           -3.26028095164843        1.83314620280872       -0.66088201169714
H           -2.29611520635462        2.93006956875836       -0.05393363499596
O            2.34342886493580        1.61027986152358       -1.22632073655909
H            1.40793124198816        1.87014701340577       -1.13336432561320
H            2.85992260139377        2.28342935269740       -0.75179343800111
O            1.25815220243258       -3.20138599909993        8.25571866534454
H            0.38012862815844       -2.98794374219557        7.90661447405012
H            1.62324683886283       -2.34614706988058        8.52064693795078
O           -1.82400603092670       -3.81323382611695        2.58835412829480
H           -2.17972135097334       -4.50449903097262        3.17480999377526
H           -0.95176162013569       -4.16256792569828        2.24809066830927
O            0.75673906813703        0.03652026090776       -7.47579812205656
H           -0.01061117711240       -0.52780156470797       -7.71266323499244
H            0.39058379643761        0.68995057520121       -6.85562149737881
O            2.43040758537600        7.65647053480482       -1.22730150670998
H            1.97537571331159        7.45193607367335       -0.39399624159176
H            3.33516454837422        7.32939294009300       -1.09527200359664
O            0.83429725212457        4.05296222704639       -6.02020827805972
H           -0.13203977577947        4.05459838955958       -6.03071482067802
H            1.06933664245332        4.61377611164909       -5.25955788071003
O            4.11742247975890       -4.15865209175549       -4.72867041771878
H            4.19925654516886       -3.28266580389270       -5.13190246257486
H            4.95692096746424       -4.60475726943291       -4.87048566573403
O           -3.32092748925392       -5.46728822143160       -2.02448898465759
H           -4.07800205311815       -5.85191149443679       -1.54407435275516
H           -2.51689984623888       -5.76730034120155       -1.55832784146454
O          -10.51235475490562       -1.89621457912866        3.11607086669334
H          -10.95185705781161       -1.10273526985634        2.76997234724561
H          -10.03932583953540       -2.25109473672475        2.34783511645587
O           -8.55680326132628       -2.38127721176093        1.20660474904008
H           -8.10586715911456       -3.22656902860598        1.25637297910144
H           -8.31571547346253       -2.01798271208755        0.32443966201024
O           -1.23175054958117       -1.29597906387960        3.12588932696016
H           -0.25961075576490       -1.36500827409733        3.02500294916703
H           -1.55356567167988       -2.21647615950055        3.01661883126527
O            0.25627993015065        2.84064781523066       -3.45797559121383
H            1.17435162014682        3.13095309366496       -3.46055550661510
H           -0.27855843975959        3.59256328595007       -3.14185690949658
O           -1.85713143154373        7.00558555855209       -4.36295892096573
H           -2.72182230467818        7.08077494883710       -3.94922457999996
H           -1.23016671408144        7.37220312629331       -3.72509117127512
O           -6.11156635934531       -1.77299261974388        2.30395986251370
H           -5.66702758708930       -2.60763688224070        2.10321337570397
H           -6.74141314940865       -1.96551293500987        3.01331481481804
O            6.54529902840192        3.26057851291950        6.43818989459691
H            6.78859993398042        2.31318991708075        6.46887822117051
H            6.89579290041552        3.66535490506157        7.23054082536596
O           -5.85251815231179       -4.92013108549970       -3.11171951244785
H           -6.76700779374362       -4.63012825475259       -3.29019577494756
H           -5.90606359471956       -5.78115922796675       -2.68826016603593
O            2.63573611435033        4.38275506183234        2.04597044267340
H            2.15308952226379        5.15863878679462        2.36655905491092
H            2.49884277603623        3.68402493653410        2.70431661523042
O            4.99645056539298        1.52106205756663       -1.40876907084471
H            5.35621376837785        2.31714283981956       -1.83961418924795
H            4.60743446240382        1.00942003269771       -2.13303358607495
O           -0.19245892523870       -5.71856384124967        4.13544814233051
H            0.62969383099213       -6.24466645894683        3.99358523133166
H           -0.67409773973597       -6.16680745448658        4.82868708872447
O           -5.57506332115593       -5.72511417414894        4.89080893651985
H           -6.29312855035030       -5.55319446567563        4.24904473967601
H           -5.65106037159198       -4.99890546100336        5.52961310938396
O            2.87568321245714       -4.01861191987113       -2.20253338896243
H            3.42891726106870       -4.02249023411771       -1.39546931290596
H            3.45765455787987       -4.14413176332717       -2.96482343815998
O            4.18279713707841        4.46035573189927       -5.78853249465025
H            4.09029882765596        4.86359985559608       -4.89891936010631
H            3.29637821565843        4.40925551746507       -6.15473690328961
O            3.62886575441693        3.88649536984095       -0.32269068384678
H            3.21531216509936        4.04404971045483        0.55370112918346
H            4.56071496866247        3.65923462490422       -0.10894950712935
O            1.64241638888077       -1.73511275888964       -5.77074342610234
H            1.43150789544105       -1.31124768255779       -4.91264674297519
H            1.39063705727711       -1.05857260374483       -6.45589846370355
O           -3.57244859427419       -0.18180446243253       -4.38848343999777
H           -2.68939627872639       -0.58069320641665       -4.31705405115632
H           -4.04791283838785       -0.75925067695291       -5.01368204919589
O            0.18721719234434       -3.73082252202990       -6.80445598939735
H           -0.39841297769439       -3.26976581206098       -7.42114956438675
H            0.75277235222990       -3.01574772800381       -6.43853292652184
O            3.54793594296678        5.27419859662854        4.73691061670289
H            3.84177273519902        4.48748230279230        4.25149129216005
H            3.09924209483360        4.95279942416076        5.52257474481276
O           -0.64144238528270        1.30102802430353       -5.46735609299361
H           -0.33365196161373        1.90181714330942       -4.75329756828873
H           -1.54475527041838        1.55023308376609       -5.68383847652780
O            3.82468591359550        1.50508041832093        1.25541000722863
H            4.39495963334330        1.65204452461353        0.49030408326894
H            4.15806546840441        2.03192608560806        2.01053692046066
O           -2.12773789295262        3.71967500850195        5.83205004815970
H           -2.85728313153719        3.67463674049558        5.19899687816359
H           -2.38563323790284        3.11904054885892        6.56212409352623
O            3.99927370813759        2.28030933945378        5.89793896537333
H            4.00623605117964        1.40959811957724        6.36011844889870
H            4.78573390963489        2.75614574428741        6.20290871543805
O            1.36434205969529       -0.06068110041888       -3.72835913552071
H            1.65953510564544        0.66108327359567       -4.31825880472948
H            0.60702357351593        0.28817284187299       -3.22307278550916
O           -5.09926402074891       -1.76033505326009       -6.00068801717833
H           -4.76051037517332       -2.68214286228651       -5.96779173393206
H           -5.79744092460261       -1.75103170861493       -5.30667061807871
O           -1.13352425813800       -1.23833914384864       -4.73056960337767
H           -0.49014890554343       -1.74342424011656       -4.21329368942492
H           -0.76943035606972       -0.34414344351923       -4.89451519754380
O           -3.05808383577622       -8.22904318753691       -0.34086909552967
H           -2.95581304265740       -8.28852052470728        0.61545562432140
H           -2.29652108690106       -7.72195676279930       -0.64996894541716
O            9.98534740534182       -4.66388938868890        1.01710648238761
H            9.15536889875021       -4.94463583500808        0.59677209260708
H           10.37890476809962       -4.00960967300243        0.41935627898822
O            2.81965481445296       -6.76634368326713        1.21200623668961
H            3.74076077329065       -7.01968294199924        1.10901987015428
H            2.47910732506635       -6.57120469283937        0.32161367100538
O           -6.15694841625445        0.86896881123618        3.57919613344999
H           -5.31734785193811        0.40602342379223        3.36325528749519
H           -6.40945806458509        0.65005714795267        4.48601603871154
O            6.99634079480486        4.03475035324459        3.80907080301673
H            6.87200571513407        3.99329790683130        4.76941717670644
H            7.75993096557938        3.46592539598617        3.62636728029874
O            8.14272416369177        3.90713554777525       -4.27237580286203
H            7.71001197285231        4.62017364059481       -4.79932735987679
H            8.55001735716807        4.35331665089040       -3.51924153436091
O            8.98173089322176        4.87502490276737       -1.73351975346416
H            9.87086287306655        4.50893396268377       -1.72298567667257
H            8.73162308696420        5.07667265001112       -0.80298112072483
O           -3.66293252330809       -0.98132515451556        0.40757031376065
H           -3.32242266920481       -1.89011970141442        0.32736756892596
H           -4.44202643188679       -0.94239579562191       -0.16015336774595
O            5.39050053871717        2.05993513068536       -5.88898640530242
H            4.94557915233291        1.62971774454939       -6.63157408028445
H            5.01884269614132        2.96569563537022       -5.84104320512341
O           -2.02611526053710       -0.46477193783544        5.54004763276281
H           -1.79346821059646       -0.76720022290243        4.63466589264630
H           -2.97688082617569       -0.66028165173070        5.66464499776496
O           -8.88817869733569        0.78604439483222        0.20473553343890
H           -9.13350558358257        1.72174820634119        0.16117738406123
H           -8.88594734424914        0.55879529449728        1.16608759346109
O           -8.31899511082273        2.57887259923312       -5.03492007565166
H           -8.44386479688242        1.61098567391633       -4.94912533108558
H           -9.09095094175570        2.91578114243375       -5.48675129636022
O            7.66372997832736       -4.85691360606117       -0.44178392740114
H            8.22462654023037       -4.52948490131657       -1.18029083473914
H            7.26732068446136       -4.06095627151128       -0.01267780124347
O            6.34624880491786       -2.85059792786646        0.63225846238091
H            6.63895399174419       -2.66867178013667        1.55190293619476
H            6.36130603000176       -1.97611122026988        0.20606588402286
O           -5.26124874137240        1.98933892139935        6.10024967910795
H           -4.80903177256822        2.37167160755923        5.32706741966320
H           -6.16608058658290        2.32985178881541        6.01470295338387
O           -0.48660882828404        3.85438930467170        2.37172201583194
H           -0.02614369710881        3.98470322033159        3.21913754251851
H           -1.00383455631821        3.03926574240459        2.46116433260035
O           -6.93097962445937        5.09313078404306        3.19961928473390
H           -7.41197727489253        5.51648212836512        2.45835825576310
H           -6.03294556305553        5.44830621608793        3.18606611953541
O           -1.81661418121853        4.63206727202904        0.07893535557264
H           -1.16884153992411        4.57188672042246        0.79133724414679
H           -2.33601656665469        5.43981006701549        0.19517978353966
O           -1.25377005856046        8.33708144820233        0.11323488582762
H           -2.09183650826828        7.83314869800598        0.08468327268942
H           -1.43362278549328        9.16676420552312        0.55285411624546
O            2.50059477906968       -4.43382173367248        2.86213721471971
H            3.12911874277453       -3.68889581182603        2.94822655614011
H            2.92513654519890       -5.11502641846829        2.33007733649914
O            7.34383268389057       -1.84608451023507        2.84214670471001
H            7.99522818615860       -2.47415532016309        3.20947852322176
H            7.86675329295270       -1.33376798929735        2.19790836072712
O           -1.34493340843590       -1.60517217880822       -7.43718518220621
H           -1.37374448048685       -1.57951187512682       -6.46029673758041
H           -2.13811028578741       -1.10870274140777       -7.72439106751267
O           -8.49244456838761       -0.04058583061992        2.62640651519272
H           -8.41219721940816       -0.93620354018896        2.26286647434074
H           -7.60714484701808        0.22646992477715        2.93335201684335
O            4.62792905387407        0.46381523486669       -3.86525427814546
H            4.35594135173344       -0.31164670843599       -4.38206773257193
H            4.82197616187641        1.15465013655202       -4.53038046191344
O           -3.43085665327432        2.18744257511210       -6.22870401529394
H           -2.91948215801539        3.00066201808631       -6.29877849837900
H           -4.36516134791314        2.45927974846896       -6.22881531790237
O            7.11326517845788       -2.04686429433788        5.88699656952161
H            6.13847668534893       -2.06322738681046        5.84845865050514
H            7.37398786658650       -2.96325756594123        5.66468449669052
O            4.39331662840497       -2.07213782541869        5.62478525980737
H            4.37945231942526       -2.11773309126114        4.64527421495124
H            3.78343739631693       -2.78734318365556        5.90819070524572
O            0.14256201465729       -6.98767979785082       -3.43460251949379
H           -0.69592012284971       -7.13581728069593       -3.89207869621009
H            0.61670840071058       -6.30692340336074       -3.95033615091596
O            6.66564293105387        5.82299418244877       -5.31362639785343
H            6.44518188914282        6.15314399798181       -4.42971172279451
H            5.85438563936922        5.45311971904487       -5.68384826017178
O            5.63711676340241       -4.74383120996476       -2.24822809238402
H            6.15783884628876       -4.72289486048606       -3.08300623423670
H            6.29898326248031       -4.88305055913847       -1.54509233540731
O            5.73495654534694        0.02042925656819        4.08164030556846
H            6.21521629022160       -0.77587056699311        3.78771349537450
H            6.11224370935394        0.26762980229929        4.94479403158253
O            1.77512103063259       -2.72409527477738        0.12461379142512
H            2.47492815226800       -3.35224722208243        0.35124578612521
H            2.19372224932497       -2.10150715087410       -0.49743128510665
O            3.02541679952667        0.08686663390928        3.83781495748078
H            3.98765140319914       -0.00393315335725        3.95786494526052
H            2.58045233035872       -0.29331170776373        4.61166610148956
O            8.88040964214532       -1.13669827165763        0.71717642688241
H            8.34158795531027       -1.28128144803380       -0.09115873046538
H            9.19620083231461       -0.21450622619100        0.61827137494069
O           -5.82520978104937       -3.15622493342141        5.92613654978265
H           -6.70057977497581       -3.06541737840412        5.53334539634762
H           -5.18762073704711       -2.93266260939224        5.20864368345787
O           -2.75907034522354       -3.82229291750930        6.35504022422383
H           -3.59349377201807       -3.70627145337715        6.81542671642944
H           -2.09874158180615       -3.25983129817189        6.80534768343430
O           -8.85305655906174        3.74391119696889       -2.44476294969059
H           -8.04926572153939        3.77473768127745       -2.99428986253270
H           -9.37112066253908        3.01303063484914       -2.80347341196744
O           -2.92084132236956       -2.86076595356649       -2.73667954960785
H           -3.12565429450954       -3.76642313525404       -2.45476751930352
H           -2.38451179059950       -2.96537106222094       -3.53329061986684
O            0.17954434094803        4.74568469285885        4.83993153115341
H           -0.67563940646252        4.67180523189952        5.28502645897391
H            0.84203008597669        4.37788531774012        5.46815241024310
O           -8.20910369147606        5.71123933290616        0.92147017286039
H           -7.70879291527183        5.84377162474375        0.10172544944893
H           -8.80584320149523        4.96751674137329        0.75173057178636
O           -4.96541955002924       -1.22401462612107       -2.15363277506328
H           -4.69559931874306       -0.30013540665202       -2.25651527950799
H           -4.20230748202598       -1.77248269195716       -2.42375693245520
O           -6.86891459275246        2.80979960447450       -0.57473151252436
H           -7.10609119723721        2.77014827484915        0.37156709292382
H           -7.52471835875011        3.36459466685218       -1.00890494237525
O           -2.72241517810554        1.61081443173235        7.33170684960654
H           -2.44611706758963        0.92120583463103        6.70417015469726
H           -3.68409806364558        1.65551949866422        7.24481541869244
O            7.63318748395884       -4.50387901372632        4.91694069897703
H            6.98768568734564       -4.64728298192513        4.20405067363037
H            8.47258120203863       -4.32044889998971        4.47546867821540
O            3.90015371953996       -1.09536541571766        0.93408138152842
H            3.66724044757001       -0.21149985742120        1.26663885131557
H            4.74431340872883       -0.94055690954778        0.47441385366889
O           -7.50171461449120       -4.96956207297674        3.20728628029241
H           -7.76481141778646       -4.09321524741473        3.51219987117868
H           -7.42082207581134       -4.93978079265671        2.24163120451679
O            0.80561478592729        6.63246686255837        0.73853397107305
H            1.06232713330174        6.68830194654995        1.67224628427399
H            0.01392781604963        7.18338410321204        0.63234457883577
O           -4.28019820856160       -4.21317378428666       -5.39266220833780
H           -3.33505186220583       -4.08441352941214       -5.18552870228508
H           -4.73060595721359       -4.41816548499458       -4.56062756583010
O          -11.74242638863571        1.77207968206753       -0.56419031855335
H          -12.61433970031561        1.78147658920715       -0.95534801565190
H          -11.10993290740899        1.50590423838042       -1.28234287570202
O           -7.49789731534382       -0.12158951024052        5.77994035087990
H           -8.40941443239741        0.17673434213932        5.51194440542360
H           -7.44749626782602        0.00431059468946        6.72666873151654
O           -7.99139910079982       -2.35300321112725        4.29609828783400
H           -7.81012992409950       -1.55937306593769        4.83607178321247
H           -8.91715784525428       -2.25861842048580        4.01230076631474
O           -5.46226101756681       -3.52265228308163       -0.83192112695194
H           -4.52452681969261       -3.48470602124265       -0.60037591159635
H           -5.50310642335451       -3.93409753902536       -1.71622611911138
O           -6.79465006041896       -1.68633039205720       -3.98106932103290
H           -7.29472118694651       -2.47645695820498       -3.71650742813282
H           -6.14961403464513       -1.49398994396529       -3.25187486367665
O           10.40732664595748        2.60620873214348       -2.73984165068892
H           10.09274042606104        2.73424528066582       -3.63710231231251
H           10.64846220194208        1.67502564433620       -2.66951241813872
O           -0.98779260174408       -6.39685602491413       -1.08233049069556
H           -0.57830594743455       -6.68049208614411       -1.92402434468039
H           -0.69542772329541       -5.45429015746997       -0.95865510869048
O           -4.78575656491119       -4.11727736696432        2.08258920602640
H           -4.18332646916547       -4.03126006104763        1.33594449583762
H           -4.98734897263565       -5.06840310795503        2.16460403669556
O           11.21793165423818        1.46561149050160        2.12572954504923
H           10.72897947512662        1.41479855227372        1.26876045082093
H           11.95922259475688        2.05355903048382        1.98390870286397
O           -5.30117043508944       -6.79593560114323       -0.74364341472654
H           -5.36051648757272       -6.65114118319190        0.21535323071215
H           -4.66717960565801       -7.53630307375281       -0.79802209258977
O           -6.64953096316923        0.45100175765583       -6.80068190957189
H           -6.14103530360729       -0.36615568834291       -6.87787598120954
H           -7.53612020564901        0.19472756951012       -6.51473147561194
O           -0.08697543446037        7.52863185736884       -2.27487291701654
H            0.85916372108766        7.62221494180227       -2.05888775574728
H           -0.54687821291344        7.92203052635566       -1.51882340322713
O            4.08782678114190       -4.19793292710597        0.20460590068856
H            4.80510401041510       -3.55790657438083        0.37248463961305
H            4.50387356852128       -5.06589790658879        0.33514637507675
O           -0.02055257935290        2.65359022041704       -0.58146072811004
H            0.28573259913135        2.55928135197254        0.33766799433355
H            0.28102095979634        3.52398540544020       -0.90257673114003
O            3.59854996430398        0.59650858619580       -7.37544617334551
H            2.97306588409516        0.36486757506930       -8.06522104655171
H            3.04034144205792        1.02963726983936       -6.68309043186774
O           -4.61953665573600        5.05632757798666       -5.08936243879294
H           -5.11042506639193        4.66578357827538       -5.82273147356306
H           -3.67798996038400        4.82342632702786       -5.22502702631473
O           -9.82886032620959        2.47208025278429        3.13173040317736
H          -10.26657101590796        3.30178732843447        2.94259412264440
H           -8.96338985934525        2.49724511758630        2.64579541074659
O            9.82740992622396        1.18172249915628       -0.07389992587137
H            9.06962224847723        1.72051805561290       -0.40926624992305
H           10.19580051339618        0.75804184503156       -0.87204722708517
O           -4.20182404808239        5.60444599455665        2.81703586356230
H           -4.35351425057412        5.25372479650932        1.91065585308456
H           -3.30816620110456        5.99112186952300        2.80669596659688
O           10.87924630291097       -2.41438240430493       -0.42025997894575
H           10.14559063746739       -1.96496295267881        0.08366888277137
H           11.68745705218651       -2.22259021615104        0.05492039503872
O            1.98640063495522       -7.20494774302809        3.84071135838246
H            2.21065840054192       -7.13879420675189        2.90302767536516
H            2.72100394649323       -6.77696040060648        4.30773659202308
O           11.20902243602332       -1.05583929758584        3.23624438412618
H           11.19333997431981       -0.18118981851631        2.80440559241139
H           11.94416202426157       -1.04605727599849        3.84962616781579
O           -2.47517339254910       -6.60730838891299       -4.29063496760973
H           -3.17101670266506       -6.68401093118632       -4.94462392505262
H           -2.89312334300003       -6.23709070438395       -3.47804870582513
O            7.22975180059578        0.68005585557947       -3.09903380699124
H            6.28276360672645        0.51774920073329       -3.28044607484836
H            7.62037330927876        0.93547839250123       -3.96081826825210
O           -4.53794083190435       -0.64796812732666        6.34601676922536
H           -5.19954168962990       -1.34950555410233        6.32870772907884
H           -4.98452253245355        0.20569263735383        6.21885591103349
O            9.08135322793131       -3.76719651004292       -2.42954836967507
H            8.67531157779543       -2.87671910773574       -2.29187008072603
H           10.00348975174594       -3.66546824236904       -2.18801289674460
O            7.12618503436692       -4.45623596615964       -4.40441861214713
H            7.99975687420257       -4.52897780173431       -4.00229322551708
H            7.00677394316555       -3.49228661656585       -4.56076863124834
O            4.13029185691511        0.00803593432420        7.20701889467365
H            4.18985739336597       -0.76902506736538        6.60443973904541
H            3.31923363199873       -0.13720372592875        7.73548182049470
O            9.52363860642435       -3.34311214596286        3.28349327110744
H           10.19612906057535       -2.65248095700009        3.25293987110893
H            9.69112365573512       -3.90880840840903        2.49691376365552
O           -2.52719760931774       -7.47825036529345        2.42383290825153
H           -1.61404801089044       -7.48580840526946        2.09430769423035
H           -2.51260244147452       -6.88173594803102        3.19129077416191
O           -9.93985014577972        0.39111321206398        5.00908901402821
H          -10.20921005383712       -0.39282691178178        4.51281516280154
H           -9.93889607323896        1.11184999094323        4.36125466738081
O           -6.21478136483172        0.20864327968610        0.47099280262424
H           -6.19098054912438       -0.52645591496125        1.11275998818056
H           -7.15356708900862        0.41886721548687        0.31337719146971
O          -10.00631278303727       -1.50519458525208       -3.00706998470890
H          -10.62753552985044       -1.67306536666161       -2.28805928615055
H           -9.13935891157113       -1.63045716628686       -2.58497949930046
O            3.97966873725122        5.82633466240790       -3.48443966684438
H            4.26102385796157        6.72214980403721       -3.30283385275351
H            3.00522024431183        5.83305514200654       -3.55091941102316
O            1.43705055968375       -5.02443096118481       -4.77283717979996
H            1.08331552853342       -4.83584306366487       -5.65266315895338
H            2.38629285652096       -4.82889361459525       -4.80382924380756
O          -10.08815863115141        1.18530415983253       -2.55567719043944
H          -10.32410482344742        0.28746737210027       -2.83875665720507
H           -9.13501289704402        1.07995864635954       -2.31544585621616
O           -7.60177903928505        3.12870062447872        5.17927508480817
H           -8.41101355469492        2.77860138791849        4.79466306979294
H           -7.36496558700013        3.90480366533717        4.65368577950055
O           -5.08324092804765       -6.76416458417180        1.99976885544531
H           -5.57314254851248       -7.09052534714802        2.75683778970955
H           -4.15909195188586       -7.07390770434458        2.10866062068384
O            8.88767236506107        2.01883671813572        3.52543619449858
H            9.75353131158231        1.96605514326149        3.09653070897528
H            8.84151330384015        1.23617725593998        4.11618103209272
O           -1.96109830132451        4.39790680966691       -5.27050117549383
H           -1.76241069005085        5.29011450142588       -4.92887842767063
H           -1.98718711316582        3.80468118576690       -4.49408827802023
O          -11.37607147668914        0.45233018380705        1.88062433784921
H          -11.57773782371718        0.88255024201808        1.03526675007446
H          -10.82073654181803        1.08689678533370        2.36117205547078
O           -7.49908778008441        0.77356516537448       -2.18633338305039
H           -6.93938307897730        0.85980104382801       -2.98072723238622
H           -7.22289545770322        1.48112400970567       -1.56719098988554
O           -1.60458735091816        6.33131143165868        2.61728891263626
H           -1.08389572192019        6.84041282658576        3.23756830885226
H           -1.18707486698643        5.44793425095622        2.56536210272000
O            5.59579576540551       -6.48251657747882        0.56424678270338
H            5.28737206456765       -6.92251168442057       -0.27086059157683
H            6.48406481814366       -6.16649183030444        0.35330623440408
O            1.34554642620859        5.65920832098903       -3.84978366116323
H            1.21144961559993        5.32748380354792       -2.93256845480788
H            0.81029544559733        6.44968981160043       -3.93608391998836
O           -0.06593558435269       -7.39219823354436        1.21870077696533
H           -0.30108478558069       -7.15578601374870        0.29827186587191
H            0.81428577447445       -7.77171798829024        1.21755060621516
O          -10.62525564128141       -1.28202409890999       -0.38428859417958
H          -11.20271011743009       -1.18384333641493        0.37583325612664
H           -9.96587022839043       -0.56333795694608       -0.28731441289541
O            2.61085854888449       -3.95125712692684        6.09226004760718
H            1.89800997681412       -3.71949461301010        5.45000741205194
H            2.19477529989347       -3.83262694115503        6.97255408783707
O            4.12719351307463       -5.82444180336463        4.97425665504465
H            4.71338663991361       -6.11690701871238        5.67242196077747
H            3.55277175569051       -5.12434024166025        5.36472175267864
O            0.65195343970563       -2.86958316586986       -3.25230487514137
H            0.71855045292396       -3.62733813457874       -3.86012606958200
H            1.50424322897902       -2.87118737803851       -2.78918089378252
O            9.20474180362200       -0.89591165948225       -4.51043051652155
H            8.32786622271074       -1.31239511662706       -4.47491240193563
H            9.09802230008432       -0.13920517275898       -5.09729009368757
O           -6.43734290124995        5.64047090533099       -1.29057576641394
H           -6.55089170611564        4.94872086455154       -1.96124819625750
H           -5.90992599394091        5.19776840396175       -0.58856705155244
O           -6.24202174126127        3.71666310729162       -3.30846047871475
H           -5.68957894199171        4.23770900286896       -3.91148073904653
H           -6.15887864317147        2.80065504097801       -3.62991810754432
O            6.77097860718686        1.36958982667561        2.06650726424478
H            6.25052602716692        0.95812120425953        2.79074328715319
H            7.62448322688477        1.61202412015122        2.47511928381630
O            8.93691721157333       -0.31264827656618        4.80447522948005
H            8.29967315015148       -0.98935936575715        5.09926561431909
H            9.63641312292901       -0.77425760409485        4.32669609475156
O           -7.35612281050399       -4.81952646081689        0.43698488585734
H           -6.60774779013270       -4.31028148684922        0.02834767698545
H           -7.27079859539362       -5.71578747955964        0.10804479970842
O            1.82937149713181        3.68537118479713        6.64098972127944
H            2.55971401817579        3.11183489071187        6.32583226026084
H            1.29882457795822        3.14020656032674        7.23788374653101
O           -6.04128544494477        3.13004602483026       -6.50188249325400
H           -6.20095400584716        2.43392386434808       -7.14830167557293
H           -6.78625283626456        3.04525558791361       -5.87401404284159
O           -7.43066724472957        2.72156060584895        2.07425349050429
H           -7.19704620304927        3.59684751202360        2.44376187943738
H           -6.90483892224374        2.07736587589489        2.58495794743755
O           -9.60472744508217       -3.90435626966081       -1.07108187999907
H           -8.93925670938237       -4.21847505465837       -0.44131889338961
H           -9.91503410988689       -3.04533512807183       -0.73896997368290
O            5.68749409555687       -4.89646529710949        2.97031000932075
H            5.71900775322120       -5.54179046217915        2.25594793604566
H            5.07417272061424       -5.25274414337623        3.64641263802840
O            6.53725986729516        6.16465792882554       -2.51151633753305
H            7.42584276991828        5.98036035951810       -2.19213622887731
H            5.97791486924022        6.35658687956571       -1.73176769996630
O            4.58442470077517       -7.20081366092347       -1.74028069184085
H            4.91258861740585       -6.37876177089915       -2.14821721498349
H            3.62077040811969       -7.07818514262719       -1.65593847975204
O           -9.73102808204462        3.48759645447912        0.10750892503610
H          -10.62552396132869        3.12112523209329        0.06652427078073
H           -9.50594888883284        3.70693579734011       -0.81442307582805
O            8.03584019634399        1.52278265636029       -5.49284431176364
H            7.12873116350727        1.62097965329930       -5.83410021282816
H            8.27001101072427        2.42013844902665       -5.20426349771638
O            1.68989472707544       -0.44986997733305        8.15573432071227
H            1.20294068218613        0.36063226196178        8.36301550300658
H            1.44001634904093       -0.64594527954627        7.22520135751415
O            6.28450317935430       -0.25022840385814        0.02418021903451
H            5.92966667835736        0.38070604706807       -0.63272486503291
H            6.55714914075758        0.29771382092793        0.78630896707623
O            4.34837415140067       -2.53678719910488        3.03796232169714
H            5.04049776718834       -3.19665465802749        2.88199143369645
H            4.21917278140596       -1.99479675904377        2.21847932418331
O           -5.85929514825160        1.19937696154116       -4.26203173761738
H           -6.15103917317722        1.01775682955730       -5.17356896626688
H           -4.99591836370244        0.76871020845672       -4.16538411014831
O            7.95717537374006        5.32259804743113        0.68556301472502
H            7.21832925880733        4.67465198752504        0.71854477957568
H            7.61816699768045        6.12149951960601        1.08889250857008
O           -4.43704092650053        6.58926949085174       -2.82209203969662
H           -4.59965926151524        6.24039467548462       -3.71242437327065
H           -5.27504391989551        6.43417631023086       -2.33258460694756
O           -4.08054291205766        3.19586899208104        3.91240865452801
H           -4.53630125384055        2.68209681906210        3.20660450453200
H           -4.17022413367194        4.13102840901447        3.61954084759098
O           -4.80185424861464        4.50819910127837        0.49064045484477
H           -5.01329539337974        3.62618316083046        0.87566577400817
H           -4.24379824056294        4.30018786120406       -0.28656734908852
O            2.24616362562324        1.82103593308470       -5.46274111801856
H            2.72993596446556        2.28343778997790       -4.73817168838587
H            1.62936612284913        2.49720062894035       -5.80443746744697
O            1.84135716482960        2.47034826215765        3.89779195816765
H            2.41389685698713        1.67680225678797        3.94055261100041
H            1.07377921914802        2.27387736273850        4.46732348905811
O           -3.44225513533962        6.86852360437183       -0.25670236750379
H           -3.65367134693084        6.83243517236190       -1.20361002548975
H           -4.26943454223204        6.73203698161441        0.21187957411560
O           -3.55192761352714       -0.15158963444076       -7.72906143476391
H           -4.12929629524827       -0.73336715835407       -7.21847899158635
H           -3.48252877215020        0.67778932552022       -7.22943940758124
O           10.56991004719427       -0.23791906061577       -2.26818479345495
H           10.07649663448427       -0.48897156732451       -3.07818891581661
H           10.76565727888248       -1.07161845588743       -1.81730494793447
O            4.20511109116865       -1.47674653742233       -5.76892106063567
H            4.24483770596645       -0.80926134498957       -6.48028571935622
H            3.22972641892720       -1.66733997320798       -5.73001508004935
O           -2.56603086569649        2.32237011104077       -3.54481332105395
H           -3.10151382417478        1.69865326676792       -4.05411365864193
H           -1.88818489523527        1.78174722461031       -3.10204246454022
O           -3.75651619660310        4.01477713481998       -1.87882439213357
H           -3.80001507504828        4.86360218219481       -2.33330813667845
H           -3.29197259607818        3.40219165973409       -2.48105072310320
O            5.21396843560841        5.68371766622331        2.06097157231617
H            5.85791109897654        5.29993543396552        2.66530312419821
H            4.39758458956737        5.17444416396300        2.18406295093202
O            7.86684285043230       -1.53656803819776       -1.74525621902371
H            7.90397238121548       -0.70256634363169       -2.25202303794017
H            6.91584009614702       -1.75149401543592       -1.74356419525179
O           -7.68964162926538       -1.72089988988710       -1.23206135211034
H           -7.57074739024758       -0.77994497492585       -1.47500500570807
H           -6.79980152849131       -2.09721623995438       -1.17730835275666
O           -8.66592770730866       -0.11911383933353       -5.04019607712758
H           -9.45631723409224       -0.50388419324106       -4.64910006616751
H           -7.92938359746713       -0.59470969864475       -4.59399705122405
O           -8.31463593904219       -3.88622044067096       -3.35715816386943
H           -8.78872438292014       -3.85325925869677       -2.48100066882515
H           -9.00004345889652       -3.96101199960135       -4.02037445364267
O            2.01119979760852       -6.41089005516973       -1.39799054204954
H            1.44700006709289       -6.82908445807625       -2.05660503140693
H            2.18277211642260       -5.49486296047794       -1.71725569169935
O           -3.89934143601861       -2.65060590400362        4.16224125983742
H           -3.24875040717476       -3.07136202649502        4.74745716517482
H           -4.09814386043219       -3.26934294489256        3.43155270076764
O            6.58004298354795       -1.85822366431371       -4.49644272662941
H            5.91212645438620       -1.66712040704290       -5.16752416579603
H            6.09705384596132       -1.83020162976438       -3.63967113713662
O            6.67903534762024        0.59416630616928        6.62083477847201
H            5.83883935175889        0.37551708603832        7.06202187520178
H            7.21287194406245       -0.20941792911009        6.65081050082158
O            0.58073954454554       -3.19758849665194        4.56072798461086
H            0.21852705044562       -4.09421872177114        4.39546299741576
H            0.97146835561513       -2.90360021330355        3.71798584850473
 
 Bond Distances (Angstroems)
 ---------------------------
H1-C2=1.0893         C2-H1=1.0893         C2-H3=1.0863         C2-C4=1.5198         C2-O7=1.4188         H3-C2=1.0863         
C4-C2=1.5198         C4-H5=1.0866         C4-H6=1.0834         C4-N9=1.4763         H5-C4=1.0866         H6-C4=1.0834         
O7-C2=1.4188         O7-H8=0.9817         H8-O7=0.9817         N9-C4=1.4763         N9-H10=1.0428        N9-H11=1.0384        
N9-H12=1.0471        H10-N9=1.0428        H11-N9=1.0384        H12-N9=1.0471        O13-H14=0.9770       O13-H15=0.9738       
H14-O13=0.9770       H15-O13=0.9738       O16-H17=0.9702       O16-H18=0.9785       H17-O16=0.9702       H18-O16=0.9785       
O19-H20=0.9808       O19-H21=0.9773       H20-O19=0.9808       H21-O19=0.9773       O22-H23=0.9748       O22-H24=0.9841       
H23-O22=0.9748       H24-O22=0.9841       O25-H26=0.9719       O25-H27=0.9662       H26-O25=0.9719       H27-O25=0.9662       
O28-H29=0.9764       O28-H30=0.9702       H29-O28=0.9764       H30-O28=0.9702       O31-H32=0.9744       O31-H33=0.9799       
H32-O31=0.9744       H33-O31=0.9799       O34-H35=0.9740       O34-H36=0.9773       H35-O34=0.9740       H36-O34=0.9773       
O37-H38=0.9805       O37-H39=0.9691       H38-O37=0.9805       H39-O37=0.9691       O40-H41=0.9773       O40-H42=0.9800       
H41-O40=0.9773       H42-O40=0.9800       O43-H44=0.9728       O43-H45=0.9693       H44-O43=0.9728       H45-O43=0.9693       
O46-H47=0.9752       O46-H48=0.9711       H47-O46=0.9752       H48-O46=0.9711       O49-H50=0.9736       O49-H51=0.9830       
H50-O49=0.9736       H51-O49=0.9830       O52-H53=0.9725       O52-H54=0.9617       H53-O52=0.9725       H54-O52=0.9617       
O55-H56=0.9864       O55-H57=0.9776       H56-O55=0.9864       H57-O55=0.9776       O58-H59=0.9760       O58-H60=0.9811       
H59-O58=0.9760       H60-O58=0.9811       O61-H62=0.9668       O61-H63=0.9854       H62-O61=0.9668       H63-O61=0.9854       
O64-H65=0.9704       O64-H66=0.9789       H65-O64=0.9704       H66-O64=0.9789       O67-H68=0.9738       O67-H69=0.9638       
H68-O67=0.9738       H69-O67=0.9638       O70-H71=0.9570       O70-H72=0.9940       H71-O70=0.9570       H72-O70=0.9940       
O73-H74=0.9768       O73-H75=0.9722       H74-O73=0.9768       H75-O73=0.9722       O76-H77=0.9723       O76-H78=0.9657       
H77-O76=0.9723       H78-O76=0.9657       O79-H80=0.9790       O79-H81=0.9798       H80-O79=0.9790       H81-O79=0.9798       
O82-H83=0.9750       O82-H84=0.9896       H83-O82=0.9750       H84-O82=0.9896       O85-H86=0.9800       O85-H87=0.9712       
H86-O85=0.9800       H87-O85=0.9712       O88-H89=0.9863       O88-H90=0.9708       H89-O88=0.9863       H90-O88=0.9708       
O91-H92=0.9823       O91-H93=0.9729       H92-O91=0.9823       H93-O91=0.9729       O94-H95=0.9754       O94-H96=0.9721       
H95-O94=0.9754       H96-O94=0.9721       O97-H98=0.9687       O97-H99=0.9669       H98-O97=0.9687       H99-O97=0.9669       
O100-H101=0.9738     O100-H102=0.9993     H101-O100=0.9738     H102-O100=0.9993     O103-H104=0.9815     O103-H105=0.9725     
H104-O103=0.9815     H105-O103=0.9725     O106-H107=0.9712     O106-H108=0.9711     H107-O106=0.9712     H108-O106=0.9711     
O109-H110=0.9664     O109-H111=0.9738     H110-O109=0.9664     H111-O109=0.9738     O112-H113=0.9678     O112-H114=0.9612     
H113-O112=0.9678     H114-O112=0.9612     O115-H116=0.9757     O115-H117=0.9766     H116-O115=0.9757     H117-O115=0.9766     
O118-H119=0.9709     O118-H120=0.9695     H119-O118=0.9709     H120-O118=0.9695     O121-H122=0.9593     O121-H123=0.9840     
H122-O121=0.9593     H123-O121=0.9840     O124-H125=0.9798     O124-H126=0.9812     H125-O124=0.9798     H126-O124=0.9812     
O127-H128=0.9629     O127-H129=0.9754     H128-O127=0.9629     H129-O127=0.9754     O130-H131=0.9615     O130-H132=0.9666     
H131-O130=0.9615     H132-O130=0.9666     O133-H134=0.9667     O133-H135=0.9680     H134-O133=0.9667     H135-O133=0.9680     
O136-H137=0.9786     O136-H138=0.9563     H137-O136=0.9786     H138-O136=0.9563     O139-H140=0.9758     O139-H141=0.9610     
H140-O139=0.9758     H141-O139=0.9610     O142-H143=0.9684     O142-H144=0.9697     H143-O142=0.9684     H144-O142=0.9697     
O145-H146=0.9741     O145-H147=0.9683     H146-O145=0.9741     H147-O145=0.9683     O148-H149=0.9863     O148-H150=0.9558     
H149-O148=0.9863     H150-O148=0.9558     O151-H152=0.9783     O151-H153=0.9702     H152-O151=0.9783     H153-O151=0.9702     
O154-H155=0.9785     O154-H156=0.9672     H155-O154=0.9785     H156-O154=0.9672     O157-H158=0.9811     O157-H159=0.9604     
H158-O157=0.9811     H159-O157=0.9604     O160-H161=0.9818     O160-H162=0.9827     H161-O160=0.9818     H162-O160=0.9827     
O163-H164=0.9800     O163-H165=0.9953     H164-O163=0.9800     H165-O163=0.9953     O166-H167=0.9716     O166-H168=0.9749     
H167-O166=0.9716     H168-O166=0.9749     O169-H170=0.9674     O169-H171=0.9824     H170-O169=0.9674     H171-O169=0.9824     
O172-H173=0.9700     O172-H174=0.9602     H173-O172=0.9700     H174-O172=0.9602     O175-H176=0.9826     O175-H177=0.9617     
H176-O175=0.9826     H177-O175=0.9617     O178-H179=0.9655     O178-H180=0.9792     H179-O178=0.9655     H180-O178=0.9792     
O181-H182=0.9670     O181-H183=0.9799     H182-O181=0.9670     H183-O181=0.9799     O184-H185=0.9858     O184-H186=0.9685     
H185-O184=0.9858     H186-O184=0.9685     O187-H188=0.9778     O187-H189=0.9750     H188-O187=0.9778     H189-O187=0.9750     
O190-H191=0.9826     O190-H192=0.9845     H191-O190=0.9826     H192-O190=0.9845     O193-H194=0.9678     O193-H195=0.9793     
H194-O193=0.9678     H195-O193=0.9793     O196-H197=0.9636     O196-H198=0.9657     H197-O196=0.9636     H198-O196=0.9657     
O199-H200=0.9718     O199-H201=0.9697     H200-O199=0.9718     H201-O199=0.9697     O202-H203=0.9608     O202-H204=0.9731     
H203-O202=0.9608     H204-O202=0.9731     O205-H206=0.9828     O205-H207=0.9664     H206-O205=0.9828     H207-O205=0.9664     
O208-H209=0.9692     O208-H210=0.9695     H209-O208=0.9692     H210-O208=0.9695     O211-H212=0.9866     O211-H213=0.9655     
H212-O211=0.9866     H213-O211=0.9655     O214-H215=0.9616     O214-H216=0.9844     H215-O214=0.9616     H216-O214=0.9844     
O217-H218=0.9738     O217-H219=0.9648     H218-O217=0.9738     H219-O217=0.9648     O220-H221=0.9667     O220-H222=0.9802     
H221-O220=0.9667     H222-O220=0.9802     O223-H224=0.9825     O223-H225=0.9786     H224-O223=0.9825     H225-O223=0.9786     
O226-H227=0.9683     O226-H228=0.9878     H227-O226=0.9683     H228-O226=0.9878     O229-H230=0.9797     O229-H231=0.9558     
H230-O229=0.9797     H231-O229=0.9558     O232-H233=0.9835     O232-H234=0.9873     H233-O232=0.9835     H234-O232=0.9873     
O235-H236=0.9821     O235-H237=0.9729     H236-O235=0.9821     H237-O235=0.9729     O238-H239=0.9739     O238-H240=0.9706     
H239-O238=0.9739     H240-O238=0.9706     O241-H242=0.9732     O241-H243=0.9695     H242-O241=0.9732     H243-O241=0.9695     
O244-H245=0.9798     O244-H246=0.9658     H245-O244=0.9798     H246-O244=0.9658     O247-H248=0.9648     O247-H249=0.9673     
H248-O247=0.9648     H249-O247=0.9673     O250-H251=0.9783     O250-H252=0.9560     H251-O250=0.9783     H252-O250=0.9560     
O253-H254=0.9785     O253-H255=0.9630     H254-O253=0.9785     H255-O253=0.9630     O256-H257=0.9766     O256-H258=0.9752     
H257-O256=0.9766     H258-O256=0.9752     O259-H260=0.9777     O259-H261=0.9788     H260-O259=0.9777     H261-O259=0.9788     
O262-H263=0.9699     O262-H264=0.9743     H263-O262=0.9699     H264-O262=0.9743     O265-H266=0.9708     O265-H267=0.9784     
H266-O265=0.9708     H267-O265=0.9784     O268-H269=0.9632     O268-H270=0.9730     H269-O268=0.9632     H270-O268=0.9730     
O271-H272=0.9757     O271-H273=0.9784     H272-O271=0.9757     H273-O271=0.9784     O274-H275=0.9807     O274-H276=0.9817     
H275-O274=0.9807     H276-O274=0.9817     O277-H278=0.9666     O277-H279=0.9768     H278-O277=0.9666     H279-O277=0.9768     
O280-H281=0.9690     O280-H282=0.9654     H281-O280=0.9690     H282-O280=0.9654     O283-H284=0.9841     O283-H285=0.9756     
H284-O283=0.9841     H285-O283=0.9756     O286-H287=0.9753     O286-H288=0.9739     H287-O286=0.9753     H288-O286=0.9739     
O289-H290=0.9673     O289-H291=0.9746     H290-O289=0.9673     H291-O289=0.9746     O292-H293=0.9739     O292-H294=0.9702     
H293-O292=0.9739     H294-O292=0.9702     O295-H296=0.9822     O295-H297=0.9798     H296-O295=0.9822     H297-O295=0.9798     
O298-H299=0.9637     O298-H300=0.9855     H299-O298=0.9637     H300-O298=0.9855     O301-H302=0.9600     O301-H303=0.9773     
H302-O301=0.9600     H303-O301=0.9773     O304-H305=0.9742     O304-H306=0.9650     H305-O304=0.9742     H306-O304=0.9650     
O307-H308=0.9704     O307-H309=0.9660     H308-O307=0.9704     H309-O307=0.9660     O310-H311=0.9669     O310-H312=0.9843     
H311-O310=0.9669     H312-O310=0.9843     O313-H314=0.9695     O313-H315=0.9685     H314-O313=0.9695     H315-O313=0.9685     
O316-H317=0.9680     O316-H318=0.9778     H317-O316=0.9680     H318-O316=0.9778     O319-H320=0.9764     O319-H321=0.9625     
H320-O319=0.9764     H321-O319=0.9625     O322-H323=0.9725     O322-H324=0.9666     H323-O322=0.9725     H324-O322=0.9666     
O325-H326=0.9723     O325-H327=0.9660     H326-O325=0.9723     H327-O325=0.9660     O328-H329=0.9727     O328-H330=0.9736     
H329-O328=0.9727     H330-O328=0.9736     O331-H332=0.9645     O331-H333=0.9695     H332-O331=0.9645     H333-O331=0.9695     
O334-H335=0.9700     O334-H336=0.9703     H335-O334=0.9700     H336-O334=0.9703     O337-H338=0.9761     O337-H339=0.9681     
H338-O337=0.9761     H339-O337=0.9681     O340-H341=0.9557     O340-H342=0.9933     H341-O340=0.9557     H342-O340=0.9933     
O343-H344=0.9958     O343-H345=0.9564     H344-O343=0.9958     H345-O343=0.9564     O346-H347=0.9769     O346-H348=0.9729     
H347-O346=0.9769     H348-O346=0.9729     O349-H350=0.9666     O349-H351=0.9762     H350-O349=0.9666     H351-O349=0.9762     
O352-H353=0.9718     O352-H354=0.9924     H353-O352=0.9718     H354-O352=0.9924     O355-H356=0.9594     O355-H357=0.9645     
H356-O355=0.9594     H357-O355=0.9645     O358-H359=0.9780     O358-H360=0.9946     H359-O358=0.9780     H360-O358=0.9946     
O361-H362=0.9632     O361-H363=0.9757     H362-O361=0.9632     H363-O361=0.9757     O364-H365=0.9880     O364-H366=0.9567     
H365-O364=0.9880     H366-O364=0.9567     O367-H368=0.9717     O367-H369=0.9762     H368-O367=0.9717     H369-O367=0.9762     
O370-H371=0.9655     O370-H372=0.9662     H371-O370=0.9655     H372-O370=0.9662     O373-H374=0.9750     O373-H375=0.9684     
H374-O373=0.9750     H375-O373=0.9684     O376-H377=0.9759     O376-H378=0.9713     H377-O376=0.9759     H378-O376=0.9713     
O379-H380=0.9734     O379-H381=0.9755     H380-O379=0.9734     H381-O379=0.9755     O382-H383=0.9595     O382-H384=0.9892     
H383-O382=0.9595     H384-O382=0.9892     O385-H386=0.9651     O385-H387=0.9794     H386-O385=0.9651     H387-O385=0.9794     
O388-H389=0.9570     O388-H390=0.9929     H389-O388=0.9570     H390-O388=0.9929     O391-H392=0.9884     O391-H393=0.9758     
H392-O391=0.9884     H393-O391=0.9758     O394-H395=0.9836     O394-H396=0.9738     H395-O394=0.9836     H396-O394=0.9738     
O397-H398=0.9971     O397-H399=0.9570     H398-O397=0.9971     H399-O397=0.9570     O400-H401=0.9664     O400-H402=0.9700     
H401-O400=0.9664     H402-O400=0.9700     O403-H404=0.9756     O403-H405=0.9575     H404-O403=0.9756     H405-O403=0.9575     
O406-H407=0.9580     O406-H408=0.9859     H407-O406=0.9580     H408-O406=0.9859     O409-H410=0.9778     O409-H411=0.9801     
H410-O409=0.9778     H411-O409=0.9801     O412-H413=0.9645     O412-H414=0.9718     H413-O412=0.9645     H414-O412=0.9718     
O415-H416=0.9883     O415-H417=0.9587     H416-O415=0.9883     H417-O415=0.9587     O418-H419=0.9644     O418-H420=0.9838     
H419-O418=0.9644     H420-O418=0.9838     O421-H422=0.9851     O421-H423=0.9789     H422-O421=0.9851     H423-O421=0.9789     
O424-H425=0.9644     O424-H426=0.9832     H425-O424=0.9644     H426-O424=0.9832     O427-H428=0.9708     O427-H429=0.9721     
H428-O427=0.9708     H429-O427=0.9721     O430-H431=0.9661     O430-H432=0.9691     H431-O430=0.9661     H432-O430=0.9691     
O433-H434=0.9761     O433-H435=0.9749     H434-O433=0.9761     H435-O433=0.9749     O436-H437=0.9649     O436-H438=0.9723     
H437-O436=0.9649     H438-O436=0.9723     O439-H440=0.9564     O439-H441=0.9767     H440-O439=0.9564     H441-O439=0.9767     
O442-H443=0.9668     O442-H444=0.9697     H443-O442=0.9668     H444-O442=0.9697     O445-H446=0.9705     O445-H447=0.9886     
H446-O445=0.9705     H447-O445=0.9886     O448-H449=0.9620     O448-H450=0.9668     H449-O448=0.9620     H450-O448=0.9668     
O451-H452=0.9590     O451-H453=0.9807     H452-O451=0.9590     H453-O451=0.9807     O454-H455=0.9677     O454-H456=0.9817     
H455-O454=0.9677     H456-O454=0.9817     O457-H458=0.9758     O457-H459=0.9775     H458-O457=0.9758     H459-O457=0.9775     
O460-H461=0.9697     O460-H462=0.9706     H461-O460=0.9697     H462-O460=0.9706     O463-H464=0.9756     O463-H465=0.9799     
H464-O463=0.9756     H465-O463=0.9799     O466-H467=0.9566     O466-H468=0.9785     H467-O466=0.9566     H468-O466=0.9785     
O469-H470=0.9930     O469-H471=0.9661     H470-O469=0.9930     H471-O469=0.9661     O472-H473=0.9845     O472-H474=0.9585     
H473-O472=0.9845     H474-O472=0.9585     O475-H476=0.9790     O475-H477=0.9586     H476-O475=0.9790     H477-O475=0.9586     
O478-H479=0.9596     O478-H480=0.9802     H479-O478=0.9596     H480-O478=0.9802     O481-H482=0.9871     O481-H483=0.9809     
H482-O481=0.9871     H483-O481=0.9809     O484-H485=0.9574     O484-H486=0.9862     H485-O484=0.9574     H486-O484=0.9862     
O487-H488=0.9737     O487-H489=0.9700     H488-O487=0.9737     H489-O487=0.9700     O490-H491=0.9714     O490-H492=0.9635     
H491-O490=0.9714     H492-O490=0.9635     O493-H494=0.9702     O493-H495=0.9833     H494-O493=0.9702     H495-O493=0.9833     
O496-H497=0.9697     O496-H498=0.9743     H497-O496=0.9697     H498-O496=0.9743     O499-H500=0.9822     O499-H501=0.9768     
H500-O499=0.9822     H501-O499=0.9768     O502-H503=0.9752     O502-H504=0.9647     H503-O502=0.9752     H504-O502=0.9647     
O505-H506=0.9932     O505-H507=0.9585     H506-O505=0.9932     H507-O505=0.9585     O508-H509=0.9806     O508-H510=0.9669     
H509-O508=0.9806     H510-O508=0.9669     O511-H512=0.9633     O511-H513=0.9779     H512-O511=0.9633     H513-O511=0.9779     
O514-H515=0.9784     O514-H516=0.9759     H515-O514=0.9784     H516-O514=0.9759     O517-H518=0.9686     O517-H519=0.9719     
H518-O517=0.9686     H519-O517=0.9719     O520-H521=0.9632     O520-H522=0.9799     H521-O520=0.9632     H522-O520=0.9799     
O523-H524=0.9621     O523-H525=0.9786     H524-O523=0.9621     H525-O523=0.9786     O526-H527=0.9746     O526-H528=0.9751     
H527-O526=0.9746     H528-O526=0.9751     O529-H530=0.9675     O529-H531=0.9740     H530-O529=0.9675     H531-O529=0.9740     
O532-H533=0.9741     O532-H534=0.9713     H533-O532=0.9741     H534-O532=0.9713     O535-H536=0.9680     O535-H537=0.9832     
H536-O535=0.9680     H537-O535=0.9832     O538-H539=0.9775     O538-H540=0.9775     H539-O538=0.9775     H540-O538=0.9775     
O541-H542=0.9689     O541-H543=0.9910     H542-O541=0.9689     H543-O541=0.9910     O544-H545=0.9742     O544-H546=0.9697     
H545-O544=0.9742     H546-O544=0.9697     O547-H548=0.9833     O547-H549=0.9570     H548-O547=0.9833     H549-O547=0.9570     
O550-H551=0.9700     O550-H552=0.9828     H551-O550=0.9700     H552-O550=0.9828     O553-H554=0.9848     O553-H555=0.9840     
H554-O553=0.9848     H555-O553=0.9840     O556-H557=0.9853     O556-H558=0.9792     H557-O556=0.9853     H558-O556=0.9792     
O559-H560=0.9863     O559-H561=0.9769     H560-O559=0.9863     H561-O559=0.9769     O562-H563=0.9795     O562-H564=0.9758     
H563-O562=0.9795     H564-O562=0.9758     O565-H566=0.9709     O565-H567=0.9604     H566-O565=0.9709     H567-O565=0.9604     
O568-H569=0.9657     O568-H570=0.9707     H569-O568=0.9657     H570-O568=0.9707     O571-H572=0.9811     O571-H573=0.9678     
H572-O571=0.9811     H573-O571=0.9678     O574-H575=0.9763     O574-H576=0.9946     H575-O574=0.9763     H576-O574=0.9946     
O577-H578=0.9670     O577-H579=0.9735     H578-O577=0.9670     H579-O577=0.9735     O580-H581=0.9638     O580-H582=0.9766     
H581-O580=0.9638     H582-O580=0.9766     O583-H584=0.9629     O583-H585=0.9700     H584-O583=0.9629     H585-O583=0.9700     
O586-H587=0.9766     O586-H588=0.9750     H587-O586=0.9766     H588-O586=0.9750     O589-H590=0.9791     O589-H591=0.9677     
H590-O589=0.9791     H591-O589=0.9677     O592-H593=0.9621     O592-H594=0.9838     H593-O592=0.9621     H594-O592=0.9838     
O595-H596=0.9967     O595-H597=0.9567     H596-O595=0.9967     H597-O595=0.9567     O598-H599=0.9628     O598-H600=0.9851     
H599-O598=0.9628     H600-O598=0.9851     O601-H602=0.9710     O601-H603=0.9779     H602-O601=0.9710     H603-O601=0.9779     
O604-H605=0.9659     O604-H606=0.9839     H605-O604=0.9659     H606-O604=0.9839     O607-H608=0.9738     O607-H609=0.9652     
H608-O607=0.9738     H609-O607=0.9652     O610-H611=0.9810     O610-H612=0.9743     H611-O610=0.9810     H612-O610=0.9743     
 C  H  Rav=1.0864 sigma=0.0021  Rmin=1.0834  Rmax=1.0893     4
 C  C  Rav=1.5198 sigma=0.0000  Rmin=1.5198  Rmax=1.5198     1
 N  H  Rav=1.0428 sigma=0.0035  Rmin=1.0384  Rmax=1.0471     3
 N  C  Rav=1.4763 sigma=0.0000  Rmin=1.4763  Rmax=1.4763     1
 O  H  Rav=0.9736 sigma=0.0087  Rmin=0.9557  Rmax=0.9993   401
 O  C  Rav=1.4188 sigma=0.0000  Rmin=1.4188  Rmax=1.4188     1
 
 selected bond angles (degree)
 --------------------
H3-C2-H1=108.67                C4-C2-H1=109.63                C4-C2-H3=109.84                O7-C2-H1=109.85                
O7-C2-H3=106.41                O7-C2-C4=112.34                H5-C4-C2=108.77                H6-C4-C2=109.18                
H6-C4-H5=108.38                N9-C4-C2=111.61                N9-C4-H5=109.44                N9-C4-H6=109.39                
H8-O7-C2=109.57                H10-N9-C4=110.39               H11-N9-C4=111.93               H11-N9-H10=106.89              
H12-N9-C4=110.85               H12-N9-H10=107.60              H12-N9-H11=109.01              
 
 selected dihedral angles (degree)
 ---------------------------------
H5-C4-C2-H1=199.56            H5-C4-C2-H3= 80.22            H5-C4-C2-O7=321.99            H6-C4-C2-H1= 81.47            
H6-C4-C2-H3=322.13            H6-C4-C2-O7=203.90            N9-C4-C2-H1=320.41            N9-C4-C2-H3=201.07            
N9-C4-C2-O7= 82.84            H8-O7-C2-H1= 75.39            H8-O7-C2-H3=192.85            H8-O7-C2-C4=313.08            
H10-N9-C4-C2=237.38           H10-N9-C4-H5=357.84           H10-N9-C4-H6=116.44           H11-N9-C4-C2=118.45           
H11-N9-C4-H5=238.91           H11-N9-C4-H6=357.51           H12-N9-C4-C2=356.50           H12-N9-C4-H5=116.96           
H12-N9-C4-H6=235.56           
 
 CMA Distance (Angstroems)
 ---------------------------
R(CMA):  1.2151
           -------------------------------------------------
          |                Final Singlepoint                |
           -------------------------------------------------

          ...................................................
          :                      SETUP                      :
          :.................................................:
          :  # basis functions                1224          :
          :  # atomic orbitals                1224          :
          :  # shells                          816          :
          :  # electrons                      1626          :
          :  max. iterations                   250          :
          :  Hamiltonian                  GFN2-xTB          :
          :  restarted?                      false          :
          :  GBSA solvation                  false          :
          :  PC potential                    false          :
          :  electronic temp.          300.0000000     K    :
          :  accuracy                    1.0000000          :
          :  -> integral cutoff          0.2500000E+02      :
          :  -> integral neglect         0.1000000E-07      :
          :  -> SCF convergence          0.1000000E-05 Eh   :
          :  -> wf. convergence          0.1000000E-03 e    :
          :  Broyden damping             0.4000000          :
          ...................................................

 iter      E             dE          RMSdq      gap      omega  full diag
   1  -1039.8128601 -0.103981E+04  0.200E-05    8.07       0.0  T
   2  -1039.8128601 -0.115961E-10  0.121E-05    8.07     335.1  T
   3  -1039.8128601  0.113687E-11  0.235E-06    8.07    1721.6  T

   *** convergence criteria satisfied after 3 iterations ***

         #    Occupation            Energy/Eh            Energy/eV
      -------------------------------------------------------------
         1        2.0000           -0.7411951             -20.1689
       ...           ...                  ...                  ...
       807        2.0000           -0.4590140             -12.4904
       808        2.0000           -0.4584908             -12.4762
       809        2.0000           -0.4580269             -12.4635
       810        2.0000           -0.4578182             -12.4579
       811        2.0000           -0.4567138             -12.4278
       812        2.0000           -0.4550390             -12.3822
       813        2.0000           -0.4467963             -12.1579 (HOMO)
       814                         -0.1503057              -4.0900 (LUMO)
       815                         -0.1383087              -3.7636
       816                         -0.1265288              -3.4430
       817                         -0.1241227              -3.3775
       818                         -0.1122159              -3.0535
       ...                                ...                  ...
      1224                          0.3855353              10.4910
      -------------------------------------------------------------
                  HL-Gap            0.2964905 Eh            8.0679 eV
             Fermi-level           -0.2985510 Eh           -8.1240 eV

 SCC (total)                   0 d,  0 h,  0 min, 12.302 sec
 SCC setup                      ...        0 min,  0.032 sec (  0.263%)
 Dispersion                     ...        0 min,  0.082 sec (  0.665%)
 classical contributions        ...        0 min,  0.021 sec (  0.168%)
 integral evaluation            ...        0 min,  0.682 sec (  5.546%)
 iterations                     ...        0 min,  1.873 sec ( 15.223%)
 molecular gradient             ...        0 min,  9.542 sec ( 77.561%)
 printout                       ...        0 min,  0.071 sec (  0.574%)

         :::::::::::::::::::::::::::::::::::::::::::::::::::::
         ::                     SUMMARY                     ::
         :::::::::::::::::::::::::::::::::::::::::::::::::::::
         :: total energy           -1033.465792471157 Eh    ::
         :: gradient norm              0.000385386989 Eh/a0 ::
         :: HOMO-LUMO gap              8.067918188445 eV    ::
         ::.................................................::
         :: SCC energy             -1039.812860051878 Eh    ::
         :: -> isotropic ES            5.731161905928 Eh    ::
         :: -> anisotropic ES         -1.308137246604 Eh    ::
         :: -> anisotropic XC         -0.097718786288 Eh    ::
         :: -> dispersion             -0.636803535742 Eh    ::
         :: repulsion energy           6.223379245962 Eh    ::
         :: add. restraining           0.000000000000 Eh    ::
         :: total charge               1.000000000000 e     ::
         :::::::::::::::::::::::::::::::::::::::::::::::::::::

           ------------------------------------------------- 
          |                Numerical Hessian                |
           ------------------------------------------------- 
step length          :   0.00500
SCC accuracy         :   0.30000
Hessian scale factor :   1.00000
frozen atoms in %    :   0.00000    0
RMS gradient         :   0.00039
estimated CPU  time    762.66 min
estimated wall time    764.54 min
