612
 energy: -1033.465792460441 gnorm: 0.000450104750 xtb: 6.5.1 (579679a)
H           -2.37956818960000       -0.19446487770000       -1.24434632160000
C           -1.34801905100000       -0.40631672000000       -1.52308430930000
H           -1.33860819920000       -1.25269496270000       -2.20396432610000
C           -0.54043132890000       -0.73634500250000       -0.27867797470000
H            0.51486706290000       -0.60405713150000       -0.50135343830000
H           -0.70588548120000       -1.77311782540000       -0.01150457440000
O           -0.80784903940000        0.69171078100000       -2.24099925800000
H           -0.60343652440000        1.42290050170000       -1.61860930490000
N           -0.91494912600000        0.12835681090000        0.85780352330000
H           -0.08025686760000        0.64200316170000        1.21404428870000
H           -1.29414575220000       -0.42002555910000        1.65392699350000
H           -1.62437743470000        0.84096901690000        0.56593105840000
O            1.54018370720000        6.52235795210000        3.38582479420000
H            0.96028745670000        5.97527249560000        3.95059731560000
H            2.40892829170000        6.44593111450000        3.81911124380000
O            3.07488994730000        3.07809525250000       -3.34457447540000
H            3.98958237130000        3.38349908010000       -3.23768029160000
H            2.90419327160000        2.43568452900000       -2.62648043940000
O            6.10893653300000        3.38295022170000        0.46948897150000
H            6.67038403580000        3.02386644250000       -0.25005529830000
H            6.24543500330000        2.75398865540000        1.20495791080000
O           -2.02657699190000        1.65989536490000        3.05047899990000
H           -2.67675228380000        2.30568023220000        3.38284394890000
H           -2.56604433910000        0.83907644640000        2.98913850980000
O           -4.64217253490000        1.40281422170000       -1.52883090650000
H           -5.24471973200000        1.05927470900000       -0.84806858890000
H           -4.97853876940000        2.27643945060000       -1.76794867680000
O           -1.61144559660000       -4.07802767050000       -4.81539910120000
H           -1.00592962810000       -3.94664310200000       -5.57006875320000
H           -1.66506709010000       -5.03270647800000       -4.65110504310000
O            1.18479073410000        1.61417300500000        1.52425699130000
H            2.11064316930000        1.46807218880000        1.25777570690000
H            1.26233833050000        1.99516893530000        2.42364226860000
O            4.75687463930000        6.35369600110000       -0.51950222570000
H            5.01621394730000        6.31613545570000        0.41862022560000
H            4.32237044450000        5.49195709450000       -0.67372639110000
O            1.31120490240000       -1.59471499230000        2.49273957970000
H            1.53247586650000       -1.97939473210000        1.61839782670000
H            2.03732150730000       -1.01423381430000        2.76633086130000
O           -0.44838999120000       -3.85153613110000       -1.04178042510000
H            0.28263022970000       -3.67316978870000       -0.41815022320000
H           -0.16939627190000       -3.48392834810000       -1.90631291650000
O            1.29321104250000        4.85734570420000       -1.28857863290000
H            1.11022494630000        5.50129531150000       -0.58276742360000
H            2.20473433270000        4.55394606790000       -1.15952810610000
O            5.74570064220000        3.58960346780000       -2.95273891520000
H            5.77198123020000        4.54652215460000       -2.76675074880000
H            6.51054708260000        3.43532387170000       -3.53093749880000
O           -3.82126111960000       -0.25552809660000        2.94642809220000
H           -3.83623659090000       -1.09661629740000        3.43652622110000
H           -3.85774059900000       -0.50626086090000        1.99661976120000
O            0.09700240400000        1.76091471180000        7.80185852470000
H           -0.01915520060000        1.55155991520000        6.85929933800000
H           -0.79549287980000        1.87403080620000        8.14185016680000
O           -0.41327110850000        1.75027077720000        5.09907625820000
H           -0.94691534020000        1.47321150820000        4.31708409220000
H           -0.89335715090000        2.54505990650000        5.40497915800000
O            5.27710031170000       -2.06420093960000       -2.16159171790000
H            5.22311066800000       -3.03757945430000       -2.11373705500000
H            4.38487072110000       -1.69438953530000       -1.98939395890000
O           -3.01110316590000       -5.57342573660000        4.30048870570000
H           -2.71078558480000       -5.15752698610000        5.11999332630000
H           -3.97982029160000       -5.69706309970000        4.43194382220000
O            0.29626141640000       -4.69437093870000        1.47129828050000
H            0.17434921110000       -5.65578791470000        1.52211894990000
H            1.09185952220000       -4.50478622610000        2.00922927360000
O            1.05415301670000       -0.73167464240000        5.57122202850000
H            0.76633852300000       -1.62423503500000        5.30906167200000
H            0.34052769410000       -0.12323057110000        5.34879654850000
O           -1.14092141950000       -1.99184918020000        7.46553292560000
H           -1.43556323960000       -1.56338668770000        8.26886747020000
H           -1.36942439320000       -1.37713451210000        6.71846791350000
O            4.60605201980000        2.93758101150000        3.36130104640000
H            5.52483956970000        3.26119429060000        3.43406029520000
H            4.38638756540000        2.50442555630000        4.20344207950000
O           -1.18986317420000        4.91634172820000       -2.52469527260000
H           -1.49715559480000        4.66774952050000       -1.63635079830000
H           -0.80201615010000        5.79522908350000       -2.42591498480000
O           -4.77008656890000        2.13866201000000        1.60147950200000
H           -3.88932050430000        1.99368400100000        1.19929314800000
H           -5.34114322480000        1.42023582820000        1.25834822180000
O           -2.82132670760000       -3.52250845030000        0.20259329240000
H           -2.08443622350000       -3.62178477470000       -0.42804814120000
H           -2.40503733430000       -3.63793569650000        1.09298473070000
O            2.85077194130000       -0.99323777110000       -1.73478137240000
H            2.35260536380000       -0.77959952910000       -2.55118039480000
H            2.90006029780000       -0.13451922720000       -1.28379661090000
O            7.84562942780000        2.42000393840000       -1.24210655390000
H            7.60197220510000        1.78553190670000       -1.95679606250000
H            8.27154187440000        3.18805522780000       -1.65585229040000
O           -2.64081293610000        2.02982021860000        0.07576890780000
H           -3.26023971110000        1.83340261000000       -0.66092896220000
H           -2.29596979330000        2.93021215670000       -0.05392095150000
O            2.34346656580000        1.61029990050000       -1.22631333210000
H            1.40794419290000        1.87011849030000       -1.13330064510000
H            2.85992655060000        2.28335559860000       -0.75160148300000
O            1.25801933980000       -3.20149179090000        8.25575178430000
H            0.38012539910000       -2.98808270150000        7.90629759220000
H            1.62319315810000       -2.34622086360000        8.52044330170000
O           -1.82408492630000       -3.81325301200000        2.58826934640000
H           -2.17966595630000       -4.50451292650000        3.17482804700000
H           -0.95175140170000       -4.16246329080000        2.24808785450000
O            0.75674509430000        0.03652277770000       -7.47586692820000
H           -0.01059588900000       -0.52785611530000       -7.71263649070000
H            0.39061590970000        0.68992750830000       -6.85565133030000
O            2.43031541930000        7.65638045330000       -1.22734665340000
H            1.97541399110000        7.45159495680000       -0.39402873190000
H            3.33508588080000        7.32924279300000       -1.09552035990000
O            0.83426123160000        4.05291369080000       -6.02023242120000
H           -0.13207597850000        4.05463206660000       -6.03076213070000
H            1.06933616160000        4.61383838430000       -5.25968512000000
O            4.11742647920000       -4.15874502190000       -4.72869015580000
H            4.19934021550000       -3.28268973010000       -5.13175481710000
H            4.95695520140000       -4.60481783610000       -4.87039849610000
O           -3.32099792380000       -5.46732985430000       -2.02453606020000
H           -4.07816282170000       -5.85195679380000       -1.54425381990000
H           -2.51705163570000       -5.76748126490000       -1.55832626390000
O          -10.51250151090000       -1.89636573060000        3.11598447130000
H          -10.95161268990000       -1.10261171020000        2.77003169580000
H          -10.03921056090000       -2.25104624630000        2.34780778200000
O           -8.55669210400000       -2.38128942360000        1.20658711400000
H           -8.10586440480000       -3.22663804060000        1.25627914420000
H           -8.31590571290000       -2.01810614890000        0.32429597880000
O           -1.23166623540000       -1.29604141570000        3.12583091640000
H           -0.25952132850000       -1.36546909230000        3.02524978180000
H           -1.55378724830000       -2.21643114890000        3.01654296430000
O            0.25620193440000        2.84077401570000       -3.45812036600000
H            1.17432039120000        3.13094364580000       -3.46046862350000
H           -0.27856595240000        3.59272056760000       -3.14198027390000
O           -1.85711612030000        7.00521431990000       -4.36267657230000
H           -2.72186842580000        7.08083383160000       -3.94917843230000
H           -1.23030375000000        7.37257752870000       -3.72511536870000
O           -6.11165451570000       -1.77307871090000        2.30382592510000
H           -5.66703703810000       -2.60769867330000        2.10321637840000
H           -6.74136397720000       -1.96558777310000        3.01330998850000
O            6.54529827240000        3.26071386410000        6.43815816930000
H            6.78858315600000        2.31332218680000        6.46885548920000
H            6.89578612130000        3.66548029690000        7.23051589070000
O           -5.85262340400000       -4.92007343260000       -3.11180251170000
H           -6.76716834360000       -4.63017947280000       -3.29011931850000
H           -5.90599837700000       -5.78107698560000       -2.68828164580000
O            2.63548919020000        4.38278988650000        2.04583138390000
H            2.15290862090000        5.15869183870000        2.36638377000000
H            2.49890065960000        3.68419855860000        2.70439364130000
O            4.99659979630000        1.52096468520000       -1.40881344810000
H            5.35606377810000        2.31725148830000       -1.83953700080000
H            4.60735584880000        1.00949992980000       -2.13307703990000
O           -0.19243088490000       -5.71845391880000        4.13550417150000
H            0.62958767530000       -6.24472075130000        3.99355387550000
H           -0.67423824800000       -6.16674377190000        4.82860573440000
O           -5.57515798950000       -5.72494643300000        4.89086825690000
H           -6.29301477380000       -5.55298644360000        4.24890148710000
H           -5.65095951210000       -4.99846296670000        5.52939935720000
O            2.87564891250000       -4.01863028250000       -2.20252109000000
H            3.42882266710000       -4.02233808900000       -1.39540950090000
H            3.45769602750000       -4.14404817320000       -2.96476872370000
O            4.18284545580000        4.46034884710000       -5.78872061230000
H            4.09052422090000        4.86352677970000       -4.89906895250000
H            3.29635509830000        4.40918466540000       -6.15473488540000
O            3.62878697740000        3.88651151630000       -0.32277225130000
H            3.21536915510000        4.04397352730000        0.55368776430000
H            4.56080095270000        3.65975346390000       -0.10920324530000
O            1.64238445920000       -1.73506734460000       -5.77076048880000
H            1.43147483060000       -1.31124465460000       -4.91264260670000
H            1.39061862030000       -1.05849456010000       -6.45588127670000
O           -3.57243787080000       -0.18174815650000       -4.38870624890000
H           -2.68941236390000       -0.58067811380000       -4.31718222310000
H           -4.04798097060000       -0.75936312120000       -5.01368488130000
O            0.18727795200000       -3.73084744720000       -6.80446761300000
H           -0.39839598520000       -3.26979230120000       -7.42111542110000
H            0.75275699660000       -3.01575648540000       -6.43846044250000
O            3.54772557470000        5.27430670290000        4.73664381070000
H            3.84160954570000        4.48761191680000        4.25121136360000
H            3.09907819800000        4.95282720440000        5.52230244540000
O           -0.64142065110000        1.30106131070000       -5.46747111250000
H           -0.33375066990000        1.90174636020000       -4.75327541990000
H           -1.54477770250000        1.55015514960000       -5.68389827670000
O            3.82474862270000        1.50504852290000        1.25550190550000
H            4.39483149430000        1.65209997280000        0.49027355550000
H            4.15800303340000        2.03219098010000        2.01047354740000
O           -2.12775153730000        3.71963442350000        5.83190492780000
H           -2.85732163440000        3.67437167630000        5.19887768500000
H           -2.38540870780000        3.11891085150000        6.56198830790000
O            3.99922196000000        2.28035868620000        5.89800864040000
H            4.00618358280000        1.40967892760000        6.36024108770000
H            4.78569313090000        2.75621284850000        6.20291108670000
O            1.36430002930000       -0.06068390030000       -3.72833685120000
H            1.65951629450000        0.66109321070000       -4.31820328420000
H            0.60696994480000        0.28817089400000       -3.22306952010000
O           -5.09936497050000       -1.76044254710000       -6.00075272810000
H           -4.76041470600000       -2.68217353410000       -5.96776575490000
H           -5.79744927840000       -1.75116714370000       -5.30664413610000
O           -1.13354887590000       -1.23833133230000       -4.73060455440000
H           -0.49022302680000       -1.74339965590000       -4.21324206240000
H           -0.76950855840000       -0.34408803090000       -4.89440818360000
O           -3.05798221710000       -8.22923228970000       -0.34101282630000
H           -2.95593449360000       -8.28844509120000        0.61534951770000
H           -2.29660218240000       -7.72181135910000       -0.65002127740000
O            9.98527635870000       -4.66388546250000        1.01725926370000
H            9.15534140460000       -4.94464548440000        0.59684969400000
H           10.37891824740000       -4.00966042950000        0.41950817730000
O            2.81971768340000       -6.76635491930000        1.21206941340000
H            3.74080303670000       -7.01971323270000        1.10896934780000
H            2.47907676810000       -6.57115577160000        0.32172508470000
O           -6.15692249760000        0.86885474900000        3.57920714110000
H           -5.31729983480000        0.40589920970000        3.36335842270000
H           -6.40942603070000        0.65000237530000        4.48603714050000
O            6.99634855360000        4.03485037290000        3.80906507210000
H            6.87202726270000        3.99339188650000        4.76940785780000
H            7.75990967420000        3.46600076460000        3.62632977180000
O            8.14265147080000        3.90708740320000       -4.27228845330000
H            7.70993575440000        4.62013588010000       -4.79922792570000
H            8.54995687610000        4.35325153700000       -3.51914822510000
O            8.98175710220000        4.87501789610000       -1.73348609640000
H            9.87084967040000        4.50883334460000       -1.72295369050000
H            8.73160403770000        5.07656008550000       -0.80293918320000
O           -3.66289510180000       -0.98137011150000        0.40755714940000
H           -3.32246295240000       -1.89020906980000        0.32737825930000
H           -4.44202602620000       -0.94240139410000       -0.16011723880000
O            5.39051866840000        2.05988200990000       -5.88902698160000
H            4.94550061170000        1.62969514690000       -6.63157305510000
H            5.01883704610000        2.96562390750000       -5.84096457060000
O           -2.02600483690000       -0.46485265400000        5.54008147770000
H           -1.79347140820000       -0.76750561530000        4.63470614190000
H           -2.97676005500000       -0.66041754510000        5.66486889790000
O           -8.88820617120000        0.78600909300000        0.20476405130000
H           -9.13348011950000        1.72171647760000        0.16114979760000
H           -8.88579268240000        0.55889242150000        1.16616133590000
O           -8.31896056830000        2.57897661120000       -5.03478152310000
H           -8.44381256100000        1.61108974190000       -4.94900537910000
H           -9.09098488630000        2.91589966110000       -5.48647313100000
O            7.66372835360000       -4.85690032190000       -0.44170403600000
H            8.22460968630000       -4.52950388950000       -1.18023265430000
H            7.26727111960000       -4.06092972420000       -0.01267033310000
O            6.34623009490000       -2.85058436750000        0.63233423950000
H            6.63889786310000       -2.66862858650000        1.55198060540000
H            6.36120789480000       -1.97610862080000        0.20611871140000
O           -5.26105733010000        1.98934620050000        6.10038787130000
H           -4.80912629180000        2.37149314580000        5.32697778770000
H           -6.16604665090000        2.32950572220000        6.01483056600000
O           -0.48642658400000        3.85447396520000        2.37164925990000
H           -0.02619675060000        3.98473327130000        3.21919718760000
H           -1.00378108320000        3.03941626130000        2.46095533520000
O           -6.93114091410000        5.09341696940000        3.19965459670000
H           -7.41196857710000        5.51682930590000        2.45833713460000
H           -6.03308775810000        5.44851742070000        3.18634066520000
O           -1.81645479900000        4.63220994440000        0.07884161910000
H           -1.16895255250000        4.57173384420000        0.79146788300000
H           -2.33603267280000        5.43976174560000        0.19535958030000
O           -1.25380480580000        8.33687606770000        0.11316720600000
H           -2.09206482820000        7.83330660410000        0.08461389140000
H           -1.43349412220000        9.16686749080000        0.55201351660000
O            2.50059686970000       -4.43382275950000        2.86232663680000
H            3.12910075160000       -3.68885491600000        2.94819400570000
H            2.92500011670000       -5.11498066310000        2.33010094440000
O            7.34378025670000       -1.84605044650000        2.84223776070000
H            7.99513633450000       -2.47418597620000        3.20952632180000
H            7.86668592990000       -1.33383406230000        2.19790939790000
O           -1.34491738720000       -1.60519150930000       -7.43718445040000
H           -1.37372364360000       -1.57955636040000       -6.46029510820000
H           -2.13811903700000       -1.10875897960000       -7.72437575550000
O           -8.49239967600000       -0.04066700870000        2.62639068090000
H           -8.41220624490000       -0.93633184900000        2.26296302090000
H           -7.60713404680000        0.22635291350000        2.93345269900000
O            4.62792785220000        0.46377319040000       -3.86528768950000
H            4.35590361380000       -0.31169583620000       -4.38207503200000
H            4.82186824590000        1.15461261140000       -4.53044081840000
O           -3.43090502570000        2.18742532860000       -6.22893254960000
H           -2.91954135590000        3.00064728410000       -6.29896870510000
H           -4.36520551780000        2.45926308340000       -6.22883859930000
O            7.11324889480000       -2.04677780660000        5.88696355620000
H            6.13845788860000       -2.06314361230000        5.84849360460000
H            7.37394835810000       -2.96319778560000        5.66475410670000
O            4.39333698580000       -2.07209871490000        5.62482244440000
H            4.37934136640000       -2.11770252120000        4.64531511950000
H            3.78341376750000       -2.78723383950000        5.90829823150000
O            0.14258506470000       -6.98767842690000       -3.43459479510000
H           -0.69587734540000       -7.13581078020000       -3.89210140630000
H            0.61673150420000       -6.30688634960000       -3.95027949940000
O            6.66567608090000        5.82299584040000       -5.31361259280000
H            6.44522495130000        6.15312665040000       -4.42968456940000
H            5.85441061970000        5.45314877610000       -5.68383606990000
O            5.63711829880000       -4.74382611490000       -2.24819345170000
H            6.15787825290000       -4.72288227100000       -3.08294709010000
H            6.29895497400000       -4.88300394680000       -1.54502133950000
O            5.73494034440000        0.02045977840000        4.08161942510000
H            6.21517284540000       -0.77587948130000        3.78776130110000
H            6.11218922530000        0.26769179580000        4.94478172010000
O            1.77514385700000       -2.72399504030000        0.12464396400000
H            2.47484645290000       -3.35227765560000        0.35121437540000
H            2.19376118910000       -2.10155123510000       -0.49754012790000
O            3.02540584260000        0.08693164650000        3.83783575080000
H            3.98762414710000       -0.00390394760000        3.95792704850000
H            2.58039479810000       -0.29330379210000        4.61163718140000
O            8.88031077430000       -1.13672326380000        0.71723930120000
H            8.34156178680000       -1.28128649790000       -0.09114669470000
H            9.19616982990000       -0.21455338680000        0.61834355610000
O           -5.82497710350000       -3.15572548940000        5.92624546260000
H           -6.70049107670000       -3.06544838170000        5.53364718340000
H           -5.18749731990000       -2.93484480910000        5.20782932000000
O           -2.75895815660000       -3.82258009930000        6.35501563030000
H           -3.59347534020000       -3.70658584150000        6.81522711730000
H           -2.09873669010000       -3.25980944960000        6.80512278560000
O           -8.85297166240000        3.74394946960000       -2.44462156360000
H           -8.04921704400000        3.77481807360000       -2.99419680090000
H           -9.37107988850000        3.01310967620000       -2.80333962960000
O           -2.92094329820000       -2.86083337890000       -2.73672803090000
H           -3.12557287530000       -3.76650214800000       -2.45469851820000
H           -2.38434840760000       -2.96544864890000       -3.53316602170000
O            0.17946845770000        4.74556610500000        4.83995294900000
H           -0.67571020940000        4.67181245870000        5.28505670850000
H            0.84195960410000        4.37764640410000        5.46812702700000
O           -8.20901447810000        5.71116975160000        0.92149734600000
H           -7.70900806890000        5.84395578840000        0.10160548850000
H           -8.80605001810000        4.96770379810000        0.75167819980000
O           -4.96542671930000       -1.22407729430000       -2.15358613650000
H           -4.69562297750000       -0.30020222260000       -2.25656347070000
H           -4.20232181120000       -1.77252063630000       -2.42377025040000
O           -6.86888068650000        2.80992013630000       -0.57460982780000
H           -7.10605439340000        2.77005655120000        0.37167186470000
H           -7.52480788740000        3.36459353910000       -1.00873626100000
O           -2.72235711930000        1.61056183620000        7.33167345780000
H           -2.44595615440000        0.92117980760000        6.70390902280000
H           -3.68402178130000        1.65545046110000        7.24437599000000
O            7.63309855390000       -4.50381474610000        4.91699244820000
H            6.98763174400000       -4.64729145760000        4.20408788230000
H            8.47251827310000       -4.32044974540000        4.47554743550000
O            3.90019995760000       -1.09540448300000        0.93416684470000
H            3.66712662500000       -0.21152839190000        1.26658520160000
H            4.74429866660000       -0.94051690100000        0.47441154630000
O           -7.50197184840000       -4.96967699090000        3.20725625880000
H           -7.76471823110000       -4.09326028760000        3.51234784230000
H           -7.42095953710000       -4.93971161460000        2.24162203860000
O            0.80544900090000        6.63195206480000        0.73852945940000
H            1.06290212220000        6.68799919360000        1.67204405900000
H            0.01434005490000        7.18378816660000        0.63268127140000
O           -4.28023573090000       -4.21322330430000       -5.39264783030000
H           -3.33504530440000       -4.08459094750000       -5.18561297520000
H           -4.73055420620000       -4.41833183110000       -4.56059639620000
O          -11.74240586470000        1.77214754300000       -0.56411965550000
H          -12.61428738750000        1.78164914660000       -0.95535031240000
H          -11.10984524380000        1.50611431140000       -1.28226264980000
O           -7.49795621160000       -0.12187959550000        5.78009104820000
H           -8.40933751890000        0.17662595830000        5.51180767800000
H           -7.44775258560000        0.00442021160000        6.72677337970000
O           -7.99129660230000       -2.35310380240000        4.29609312800000
H           -7.81008561910000       -1.55952866650000        4.83615964950000
H           -8.91703524110000       -2.25869602060000        4.01228274290000
O           -5.46225869430000       -3.52254009110000       -0.83202933400000
H           -4.52453095500000       -3.48472416370000       -0.60045092840000
H           -5.50309160400000       -3.93422226270000       -1.71621530870000
O           -6.79465246180000       -1.68629671730000       -3.98104617570000
H           -7.29470984440000       -2.47640500960000       -3.71641504750000
H           -6.14959990730000       -1.49387284920000       -3.25188805600000
O           10.40735876210000        2.60614109540000       -2.73978635770000
H           10.09267787200000        2.73415255090000       -3.63701446580000
H           10.64843873390000        1.67494885000000       -2.66941921830000
O           -0.98778473090000       -6.39676423070000       -1.08236257740000
H           -0.57825237600000       -6.68043283040000       -1.92402455700000
H           -0.69530317300000       -5.45424249120000       -0.95865129250000
O           -4.78573858690000       -4.11728098310000        2.08242330360000
H           -4.18299368940000       -4.03145165580000        1.33600506670000
H           -4.98726721490000       -5.06840817050000        2.16464872880000
O           11.21782106100000        1.46573249220000        2.12574505870000
H           10.72901342460000        1.41470389680000        1.26870243300000
H           11.95918524100000        2.05357017550000        1.98385712230000
O           -5.30123414770000       -6.79604013240000       -0.74367215980000
H           -5.36044032860000       -6.65111171580000        0.21530920600000
H           -4.66715638630000       -7.53632933880000       -0.79804904540000
O           -6.64956325890000        0.45096686660000       -6.80064191170000
H           -6.14106180420000       -0.36618621900000       -6.87783059000000
H           -7.53613618400000        0.19468741230000       -6.51465244630000
O           -0.08702037950000        7.52819627680000       -2.27462272760000
H            0.85913505260000        7.62271862500000       -2.05911985700000
H           -0.54683263360000        7.92228138480000       -1.51887227690000
O            4.08776909140000       -4.19790589670000        0.20471371450000
H            4.80511564090000       -3.55788840950000        0.37230120370000
H            4.50387565480000       -5.06588232960000        0.33496065360000
O           -0.02054601630000        2.65362328930000       -0.58145734980000
H            0.28602237190000        2.55928992070000        0.33756792030000
H            0.28119593870000        3.52392802390000       -0.90270303580000
O            3.59848356530000        0.59641856730000       -7.37540668820000
H            2.97291922030000        0.36482406630000       -8.06512407720000