      -----------------------------------------------------------      
     |                   =====================                   |     
     |                           x T B                           |     
     |                   =====================                   |     
     |                         S. Grimme                         |     
     |          Mulliken Center for Theoretical Chemistry        |     
     |                    University of Bonn                     |     
      -----------------------------------------------------------      

   * xtb version 6.5.1 (579679a) compiled by 'ehlert@majestix' on 2022-07-11

   xtb is free software: you can redistribute it and/or modify it under
   the terms of the GNU Lesser General Public License as published by
   the Free Software Foundation, either version 3 of the License, or
   (at your option) any later version.
   
   xtb is distributed in the hope that it will be useful,
   but WITHOUT ANY WARRANTY; without even the implied warranty of
   MERCHANTABILITY or FITNESS FOR A PARTICULAR PURPOSE.  See the
   GNU Lesser General Public License for more details.
   
   Cite this work as:
   * C. Bannwarth, E. Caldeweyher, S. Ehlert, A. Hansen, P. Pracht,
     J. Seibert, S. Spicher, S. Grimme, WIREs Comput. Mol. Sci., 2020, 11,
     e01493. DOI: 10.1002/wcms.1493
   
   for GFN2-xTB:
   * C. Bannwarth, S. Ehlert and S. Grimme., J. Chem. Theory Comput., 2019,
     15, 1652-1671. DOI: 10.1021/acs.jctc.8b01176
   for GFN1-xTB:
   * S. Grimme, C. Bannwarth, P. Shushkov, J. Chem. Theory Comput., 2017,
     13, 1989-2009. DOI: 10.1021/acs.jctc.7b00118
   for GFN0-xTB:
   * P. Pracht, E. Caldeweyher, S. Ehlert, S. Grimme, ChemRxiv, 2019, preprint.
     DOI: 10.26434/chemrxiv.8326202.v1
   for GFN-FF:
   * S. Spicher and S. Grimme, Angew. Chem. Int. Ed., 2020, 59, 15665-15673.
     DOI: 10.1002/anie.202004239
   
   for ALPB and GBSA implicit solvation:
   * S. Ehlert, M. Stahn, S. Spicher, S. Grimme, J. Chem. Theory Comput.,
     2021, 17, 4250-4261. DOI: 10.1021/acs.jctc.1c00471
   
   for DFT-D4:
   * E. Caldeweyher, C. Bannwarth and S. Grimme, J. Chem. Phys., 2017,
     147, 034112. DOI: 10.1063/1.4993215
   * E. Caldeweyher, S. Ehlert, A. Hansen, H. Neugebauer, S. Spicher,
     C. Bannwarth and S. Grimme, J. Chem. Phys., 2019, 150, 154122.
     DOI: 10.1063/1.5090222
   * E. Caldeweyher, J.-M. Mewes, S. Ehlert and S. Grimme, Phys. Chem. Chem. Phys.
     2020, 22, 8499-8512. DOI: 10.1039/D0CP00502A
   
   for sTDA-xTB:
   * S. Grimme and C. Bannwarth, J. Chem. Phys., 2016, 145, 054103.
     DOI: 10.1063/1.4959605
   
   in the mass-spec context:
   * V. Asgeirsson, C. Bauer and S. Grimme, Chem. Sci., 2017, 8, 4879.
     DOI: 10.1039/c7sc00601b
   * J. Koopman and S. Grimme, ACS Omega 2019, 4, 12, 15120-15133.
     DOI: 10.1021/acsomega.9b02011
   
   for metadynamics refer to:
   * S. Grimme, J. Chem. Theory Comput., 2019, 155, 2847-2862
     DOI: 10.1021/acs.jctc.9b00143
   
   for SPH calculations refer to:
   * S. Spicher and S. Grimme, J. Chem. Theory Comput., 2021, 17, 1701-1714
     DOI: 10.1021/acs.jctc.0c01306
   
   with help from (in alphabetical order)
   P. Atkinson, C. Bannwarth, F. Bohle, G. Brandenburg, E. Caldeweyher
   M. Checinski, S. Dohm, S. Ehlert, S. Ehrlich, I. Gerasimov, C. Hölzer
   A. Katbashev, J. Koopman, C. Lavigne, S. Lehtola, F. März, M. Müller,
   F. Musil, H. Neugebauer, J. Pisarek, C. Plett, P. Pracht, F. Pultar,
   J. Seibert, P. Shushkov, S. Spicher, M. Stahn, M. Steiner, T. Strunk,
   J. Stückrath, T. Rose, and J. Unsleber
   
 * started run on 2022/11/03 at 00:49:15.948     

           -------------------------------------------------
          |                Calculation Setup                |
           -------------------------------------------------

          program call               : xtb cluster.xyz --gfn2 --ohess
          hostname                   : cn0272
          coordinate file            : cluster.xyz
          omp threads                :                     1

   ID    Z sym.   atoms
    1    1 H      1, 3, 5, 6, 8, 10-12, 14, 15, 17, 18, 20, 21, 23, 24, 26,
                  27, 29, 30, 32, 33, 35, 36, 38, 39, 41, 42, 44, 45, 47, 48,
                  50, 51, 53, 54, 56, 57, 59, 60, 62, 63, 65, 66, 68, 69, 71,
                  72, 74, 75, 77, 78, 80, 81, 83, 84, 86, 87, 89, 90, 92, 93,
                  95, 96, 98, 99, 101, 102, 104, 105, 107, 108, 110, 111,
                  113, 114, 116, 117, 119, 120, 122, 123, 125, 126, 128, 129,
                  131, 132, 134, 135, 137, 138, 140, 141, 143, 144, 146, 147,
                  149, 150, 152, 153, 155, 156, 158, 159, 161, 162, 164, 165,
                  167, 168, 170, 171, 173, 174, 176, 177, 179, 180, 182, 183,
                  185, 186, 188, 189, 191, 192, 194, 195, 197, 198, 200, 201,
                  203, 204, 206, 207, 209, 210, 212, 213, 215, 216, 218, 219,
                  221, 222, 224, 225, 227, 228, 230, 231, 233, 234, 236, 237,
                  239, 240, 242, 243, 245, 246, 248, 249, 251, 252, 254, 255,
                  257, 258, 260, 261, 263, 264, 266, 267, 269, 270, 272, 273,
                  275, 276, 278, 279, 281, 282, 284, 285, 287, 288, 290, 291,
                  293, 294, 296, 297, 299, 300, 302, 303, 305, 306, 308, 309,
                  311, 312, 314, 315, 317, 318, 320, 321, 323, 324, 326, 327,
                  329, 330, 332, 333, 335, 336, 338, 339, 341, 342, 344, 345,
                  347, 348, 350, 351, 353, 354, 356, 357, 359, 360, 362, 363,
                  365, 366, 368, 369, 371, 372, 374, 375, 377, 378, 380, 381,
                  383, 384, 386, 387, 389, 390, 392, 393, 395, 396, 398, 399,
                  401, 402, 404, 405, 407, 408, 410, 411, 413, 414, 416, 417,
                  419, 420, 422, 423, 425, 426, 428, 429, 431, 432, 434, 435,
                  437, 438, 440, 441, 443, 444, 446, 447, 449, 450, 452, 453,
                  455, 456, 458, 459, 461, 462, 464, 465, 467, 468, 470, 471,
                  473, 474, 476, 477, 479, 480, 482, 483, 485, 486, 488, 489,
                  491, 492, 494, 495, 497, 498, 500, 501, 503, 504, 506, 507,
                  509, 510, 512, 513, 515, 516, 518, 519, 521, 522, 524, 525,
                  527, 528, 530, 531, 533, 534, 536, 537, 539, 540, 542, 543,
                  545, 546, 548, 549, 551, 552, 554, 555, 557, 558, 560, 561,
                  563, 564, 566, 567, 569, 570, 572, 573, 575, 576, 578, 579,
                  581, 582, 584, 585, 587, 588, 590, 591, 593, 594, 596, 597,
                  599, 600, 602, 603, 605, 606, 608, 609, 611, 612
    2    6 C      2, 4
    3    8 O      7, 13, 16, 19, 22, 25, 28, 31, 34, 37, 40, 43, 46, 49, 52,
                  55, 58, 61, 64, 67, 70, 73, 76, 79, 82, 85, 88, 91, 94, 97,
                  100, 103, 106, 109, 112, 115, 118, 121, 124, 127, 130, 133,
                  136, 139, 142, 145, 148, 151, 154, 157, 160, 163, 166, 169,
                  172, 175, 178, 181, 184, 187, 190, 193, 196, 199, 202, 205,
                  208, 211, 214, 217, 220, 223, 226, 229, 232, 235, 238, 241,
                  244, 247, 250, 253, 256, 259, 262, 265, 268, 271, 274, 277,
                  280, 283, 286, 289, 292, 295, 298, 301, 304, 307, 310, 313,
                  316, 319, 322, 325, 328, 331, 334, 337, 340, 343, 346, 349,
                  352, 355, 358, 361, 364, 367, 370, 373, 376, 379, 382, 385,
                  388, 391, 394, 397, 400, 403, 406, 409, 412, 415, 418, 421,
                  424, 427, 430, 433, 436, 439, 442, 445, 448, 451, 454, 457,
                  460, 463, 466, 469, 472, 475, 478, 481, 484, 487, 490, 493,
                  496, 499, 502, 505, 508, 511, 514, 517, 520, 523, 526, 529,
                  532, 535, 538, 541, 544, 547, 550, 553, 556, 559, 562, 565,
                  568, 571, 574, 577, 580, 583, 586, 589, 592, 595, 598, 601,
                  604, 607, 610
    4    7 N      9

molecular fragmentation (1/2 indicates fragments):
111111111111222222222222222222222222222222222222222222222222222222222222
222222222222222222222222222222222222222222222222222222222222222222222222
222222222222222222222222222222222222222222222222222222222222222222222222
222222222222222222222222222222222222222222222222222222222222222222222222
222222222222222222222222222222222222222222222222222222222222222222222222
222222222222222222222222222222222222222222222222222222222222222222222222
222222222222222222222222222222222222222222222222222222222222222222222222
222222222222222222222222222222222222222222222222222222222222222222222222
222222222222222222222222222222222222
# atoms in fragment 1/2:    12   600
 fragment masses (1/2) :       62.09     3603.06
CMA distance (Bohr)    :   2.258
constraining FC (au)   :  0.0500

           -------------------------------------------------
          |                 G F N 2 - x T B                 |
           -------------------------------------------------

        Reference                      10.1021/acs.jctc.8b01176
      * Hamiltonian:
        H0-scaling (s, p, d)           1.850000    2.230000    2.230000
        zeta-weighting                 0.500000
      * Dispersion:
        s8                             2.700000
        a1                             0.520000
        a2                             5.000000
        s9                             5.000000
      * Repulsion:
        kExp                           1.500000    1.000000
        rExp                           1.000000
      * Coulomb:
        alpha                          2.000000
        third order                    shell-resolved
        anisotropic                    true
        a3                             3.000000
        a5                             4.000000
        cn-shift                       1.200000
        cn-exp                         4.000000
        max-rad                        5.000000


          ...................................................
          :                      SETUP                      :
          :.................................................:
          :  # basis functions                1224          :
          :  # atomic orbitals                1224          :
          :  # shells                          816          :
          :  # electrons                      1626          :
          :  max. iterations                   250          :
          :  Hamiltonian                  GFN2-xTB          :
          :  restarted?                      false          :
          :  GBSA solvation                  false          :
          :  PC potential                    false          :
          :  electronic temp.          300.0000000     K    :
          :  accuracy                    1.0000000          :
          :  -> integral cutoff          0.2500000E+02      :
          :  -> integral neglect         0.1000000E-07      :
          :  -> SCF convergence          0.1000000E-05 Eh   :
          :  -> wf. convergence          0.1000000E-03 e    :
          :  Broyden damping             0.4000000          :
          ...................................................

 iter      E             dE          RMSdq      gap      omega  full diag
   1  -1039.6621124 -0.103966E+04  0.407E+00    7.79       0.0  T
   2  -1039.7824641 -0.120352E+00  0.241E+00    8.08       1.0  T
   3  -1039.8076459 -0.251817E-01  0.232E-01    7.93       1.0  T
   4  -1039.8119781 -0.433226E-02  0.926E-02    7.91       1.0  T
   5  -1039.8125321 -0.553946E-03  0.303E-02    7.94       1.0  T
   6  -1039.8125648 -0.327760E-04  0.138E-02    7.95       1.0  T
   7  -1039.8125698 -0.498834E-05  0.198E-03    7.95       2.0  T
   8  -1039.8125703 -0.482044E-06  0.648E-04    7.95       6.2  T
   9  -1039.8125703 -0.202390E-07  0.203E-04    7.95      19.9  T

   *** convergence criteria satisfied after 9 iterations ***

         #    Occupation            Energy/Eh            Energy/eV
      -------------------------------------------------------------
         1        2.0000           -0.7393643             -20.1191
       ...           ...                  ...                  ...
       807        2.0000           -0.4616743             -12.5628
       808        2.0000           -0.4616471             -12.5621
       809        2.0000           -0.4591495             -12.4941
       810        2.0000           -0.4587383             -12.4829
       811        2.0000           -0.4581441             -12.4667
       812        2.0000           -0.4519189             -12.2973
       813        2.0000           -0.4478342             -12.1862 (HOMO)
       814                         -0.1557716              -4.2388 (LUMO)
       815                         -0.1413842              -3.8473
       816                         -0.1322589              -3.5989
       817                         -0.1244178              -3.3856
       818                         -0.1178661              -3.2073
       ...                                ...                  ...
      1224                          0.3767096              10.2508
      -------------------------------------------------------------
                  HL-Gap            0.2920626 Eh            7.9474 eV
             Fermi-level           -0.3018029 Eh           -8.2125 eV

 SCC (total)                   0 d,  0 h,  0 min, 17.077 sec
 SCC setup                      ...        0 min,  0.036 sec (  0.209%)
 Dispersion                     ...        0 min,  0.087 sec (  0.510%)
 classical contributions        ...        0 min,  0.021 sec (  0.122%)
 integral evaluation            ...        0 min,  0.715 sec (  4.189%)
 iterations                     ...        0 min,  6.431 sec ( 37.662%)
 molecular gradient             ...        0 min,  9.713 sec ( 56.879%)
 printout                       ...        0 min,  0.073 sec (  0.429%)

         :::::::::::::::::::::::::::::::::::::::::::::::::::::
         ::                     SUMMARY                     ::
         :::::::::::::::::::::::::::::::::::::::::::::::::::::
         :: total energy           -1033.450862021687 Eh    ::
         :: gradient norm              0.000731996927 Eh/a0 ::
         :: HOMO-LUMO gap              7.947426810309 eV    ::
         ::.................................................::
         :: SCC energy             -1039.812570329700 Eh    ::
         :: -> isotropic ES            5.734147120841 Eh    ::
         :: -> anisotropic ES         -1.305147174903 Eh    ::
         :: -> anisotropic XC         -0.097489384298 Eh    ::
         :: -> dispersion             -0.634766495576 Eh    ::
         :: repulsion energy           6.236876047312 Eh    ::
         :: add. restraining           0.000000000000 Eh    ::
         :: total charge               1.000000000000 e     ::
         :::::::::::::::::::::::::::::::::::::::::::::::::::::

      ----------------------------------------------------------- 
     |                       L-ANC optimizer                     |
      ----------------------------------------------------------- 
          low memory version by Sebastian Ehlert

          ...................................................
          :                      SETUP                      :
          :.................................................:
          :   energy convergence        0.5000000E-05 Eh    :
          :   grad. convergence         0.1000000E-02 Eh/a0 :
          :   optimization log               true           :
          :   writing optlog all                1     steps :
          :   Hessian reset                    20     steps :
          :   maximium step len.        1.0000000     a0    :
          :   LBFGS images                     20           :
          ...................................................
 * calculating model hessian...
Using Lindh-Hessian (1995)
 Shifting diagonal of input Hessian by   1.116594880819321E-002
 Lowest  eigenvalues of input Hessian
    0.010000    0.010835    0.011157    0.000000    0.000000    0.000000
    0.000000    0.000000    0.000000    0.011173    0.011195    0.011224
    0.011271    0.011284    0.011307    0.011344    0.011349    0.011370
 Highest eigenvalues
    1.444967    1.445468    1.445747    1.446439    1.448210    1.476550
 

........................................................................
.............................. CYCLE    1 ..............................
........................................................................
   1  -1039.8125653 -0.103981E+04  0.153E-03    7.95       0.0  T
   2  -1039.8125653 -0.412724E-07  0.923E-04    7.95       4.4  T
   3  -1039.8125653 -0.110258E-07  0.121E-04    7.94      33.4  T
     SCC iter.                  ...        0 min,  1.812 sec
     gradient                   ...        0 min,  9.542 sec
 * total energy  : -1033.4508601 Eh     change        0.1958915E-05 Eh
   gradient norm :     0.0006621 Eh/a0  converged?    E=F G=T D=F
   step length   :     0.0259277 a0

........................................................................
.............................. CYCLE    2 ..............................
........................................................................
   1  -1039.8126225 -0.103981E+04  0.959E-04    7.95       0.0  T
   2  -1039.8126226 -0.183181E-07  0.574E-04    7.95       7.0  T
   3  -1039.8126226 -0.448199E-08  0.827E-05    7.95      48.9  T
     SCC iter.                  ...        0 min,  1.841 sec
     gradient                   ...        0 min,  9.521 sec
 * total energy  : -1033.4508638 Eh     change       -0.3767382E-05 Eh
   gradient norm :     0.0001975 Eh/a0  converged?    E=T G=T D=F
   step length   :     0.0171524 a0

   *** GEOMETRY OPTIMIZATION CONVERGED AFTER 2 CYCLES ***

------------------------------------------------------------------------
 total energy gain   :        -0.0000018 Eh       -0.0011 kcal/mol
 total RMSD          :         0.0005473 a0        0.0003 Å
 total power (kW/mol):        -0.0023741 (step)   -0.0002 (real)
------------------------------------------------------------------------

 L-ANCopt (total)              0 d,  0 h,  0 min, 30.804 sec
 setup                          ...        0 min,  0.021 sec (  0.070%)
 model hessian                  ...        0 min,  4.700 sec ( 15.258%)
 ANC generation                 ...        0 min,  1.545 sec (  5.015%)
 coordinate transformation      ...        0 min,  0.013 sec (  0.044%)
 Rational function              ...        0 min,  0.002 sec (  0.007%)
 singlepoint calculation        ...        0 min, 24.501 sec ( 79.540%)
 optimization log               ...        0 min,  0.016 sec (  0.051%)
 hessian update                 ...        0 min,  0.000 sec (  0.000%)

================
 final structure:
================
612
 xtb: 6.5.1 (579679a)
H           -2.42174804059125       -0.46477615612259       -1.05051602562562
C           -1.39211351316262       -0.14121867865360       -1.16629002630567
H           -0.94016681544806       -0.65925504115238       -2.00706992297424
C           -0.58602894038673       -0.45987605442387        0.08041350506211
H            0.47066035321258       -0.30540896581656       -0.09747479930325
H           -0.76744469444125       -1.49805907986937        0.33234670879909
O           -1.37861491107778        1.24653533101668       -1.47137689794453
H           -1.93948202975711        1.70369934194683       -0.80439106560148
N           -0.98519965622242        0.39755874157591        1.20863549972407
H           -0.78605375117660        1.39189751525661        0.96629216098078
H           -0.38486808072641        0.14508243878237        2.01004485305483
H           -2.01145875346628        0.28268573062107        1.40669452663200
O            1.91424674285744        7.06081564305352        2.72179298537823
H            1.35886362040986        6.83935816020825        3.51235910771034
H            2.79529950679177        7.26055134125764        3.04655358786834
O            3.40364100951866        3.20909698958018       -3.83643657532175
H            4.25176640795838        3.66116301975037       -3.93095999576568
H            2.92527793850616        3.63393767369807       -3.10512735449042
O            6.32717202286557        3.34667611984819        0.47715746651373
H            6.76312768223088        2.92154144733971       -0.26854964575708
H            6.36550476353839        2.70942806512336        1.20064578100179
O           -1.92938139372335        2.79580991373895        3.04524515896754
H           -2.39543279505857        2.06222724922930        3.47754707164403
H           -2.20098214110568        2.73040133907690        2.11046088476688
O           -5.68270842658699        2.63656142183849       -0.64122638923531
H           -6.10233697627557        2.61840730892174        0.24690820448141
H           -6.35453624319109        2.93348913643159       -1.28526285071249
O           -0.83519111635192       -3.58063709283242       -3.48389475808429
H           -0.35477322160274       -3.58830029393309       -4.34090267543423
H           -0.97903451576906       -4.52744457623211       -3.28085223089303
O            1.31116549474806       -0.44053596306691        2.26447371164033
H            2.16951660432320       -0.12487032033192        1.93814431909415
H            1.43203987867399       -0.68530056388623        3.19874787599496
O            5.64381566897459        7.22711516316851        1.14729646786964
H            6.51407846211412        6.79956981019435        1.04008339926781
H            5.20911477724371        6.76605785592796        1.88090704106980
O            0.73650240885462       -2.87714178502728        1.53251705040131
H            1.17321574239081       -3.37771829832826        2.24302068536524
H            1.08872590489789       -1.96088573239850        1.62664350927490
O            1.01408963746702       -2.38136312421688       -1.99103756468947
H            1.77320048647897       -2.97482048344177       -2.17802682495890
H            0.24465557546584       -2.83511758008003       -2.39254217476610
O            1.71900163200761        4.16631829669561       -1.95315961530490
H            1.36375817607852        4.94118803750500       -2.44077395742138
H            2.34217910151423        4.48417709355010       -1.29502081428291
O            6.33424115001060        2.40118225657065       -2.23284494939550
H            6.39061192427576        3.37768923585623       -2.23200337325291
H            5.99710413948555        2.16224993344353       -3.10752494128374
O           -3.62302465756549        0.00835594629504        1.44779417090717
H           -3.48992892540098       -0.95488301763973        1.56796387498192
H           -3.96496167688014        0.09751317565253        0.53096430795409
O           -0.37368866059596        1.65432549772481        6.51803626934884
H           -0.24171780770618        1.50330874149746        5.54252549105443
H           -1.33308374970557        1.78011094735312        6.64196457260189
O            0.07462316678775        1.29481796512605        3.97346398207994
H           -0.39278901567068        2.03821058198055        3.55755042519196
H            1.03966243279048        1.44265689780608        3.90429924077155
O            4.76825950735004       -1.52599221555758       -3.12773971185881
H            4.12944888079777       -2.26920198729029       -3.05190364301442
H            4.33767947089327       -0.72047746085215       -2.78951369959857
O           -2.44526481055618       -5.50716440710403        4.76174249734233
H           -2.26872953421433       -4.70853734023424        5.28625837146301
H           -3.41027224811346       -5.48746415808520        4.65200865415986
O            0.58122808054073       -5.76006728618861        1.53931736083793
H            1.11536512949944       -5.38878467123931        2.27089135135666
H            1.21124113188576       -6.20803694004647        0.94638515108237
O            1.83802820135916       -1.40737680874030        4.74200154148450
H            1.58001956233878       -2.33915971100712        4.69852372454119
H            2.79249801632835       -1.34573496378006        4.54527331214798
O           -0.73626453655209       -1.18513249282228        6.31951355759467
H           -0.80850570127395       -0.25074982670308        6.55148608483390
H           -0.29433382597478       -1.23025755815272        5.46292142180865
O            4.64898055660956        3.09766719288845        3.05601795733140
H            5.26863933186039        2.40315120943678        2.77002416201306
H            3.86833195440745        2.61661945355256        3.40220495391256
O           -1.22181609124152        4.08740740986500       -1.58313121632846
H           -2.19427575471155        4.20171679409422       -1.54725023328418
H           -0.83652003860495        4.95643526081869       -1.38420459110313
O           -4.58410947491709        3.51579027820863        2.42863661404248
H           -3.82737928240230        4.10519931409159        2.30178717519116
H           -4.66891798623548        3.34474398245501        3.37888831618103
O           -2.57624588576953       -2.37510831638799        1.15506884763928
H           -2.88219467315991       -2.56999486996030        0.26027372976213
H           -2.40874543615601       -3.23585873420075        1.57410373957011
O            2.70848523340590       -0.89300366859093       -0.39810646210322
H            2.49224020838979       -0.02244068571548       -0.75789414470049
H            2.11897229256939       -1.53485076233378       -0.81237190135474
O            8.57539828364414        1.46936642320220       -1.03172651633222
H            9.15352297886187        0.88184707238520       -1.55369100815334
H            7.78965080839624        1.63138254452199       -1.59086055950618
O           -2.82409606531225        2.49199104905099        0.45916424616730
H           -3.73741982010161        2.23405283154753        0.60472494609439
H           -2.82112972133780        3.47272089809023        0.43854180265771
O            1.41006233099733        1.45152035643427       -1.33861276846706
H            0.44444172316490        1.42788460835761       -1.40537560467458
H            1.66537192808333        2.37869890574191       -1.38241667491837
O            1.46550450580019       -3.20512108433763        7.25164325248928
H            0.91048466580186       -3.38228125430362        6.46339788723773
H            1.09855421260458       -2.40632270687868        7.63495357411284
O           -1.87234036226578       -4.69614802954684        2.26400797436360
H           -2.00925340572742       -5.02121269519880        3.17221442258445
H           -1.02269265038801       -5.03141978554669        1.95365119535443
O            0.83839756227525       -0.26639322509838       -7.79511370516393
H            0.07168203011806       -0.85043813579712       -7.72277526016085
H            0.47961922631600        0.62531388584009       -7.61853299812034
O            4.43169797477898        6.31583107058838       -1.02405114182848
H            3.75825743780418        5.86177855935057       -0.48856690176910
H            4.91201319020300        6.85490356155396       -0.35817687216917
O            0.00813136492620        4.44341655237788       -5.56568594577545
H           -0.13593617480839        3.87779672066826       -6.34102232140703
H            0.08334976527123        3.79971670342575       -4.81672372311044
O            5.02830601562612       -4.35572907206522       -6.37529571667321
H            4.84602208966875       -3.54474671761729       -6.86446920511041
H            5.90535132461317       -4.24762271558788       -5.98223370573527
O           -0.94586711366765       -4.07901889417251       -0.53148184373569
H           -0.46775869715412       -3.70056102233747        0.21714113203816
H           -0.27949390659049       -4.56296042049131       -1.04529907209424
O           -9.87100747094451       -2.20813352770486        2.84027260566697
H          -10.70523382626929       -2.59310704079401        2.51200762263963
H           -9.20996721650805       -2.47331537361931        2.17076106256894
O           -8.03339309395410       -2.92747293567663        1.01180420806285
H           -7.63942504957181       -3.82580261034363        0.85925659284389
H           -7.72973513437614       -2.40369876867797        0.23557509372386
O           -1.01636720403291       -1.87896865200940        3.40776472999433
H           -0.55246473583067       -2.22863167504020        2.62793302267342
H           -1.95455075485071       -2.05043648422813        3.24654521399551
O           -0.04379544830252        2.74296931809131       -3.56947609651993
H            0.85339454774883        2.62526211551420       -3.23939225785921
H           -0.52761085942135        3.21021673870547       -2.85148661309332
O           -1.66180422332416        6.72428760002719       -2.74134813895513
H           -2.17009036033390        6.88960985410552       -1.93090368251037
H           -2.15274071531241        6.08267383626198       -3.27173361324439
O           -6.47434482590050       -1.93477500288535        3.06300922762236
H           -6.91684986711996       -2.30468868616527        2.27968034512705
H           -7.04609983691844       -2.11317716890091        3.83137393019216
O            6.14930979915208        4.21851788626440        4.97915347272664
H            6.26617823249540        3.62924504298931        5.72863495685786
H            5.60410590191112        3.72259961980313        4.33183307931834
O           -3.80672231976529       -5.65044376364095       -2.81334881795776
H           -4.60232862077298       -6.17545015303139       -2.89458060762899
H           -3.63742835908198       -5.56009749032165       -1.84363879561141
O            2.28620957676570        2.76739223545305        1.39900124491741
H            2.14557444688956        3.08646842324202        2.30975950683457
H            1.39398959308869        2.64841912457609        0.99993861269707
O            3.80883498047614        0.87803658262521       -2.49216645120961
H            3.79373283993270        1.62005121709492       -1.85489107374316
H            4.18508272872607        1.25568002416132       -3.30797456075230
O            0.25888804306241       -6.42820288537994        4.48483714484472
H            0.71973132482029       -7.05794069450500        3.89747425959849
H           -0.66925727857197       -6.67289420325378        4.53997114640809
O           -5.00725769225503       -4.78650208840308        4.24319172719222
H           -5.89799177163365       -5.10392403260199        4.01678603199316
H           -5.14654828259642       -4.05237931883196        4.87042489125491
O            5.30445098627250       -4.28377807881934       -1.29264664399857
H            4.99814916741103       -5.10302087674615       -0.85641227293835
H            5.94832996466025       -4.57001770418223       -1.96615779426841
O            2.80102565640888        4.85488808647057       -6.09551558473627
H            3.12582737478041        5.29772458884421       -5.29991257097260
H            1.84972021033379        4.72732969720231       -5.97535108771624
O            3.89805948520353        3.01231834625321       -0.77889593487535
H            3.37735759468996        2.75810084429334       -0.00784414137739
H            4.77496319625761        3.24440418622908       -0.43699605888139
O            2.19474656587627       -1.67476215547567       -5.89512290796052
H            2.13973065761716       -1.24821434338085       -5.01888927189258
H            1.73679982560232       -1.09621219678380       -6.54171151366296
O           -2.64394225767936       -1.62745629936933       -3.82321339913277
H           -2.04569185561352       -2.39923774110594       -3.83542026604431
H           -2.07517745264265       -0.85287981308981       -3.95148013529904
O            0.31616768405558       -3.56774162948512       -5.87388001418224
H           -0.33681212132696       -2.95952032113331       -6.26690375054649
H            1.14690866420829       -3.05032500901568       -5.86735078943849
O            1.88990803070445        4.27498044379570        3.55125076994328
H            2.66037061308899        4.85421516490473        3.61825292299657
H            1.57749678197567        4.09696577281556        4.46180106994180
O           -0.27048575948135        2.01146242166605       -6.78443177757346
H            0.45446588682608        1.86114426240803       -6.14810972714019
H           -1.08498950867934        1.63723613875845       -6.41142817653442
O            3.78631647558669        0.52270797063761        1.74327499892828
H            4.44251620579054        0.52333629941288        1.02047805355698
H            3.31517162303867        1.36604077296088        1.66589962129129
O           -2.01120786155904        5.39450605465253        4.04466923856216
H           -1.95513342530404        4.47224985036128        3.73600386139611
H           -2.86489349980114        5.51085510011607        4.48979675292892
O            3.35551076052582        2.45933405506060        6.55221220588982
H            4.32033511727489        2.33452315787448        6.55796257585216
H            2.96009790565459        1.64957251671408        6.92635027809209
O            1.78138891271704       -0.45287931535039       -3.53268535173672
H            2.39828854722244        0.09998167054530       -2.99956291497298
H            1.49097924212875       -1.18915195713597       -2.92750524071548
O           -4.01325609138346       -1.65133476855391       -6.37672690568071
H           -4.05161909451166       -2.34553981775837       -5.67311026307145
H           -4.31158882926658       -2.07626424504573       -7.18169451724535
O           -0.66945669066514        0.20715811943090       -4.35137483646578
H            0.19413352989404       -0.12707579795236       -4.04621315306504
H           -0.64682638290767        1.15088151938756       -4.11486769091089
O           -0.85042270662365       -7.23987889572427       -0.79366656488032
H           -0.96462290674312       -7.66499899356898        0.06373436533710
H           -0.10436225829358       -6.62786095302717       -0.71827280911945
O            8.70838026356005       -6.25366491022401        2.62277912835731
H            8.23909696712217       -6.60652496278619        1.84347337403548
H            9.37433615660789       -5.64844733402010        2.27831584653939
O            2.22683376991717       -7.44549750932857        0.23022646717877
H            3.15020997159597       -7.17509225622112        0.04737131652755
H            1.90599311020911       -7.82001194650877       -0.59770263171242
O           -5.60146408296247        0.60542677127144        3.07014599806701
H           -4.79805131049139        0.50880903763066        2.51059049832847
H           -6.04540652399760       -0.26238628476122        2.99130794281348
O            8.28240082600830        4.93492090956409        3.34422761920070
H            7.57151514874868        4.74874422320043        3.98070849918003
H            8.67579479138310        4.08088560986441        3.10341974359678
O            8.69031296838258        3.64821055952661       -3.54274417294139
H            7.83967310380670        4.04048626203724       -3.79259346785984
H            8.87562608173373        3.95969768883763       -2.63612740992741
O            9.39289042976766        4.05087683556101       -0.90997657661374
H            9.09632762701248        3.13461430198193       -0.74495133962766
H            8.99122903600349        4.61901669545965       -0.23089831840219
O           -4.33054926197953        0.39802451713877       -1.08718683248080
H           -4.72626205098179       -0.18269790693471       -1.75911036388104
H           -4.87289437133215        1.20249684313277       -1.04795101446003
O            4.75043881824488        3.10068843991395       -6.69868374081770
H            4.43133445014908        2.43949836751539       -7.32732490027758
H            3.99740508354250        3.71092189871159       -6.54733425619485
O           -2.56416095550430        0.36339934986213        4.05701118955013
H           -1.66546523797089        0.01520940172247        3.99129373365256
H           -3.14777603487947       -0.40679167088794        3.87561319947184
O           -9.80723321382256       -0.22140434556054       -0.38433119664269
H           -8.87975553184831       -0.19969839076464       -0.07456596034028
H          -10.09103218735191        0.71037810313457       -0.40592025110728
O           -8.03042808195908        1.89203156722073       -5.77780786534579
H           -7.32744175737248        1.23479490717872       -5.89441153077100
H           -8.62340940055238        1.53132685185199       -5.09241724865879
O            7.19180001165863       -6.47824704169587        0.38320901959919
H            7.82356370332117       -6.23352388292611       -0.31559989143611
H            6.92427381103057       -5.61092426294509        0.75864712031294
O            6.75205782857053       -4.02684040974937        1.37565263603338
H            7.33947588801301       -3.83336966981608        2.11943293856245
H            7.06016297920866       -3.48054903717027        0.62989503288787
O           -4.77978842077627        3.32330956898509        5.16485724625502
H           -4.69858513108667        4.29014335548684        5.21584517091868
H           -5.70888278692427        3.12894361428640        5.36071803755970
O           -0.21477830130661        5.07227971147445        2.04816151169121
H            0.54702730331257        4.95886985401441        2.64291670424395
H            0.03948300497214        5.63074041376685        1.29268455584184
O           -7.33534903468969        4.75246192043190        3.20541362304557
H           -8.30780361579064        4.85633791483939        2.99280762078665
H           -6.91147879530683        5.60300102827853        3.07434170522620
O           -2.73352586846879        5.01870971813050        1.10785600098955
H           -1.90599229228099        5.15597177798987        1.58677355451644
H           -2.84157987744861        5.77332287707227        0.49959600604797
O            0.15549229267829        8.44105530685230        1.21719877358965
H            0.34725809557341        9.37766418858708        1.22662674412465
H            0.83369964934393        8.00327990832781        1.77303381866612
O            2.13841272777732       -4.43088662151167        3.24177266768424
H            2.29264379838254       -4.73106166010220        4.15128372696058
H            2.97805086403113       -4.53729806000937        2.76160383978091
O            6.09526284688129       -1.33476350703606        2.55647851359410
H            6.86923315454432       -1.88068230878649        2.72877074456790
H            5.77705415528475       -1.55757221085551        1.66511941813077
O           -1.24762511250633       -1.46234031943041       -6.51198761844921
H           -1.04781259877646       -0.82222926953713       -5.80549394510461
H           -2.20886332800776       -1.57846030317888       -6.48877208205346
O           -8.65265448047079        0.27526083262732        2.78193235986124
H           -9.16977128573761       -0.54575764850051        2.78488774741307
H           -8.31868660116520        0.40587359827592        3.69335060258908
O            5.33691719983499        1.42074524219674       -4.69136266596898
H            5.10853702513206        2.03505734850059       -5.41891267791322
H            5.49247204582629        0.53867845948568       -5.07981496415074
O           -4.35349501622872        3.27932277601368       -6.18380795835068
H           -3.74222025070590        3.88922823386576       -5.74145396165255
H           -5.20977113934762        3.37552903079601       -5.74502708630444
O            6.81391923389229       -2.29053510074035        5.45935715374840
H            6.62030450959074       -2.38817657750077        6.39225881466289
H            6.00920830488288       -2.62074749939320        4.98082243995000
O            4.15932660481526       -3.18470456633581        6.89926582061297
H            4.23204915121948       -3.39227656625098        5.95171208557014
H            3.20546142286614       -3.18685263901320        7.10434135944864
O            0.83955053813292       -6.19070739856752       -5.10318269241849
H            0.12452898771638       -6.29345134284431       -4.45161018608864
H            0.60902887591083       -5.38613767685394       -5.59041240118211
O            5.96576665693970        4.32140332387050       -4.46785379603382
H            5.62392152589931        5.20748259841736       -4.32017961980410
H            5.79354740366701        4.09140708592017       -5.38932354374014
O            7.03581881593904       -5.40899992312284       -3.03893264415867
H            7.22250670422323       -4.93455196373919       -3.86838140639411
H            7.85781594900223       -5.42412160157644       -2.53081227570616
O            4.31847462402824       -0.46635938707474        4.41809507317296
H            5.01170665697464       -0.73447893998436        3.78790358025810
H            4.66524555870263       -0.48908257898717        5.32699894560874
O            2.69627793446540       -3.92650860074397       -0.05988930478789
H            3.21652523897345       -4.48399241660216        0.53441020647278
H            1.96231094788559       -3.54193942166516        0.45420902662129
O            3.48888434665627       -2.22505221497729        2.26228776373504
H            3.70943176425380       -2.59089376708139        1.39817377050840
H            3.68470977861015       -1.27908108491030        2.19453501153329
O           10.50919830051091       -1.55510394527880       -0.19905309424942
H           10.59059511484610       -1.26047818006820       -1.11937491554599
H           10.61340612785653       -0.72261776863852        0.31014248024617
O           -5.57665591759223       -2.69870287031772        5.94651082517628
H           -6.53477195599963       -2.78454068008995        5.96168653167586
H           -5.40828208387946       -1.74246235876564        5.82957078893955
O           -2.70616527893767       -3.01078619720579        5.89842160872284
H           -3.42431741373530       -2.92853320716879        6.52871260976640
H           -2.01024880277753       -2.36750934450872        6.13835136305129
O          -10.37375206435778        3.14371365442285       -2.57553462611120
H           -9.47374220806801        3.48946126792823       -2.46850446155235
H          -10.24335730064837        2.33421950943545       -3.10176200518002
O           -3.24987014490636       -2.88032751187497       -1.45939196690064
H           -2.43502957403594       -3.40160824040736       -1.38323653544207
H           -3.15002556853758       -2.34137272202165       -2.26079053822284
O            0.39955498534544        6.40889771503826        4.80564538776437
H           -0.48051098794506        6.10645818705399        4.51190499505938
H            0.68573497648732        5.74790577782743        5.44743538000750
O           -9.85843308054136        4.80442321909740        2.66781015777060
H           -9.96538723809272        5.06323854860296        1.73706985593519
H          -10.14640173379447        3.86915707645769        2.68750484943469
O           -5.23409781109066       -1.32687176828972       -2.92151996840382
H           -6.04274665965413       -1.50040951309353       -3.42392540209682
H           -4.47998133539201       -1.49932868206639       -3.49759881561033
O           -8.85440649976317        2.44398112848328       -0.10441457981363
H           -8.19079598605322        2.37787360675660        0.60946516367108
H           -8.38257215414473        2.53519633232280       -0.94021316781009
O           -3.06845558964392        1.56798806563458        6.33463237328489
H           -2.85418180063906        1.09008168616451        5.49848950971183
H           -3.59483985675100        2.33338021722182        6.04889396401812
O            6.69100272033520       -5.42188154395778        4.13103875509658
H            7.43933945031163       -5.72858320661565        3.56347835630615
H            7.03168433797506       -5.40631460464011        5.02522643361249
O            5.66864770523588        0.70845638312282       -0.13749829216910
H            5.67929607317386        1.20290026582398       -0.96816433598342
H            5.79535462277291       -0.22142882536766       -0.37363263266533
O           -7.52680359893141       -5.29998130695887        3.29191581027482
H           -8.23722751631740       -4.66490177561187        3.39355480211449
H           -7.48459702595386       -5.54265379761703        2.35961863168954
O            2.50310012382225        5.36169779372520        0.60269324134745
H            2.52995149805366        4.44059802941907        0.93061310278752
H            2.44458860403283        5.93901183527313        1.38150609658476
O           -4.40907965075748       -3.70455154006534       -4.75362401102150
H           -3.98502742474626       -4.24166729412794       -4.06662818840654
H           -5.32930621347031       -3.99210157179097       -4.76396212183334
O          -11.43399112081224        2.01538051448074       -0.37507478447000
H          -11.11554379064975        2.47857268489345       -1.18189078009570
H          -12.30474086616305        1.66173699724142       -0.55709220634078
O           -7.88394184898767        0.56429617843235        5.33958297331696
H           -6.95472684150051        0.33454312952784        5.54170052040603
H           -7.91262605359390        1.53172697151453        5.41166015419890
O           -8.28501925267754       -2.19471166379289        5.06583063466343
H           -8.33101034413006       -1.28058569381289        5.37929175264314
H           -9.02090967854197       -2.30052656799068        4.44020648796403
O           -5.75249688944669       -4.01493076803636       -1.65869467596123
H           -4.82225536979185       -3.72646582927604       -1.60810009186277
H           -6.29559728499213       -3.20705025486429       -1.53872444235466
O           -6.98467118542141       -4.46485676638659       -3.93847179287709
H           -7.77313929104893       -4.92096848852723       -3.60908014646090
H           -6.44763874139134       -4.34409556314839       -3.11618938706442
O           10.99699405227674        2.12637907857769       -3.71139470150299
H           10.21997914956903        2.71328895663587       -3.72718114737630
H           11.63053006442647        2.49122950217736       -4.32841309113484
O            1.11388608668686       -5.41252562707739       -1.58148746331810
H            1.53801993565574       -6.12972558571426       -2.07337661637449
H            1.81305443999984       -4.90642554478560       -1.11752243480742
O           -5.38082843951219       -1.86496925830513        0.38205506468708
H           -5.12708395235028       -2.64993171273179        0.89921241533373
H           -4.88873420518578       -1.89833497849829       -0.44189858255692
O           10.86203152391277        0.86391037283780        0.95175206150481
H           11.31516933578739        1.37225600535119        0.25024454777903
H           10.21575235012747        1.48764318024713        1.32004314973968
O           -3.25553138338733       -5.46739817120951       -0.19940260905810
H           -3.28411278152222       -6.27436923335159        0.34879824868529
H           -2.33410257858745       -5.14497216065412       -0.19014568524994
O           -6.06087670988494        0.00307617461796       -5.53548094090929
H           -5.32429786364178       -0.51838123991430       -5.89054566665878
H           -6.68399000489993       -0.64431462604172       -5.16138662196990
O            0.10902882553692        6.20359397446459       -0.39208066133612
H            1.06033926925762        6.02733911324314       -0.32318941512975
H           -0.02952566260510        7.14130366875903       -0.22233346087055
O            5.15383317515247       -1.92555894052510        0.00231557479149
H            4.27306162962121       -1.56193094568015       -0.22134846711194
H            5.24092711760759       -2.75909618607263       -0.48746551342813
O           -0.17236941174798        2.91172273726177        0.58209614414893
H           -0.31697876796438        3.64450433795681        1.22111432056628
H           -0.48844476172376        3.26013364959429       -0.27752938094824
O            3.43682606809494        0.82347339372814       -7.62610138472749
H            2.73858468310442        0.56618839507458       -8.23433222780013
H            2.96084180642804        1.07129525620458       -6.80391680161904
O           -4.95501316674924        5.51114255388109       -3.64802825651820
H           -5.62772407328793        4.95959205247029       -4.07596001097564
H           -4.14084219787977        5.41007897545845       -4.16171121519262
O          -10.48767324021119        2.19739602796398        2.26357521708987
H          -10.72685568174966        2.20995466256634        1.32135576664299
H           -9.70261379997464        1.61849323717763        2.34172364452119
O           11.72032498100941        2.51880319283856       -1.00531324520416
H           11.11022530928193        3.26226731944283       -0.88238380216830
H           11.60341229094690        2.24853274031394       -1.92657387461436
O           -4.98992011779867        7.02047974565240        2.60053546206477
H           -5.18120123949495        6.43679263529223        1.83420026857117
H           -4.10502996712353        7.38087681806302        2.43701958191320
O           10.09222722584878       -4.00618496899305        1.29761562943868
H           10.51062615456234       -3.27060575463642        0.83238585473390
H            9.58137168426729       -3.60173171193995        2.01135798141268
O            1.90748951078516       -8.00237583431594        2.93524476498571
H            2.04006642422846       -7.91708474365775        1.97600231332745
H            2.76987631100796       -7.82036825068243        3.32669722542299
O            9.55786949668458       -0.48258736245238        3.03071348995967
H            8.99214715559554       -0.33563355977988        2.21951114154957
H           10.45022933806776       -0.28588923643530        2.73319438972205
O           -1.23864176451616       -6.23100946668337       -3.29115179074186
H           -2.20765258975937       -6.14922247402232       -3.31839729432347
H           -1.05316646549597       -6.69474163439339       -2.45884459482940
O            7.11608159025591       -0.78172737793296       -2.14005689245717
H            6.28016163710441       -1.13699465846748       -2.48749891560250
H            7.48848222018968       -0.20937093991460       -2.83112270842507
O           -5.26225452479675       -0.01125901657200        5.63399304694138
H           -4.58790470975787        0.48765432201611        6.11915147143811
H           -5.21695547425205        0.28860729051409        4.69497288143431
O            8.95604082658186       -5.05068828460866       -1.12050952921859
H            8.56616811702079       -4.15929909530135       -0.97120992932855
H            9.70134105772005       -5.08089274484517       -0.51216523009648
O            7.66823131364875       -4.07339266401140       -5.31739810665226
H            8.28895243307030       -4.50802923571172       -5.90195326381326
H            8.06283632968037       -3.20983897816294       -5.06126488146417
O            4.65954904895311       -0.61795758461925        7.10772849321625
H            4.57488746458058       -1.60177262416784        7.13427510399844
H            3.77265294229386       -0.30876275006993        7.33216586399399
O            8.40194587952428       -2.86054945419113        3.28029834886367
H            8.93248011536104       -2.03491540012773        3.25584162918835
H            8.03429436209028       -2.91225081515070        4.17437190519759
O           -3.46926679462207       -7.30145199885087        1.75302323041366
H           -2.57710676235616       -7.65975273085126        1.88237699413045
H           -3.70655050420235       -6.85934635175055        2.57005453300832
O          -12.06424112714926        0.15044228855943        3.01690166422532
H          -11.45011462440766       -0.41915721067681        3.48459629955497
H          -11.59770223850878        0.99810734557903        2.85781175483004
O           -7.23661712218234        0.05804897321620        0.49821458421234
H           -6.53074625597931       -0.61416943276291        0.53051506864609
H           -7.57288568927877        0.19440550869457        1.39884344331619
O           -9.95530250090395       -1.69615596072128       -2.59832246399507
H          -10.40855444040762       -2.48776345863848       -2.28523970691817
H           -9.97035662691310       -1.08778728339429       -1.81942775122832
O            3.63104617412132        6.13039369846364       -3.67088465522844
H            4.01049523064437        6.27559508358128       -2.79059279860493
H            2.71242048167538        6.42086342607264       -3.59847438679496
O            3.37161626692253       -5.47773380717577       -4.58431478115624
H            2.48429847871156       -5.77089432455353       -4.87722057798511
H            3.86663350564268       -5.12231275604898       -5.34890295261943
O           -9.44506133955317        0.85420232721731       -3.68338912536871
H           -9.90870193219237        0.01249832123563       -3.64539889304445
H           -8.67602887133888        0.75843942501661       -3.07243932014385
O           -7.52767659394978        3.29725238167207        5.42578261312671
H           -8.11389462979421        3.77906480324918        6.00845729438351
H           -7.48244365708721        3.81376334946731        4.58800362887669
O           -4.75410291197394       -4.16809907560199        1.61865911816561
H           -4.60181799153558       -4.35331722490320        2.56016031050511
H           -4.06687356760210       -4.60877093802221        1.07837434038032
O            9.08582769540588        2.40876644772284        2.49942492280905
H            8.17504446224791        2.04113484064029        2.42786911707252
H            9.47600388705058        2.02104597066430        3.28416939828941
O           -2.54648826276703        4.65623416597185       -4.52931619963178
H           -1.68324160896292        4.68965025266031       -4.97901194058412
H           -2.57966520451654        3.80552695256143       -4.03427093920145
O          -12.29555022001210       -0.90105175845964        0.55536555236381
H          -11.40726851488093       -0.70027577710289        0.20980751646954
H          -12.35553362586726       -0.43309905643467        1.41499684712640
O           -7.32877624042568        0.55332392450089       -2.11932129055957
H           -6.63270967842238        1.06061286627398       -2.59135882796762
H           -7.22309383626296        0.69430509739214       -1.16511213804927
O           -2.29162721125451        7.60359968951488        2.30605394125633
H           -1.44850055220470        7.93505491592361        1.96461060008968
H           -2.07068793533931        6.86096931729656        2.89321872499772
O            4.67730344666145       -6.77013010353234       -0.55021074656359
H            4.73457087347619       -7.03259617234513       -1.49558844420222
H            5.55251613478676       -6.94013602528332       -0.15786733266211
O            0.83233920047385        6.17577026566356       -3.45261873714270
H           -0.01022358992562        6.51800046690366       -3.08700870683485
H            0.59985595397035        5.82293939245376       -4.31994862083747
O           -0.83129525144509       -7.96401167227042        1.98756420422860
H           -0.32264739074895       -7.12213226572462        1.91694708043319
H           -0.20977744019938       -8.62570785601346        2.29364116003610
O          -11.97940139659843       -3.27867702146665        1.50999877799930
H          -12.80778465407823       -3.63175688506997        1.83097785585739
H          -12.19201303174327       -2.38914540623132        1.09145077161226
O            2.52752195286535       -5.57729920626865        5.70062703787528
H            1.67856402837477       -6.01538546112320        5.52073169390546
H            2.40408598392679       -5.05391195211710        6.49738458825138
O            4.31260398534358       -6.79128623301518        3.91163291229844
H            5.23121040493841       -6.52919762892117        4.08470086586623
H            3.78611433539361       -6.39942404972741        4.62593272549239
O            3.20931853505041       -3.58199609043796       -2.78406825950672
H            3.21539027145088       -4.26939590817836       -3.48363869340918
H            3.83351033811514       -3.88476702125353       -2.09247794377109
O            8.64942384245499       -1.63680076871215       -4.72870852975104
H            7.73234066662166       -1.29711183041236       -4.87201365053602
H            9.18924524206644       -1.17160012189878       -5.36855223754309
O           -7.56662239357687        5.86484609893640       -0.96599547043056
H           -8.45235971516814        5.73238193544144       -0.58229642798634
H           -6.92480085628601        5.62665117657600       -0.26349092752029
O           -7.58745475289427        3.60196585655236       -2.29424819049856
H           -7.54521001091612        4.52321726617826       -1.93793348335194
H           -7.23636661973521        3.61594432079809       -3.19900400158676
O            6.61020303509901        1.40888382065124        2.48003537764298
H            6.73758718891606        0.91630519109471        3.31683271358338
H            6.61705537307090        0.72037027342429        1.78467672066606
O            7.49164347112777        0.21012948276946        4.70156928970006
H            7.18253788842619       -0.67084402275985        4.99520707948150
H            8.34889555518905        0.04555424690742        4.27943438698249
O           -6.86083202410349       -5.20117627853025        0.48130683243995
H           -6.56239623278466       -4.97656791406458       -0.42284173490642
H           -6.05649158567972       -4.96650316567779        1.00557217208705
O            1.11480518872886        3.93618775269426        6.09015958796230
H            1.96693113403935        3.65476768298508        6.45411963832981
H            0.49062298869454        3.22434095754138        6.32840470981604
O           -6.88257410873628        4.05199155444489       -4.96756513964982
H           -7.36004509491310        4.74257180733469       -5.42825613443933
H           -7.31228020744449        3.19308664557484       -5.26797124737338
O           -6.93245024649371        2.52987290846810        1.71148130392976
H           -6.46523012770660        1.86307431851201        2.25639387540470
H           -6.99650414649117        3.33451838120977        2.25245844110873
O          -10.21684163898017       -3.62064173226406       -0.59373694357048
H           -9.48681265559355       -3.30929783073578       -0.02975673068676
H          -10.96930847119478       -3.71359703616859        0.00631005645812
O            4.29078671696861       -5.09192990607353        1.79361146864072
H            4.40424443814917       -5.88773999277872        2.33872801891580
H            5.16497332487474       -4.69416226264236        1.64740821298556
O            6.63999216420690        5.04832611055205       -1.89824318054902
H            7.30529093150049        5.43240372558567       -1.32276623260007
H            5.79297663042201        5.45324245127584       -1.63103035419264
O            4.90471191040612       -7.14284666526937       -3.17797882809157
H            5.79162614063200       -6.75271821627501       -3.21204373496687
H            4.36304978587270       -6.53950599459989       -3.73317884680306
O           -9.90604859507965        4.86674874993056       -0.05358643158004
H           -9.58306682612644        3.92653692456282       -0.04104022474338
H          -10.66032852191512        4.87243242014256       -0.64351592356872
O            8.03292460342658        1.02040158140134       -4.05589281106812
H            7.17218531078803        1.14432097857502       -4.47760506668822
H            8.32925345793335        1.91983789869411       -3.83512783940236
O            1.96424429102500        0.16304615732702        6.99910431038271
H            1.12651318587551        0.64001756648841        7.07719452649220
H            1.87075746959865       -0.40165174057549        6.20424473098840
O            8.02968541132581       -0.22194875992102        0.94256032871324
H            7.83204447328772       -1.05262058786328        0.49050899903481
H            8.25410317682401        0.42756364012404        0.24096786770267
O            4.75800362322464       -3.39856358501405        4.25113346326247
H            5.26799898105981       -4.15170823442859        3.92753539265763
H            4.31745554597429       -2.95701992227131        3.47965697167606
O           -5.58513729623972        1.89368424979291       -3.57575126978483
H           -5.66239840935889        1.28410117555866       -4.32692526928342
H           -4.63122193083204        2.02539028194735       -3.42213631015708
O            7.78594220355361        5.54667641467948        0.80168481219799
H            8.09267210391233        5.50758582162754        1.73110800509417
H            7.16046462011535        4.79425283011448        0.72611633112331
O           -5.42204514350333        7.49237601193803       -1.76190792297270
H           -5.25178417993636        6.97297233311697       -2.56097586643822
H           -6.26901107444372        7.16655824728160       -1.42879419002781
O           -4.52220486053672        6.00422510505699        4.95222207471291
H           -4.76054056222052        6.36295521817655        4.05028486646870
H           -4.58493389303033        6.73998854208397        5.55922821240907
O           -5.56276659071874        5.25836103562621        0.66689802377686
H           -5.41447456393128        4.50918190837379        1.27962760243480
H           -4.86382793516357        5.17621041560723       -0.00786401085393
O            2.05370639334776        1.58701773340944       -5.40921443204734
H            1.97259926025662        0.86366737577797       -4.77553336090986
H            2.57743295218917        2.28050197709137       -4.95123134999319
O            2.71320115742113        1.64021892119993        4.11414711850304
H            3.24662983501363        0.81832642840810        4.07492249789726
H            2.85821562778388        2.00025935554411        5.01360576979506
O           -3.13804350623773        7.16309615134734       -0.45294279971429
H           -4.01380679391138        7.33583754428540       -0.87185804420660
H           -3.00668992907505        7.81936047264703        0.23613523180660
O           -2.81956532144895        1.11761818632377       -5.90632478024617
H           -3.25609458690740        0.28385873863568       -6.10033441670220
H           -3.42983523284335        1.83599011776396       -6.18115099913988
O           10.07372718457661       -0.27546370129889       -2.58943519511906
H           10.49300122516558        0.44811001348174       -3.07483427673465
H            9.50392702412376       -0.73550849397555       -3.22559138955673
O            4.48065819083621       -1.70603648214067       -7.23793480646431
H            4.34657887149680       -0.83346012496539       -7.64287739219045
H            3.65945871241887       -1.83359624525008       -6.71298427768587
O           -2.91833919061173        2.22135321819967       -3.46396201999542
H           -2.77811602828606        1.70223623476020       -4.27921353061120
H           -2.38863052656603        1.80551289593950       -2.75822390452632
O           -3.88541822408278        4.46098914829679       -1.40725559820055
H           -4.40697362007466        3.65751877880115       -1.22659727455226
H           -4.27778969609740        4.86567899007282       -2.20134316712964
O            4.38257646135532        5.74254002430889        3.22125389623533
H            4.97768259151426        5.82020304811377        3.97372714929093
H            4.53061751429196        4.83264311676571        2.89569046935992
O            8.08271242903283       -2.58395224239990       -0.53020626717289
H            9.00435167807919       -2.26357343126719       -0.39587741412051
H            7.70737989029488       -2.01341414523733       -1.24145674840002
O           -7.52759200298638       -2.05599802824202       -1.41887866399670
H           -7.24552609162614       -1.16360882834471       -1.69140859460811
H           -8.37327569008009       -2.20453854490462       -1.86820605524178
O           -7.58030222726746       -1.90787580585405       -4.33307388720328
H           -8.44541010772853       -1.76394891764921       -3.93250196384831
H           -7.41603680308587       -2.87937014892043       -4.29133415675556
O           -8.76293605690824       -5.42313630065277       -2.07170900443051
H           -9.37651121245533       -4.81738617390305       -1.62165854020579
H           -8.32502099858493       -5.91316033469391       -1.37301972529364
O            2.13127546335384       -7.70879826221635       -2.68599741750848
H            1.68995536886445       -7.68947463115807       -3.53971470248357
H            3.07682655099755       -7.77427946073252       -2.86507904360882
O           -3.78870640904117       -1.93660429440325        3.63602648121776
H           -3.59505367234310       -2.44078620164736        4.44395918261898
H           -4.72322991884640       -2.07110561606902        3.40838142193316
O            6.12594214876074       -1.04202707512692       -5.30579667509277
H            5.63619594479374       -1.36849987463312       -6.09305425346512
H            5.61415945220000       -1.35649428556844       -4.52562888180454
O            5.99194018293485        1.70930650457115        6.45691332716902
H            5.71596134588712        0.93201902337146        6.96321842340160
H            6.59704719987625        1.35107993993181        5.78845054036123
O            0.19323841316082       -3.67757345562317        4.96223873922106
H            0.08077896692927       -4.59855546034137        4.69424629536990
H           -0.42038976407800       -3.12343584468995        4.44057191120942
 
 Bond Distances (Angstroems)
 ---------------------------
H1-C2=1.0855         C2-H1=1.0855         C2-H3=1.0861         C2-C4=1.5184         C2-O7=1.4210         H3-C2=1.0861         
C4-C2=1.5184         C4-H5=1.0826         C4-H6=1.0836         C4-N9=1.4722         H5-C4=1.0826         H6-C4=1.0836         
O7-C2=1.4210         O7-H8=0.9841         H8-O7=0.9841         N9-C4=1.4722         N9-H10=1.0426        N9-H11=1.0327        
N9-H12=1.0515        H10-N9=1.0426        H11-N9=1.0327        H12-N9=1.0515        O13-H14=0.9912       O13-H15=0.9600       
H14-O13=0.9912       H15-O13=0.9600       O16-H17=0.9657       O16-H18=0.9717       H17-O16=0.9657       H18-O16=0.9717       
O19-H20=0.9627       O19-H21=0.9649       H20-O19=0.9627       H21-O19=0.9649       O22-H23=0.9707       O22-H24=0.9756       
H23-O22=0.9707       H24-O22=0.9756       O25-H26=0.9824       O25-H27=0.9769       H26-O25=0.9824       H27-O25=0.9769       
O28-H29=0.9825       O28-H30=0.9790       H29-O28=0.9825       H30-O28=0.9790       O31-H32=0.9710       O31-H33=0.9733       
H32-O31=0.9710       H33-O31=0.9733       O34-H35=0.9755       O34-H36=0.9694       H35-O34=0.9755       H36-O34=0.9694       
O37-H38=0.9727       O37-H39=0.9861       H38-O37=0.9727       H39-O37=0.9861       O40-H41=0.9815       O40-H42=0.9794       
H41-O40=0.9815       H42-O40=0.9794       O43-H44=0.9820       O43-H45=0.9605       H44-O43=0.9820       H45-O43=0.9605       
O46-H47=0.9781       O46-H48=0.9674       H47-O46=0.9781       H48-O46=0.9674       O49-H50=0.9798       O49-H51=0.9826       
H50-O49=0.9798       H51-O49=0.9826       O52-H53=0.9959       O52-H54=0.9755       H53-O52=0.9959       H54-O52=0.9755       
O55-H56=0.9716       O55-H57=0.9787       H56-O55=0.9716       H57-O55=0.9787       O58-H59=0.9830       O58-H60=0.9740       
H59-O58=0.9830       H60-O58=0.9740       O61-H62=0.9716       O61-H63=0.9714       H62-O61=0.9716       H63-O61=0.9714       
O64-H65=0.9790       O64-H66=0.9742       H65-O64=0.9790       H66-O64=0.9742       O67-H68=0.9678       O67-H69=0.9765       
H68-O67=0.9678       H69-O67=0.9765       O70-H71=0.9655       O70-H72=0.9649       H71-O70=0.9655       H72-O70=0.9649       
O73-H74=0.9737       O73-H75=0.9801       H74-O73=0.9737       H75-O73=0.9801       O76-H77=0.9798       O76-H78=0.9712       
H77-O76=0.9798       H78-O76=0.9712       O79-H80=0.9675       O79-H81=0.9692       H80-O79=0.9675       H81-O79=0.9692       
O82-H83=0.9655       O82-H84=0.9719       H83-O82=0.9655       H84-O82=0.9719       O85-H86=0.9665       O85-H87=0.9649       
H86-O85=0.9665       H87-O85=0.9649       O88-H89=0.9756       O88-H90=0.9779       H89-O88=0.9756       H90-O88=0.9779       
O91-H92=0.9601       O91-H93=0.9810       H92-O91=0.9601       H93-O91=0.9810       O94-H95=0.9682       O94-H96=0.9627       
H95-O94=0.9682       H96-O94=0.9627       O97-H98=0.9802       O97-H99=0.9590       H98-O97=0.9802       H99-O97=0.9590       
O100-H101=0.9743     O100-H102=0.9647     H101-O100=0.9743     H102-O100=0.9647     O103-H104=0.9665     O103-H105=0.9773     
H104-O103=0.9665     H105-O103=0.9773     O106-H107=0.9728     O106-H108=0.9822     H107-O106=0.9728     H108-O106=0.9822     
O109-H110=0.9705     O109-H111=0.9904     H110-O109=0.9705     H111-O109=0.9904     O112-H113=0.9645     O112-H114=0.9672     
H113-O112=0.9645     H114-O112=0.9672     O115-H116=0.9655     O115-H117=0.9707     H116-O115=0.9655     H117-O115=0.9707     
O118-H119=0.9757     O118-H120=0.9775     H119-O118=0.9757     H120-O118=0.9775     O121-H122=0.9927     O121-H123=0.9844     
H122-O121=0.9927     H123-O121=0.9844     O124-H125=0.9724     O124-H126=0.9673     H125-O124=0.9724     H126-O124=0.9673     
O127-H128=0.9632     O127-H129=0.9838     H128-O127=0.9632     H129-O127=0.9838     O130-H131=0.9708     O130-H132=0.9664     
H131-O130=0.9708     H132-O130=0.9664     O133-H134=0.9728     O133-H135=0.9742     H134-O133=0.9728     H135-O133=0.9742     
O136-H137=0.9605     O136-H138=0.9809     H137-O136=0.9605     H138-O136=0.9809     O139-H140=0.9567     O139-H141=0.9885     
H140-O139=0.9567     H141-O139=0.9885     O142-H143=0.9752     O142-H144=0.9846     H143-O142=0.9752     H144-O142=0.9846     
O145-H146=0.9782     O145-H147=0.9745     H146-O145=0.9782     H147-O145=0.9745     O148-H149=0.9767     O148-H150=0.9614     
H149-O148=0.9767     H150-O148=0.9614     O151-H152=0.9723     O151-H153=0.9756     H152-O151=0.9723     H153-O151=0.9756     
O154-H155=0.9774     O154-H156=0.9747     H155-O154=0.9774     H156-O154=0.9747     O157-H158=0.9667     O157-H159=0.9673     
H158-O157=0.9667     H159-O157=0.9673     O160-H161=0.9645     O160-H162=0.9694     H161-O160=0.9645     H162-O160=0.9694     
O163-H164=0.9761     O163-H165=0.9811     H164-O163=0.9761     H165-O163=0.9811     O166-H167=0.9766     O166-H168=0.9695     
H167-O166=0.9766     H168-O166=0.9695     O169-H170=0.9751     O169-H171=0.9787     H170-O169=0.9751     H171-O169=0.9787     
O172-H173=0.9662     O172-H174=0.9790     H173-O172=0.9662     H174-O172=0.9790     O175-H176=0.9762     O175-H177=0.9709     
H176-O175=0.9762     H177-O175=0.9709     O178-H179=0.9762     O178-H180=0.9691     H179-O178=0.9762     H180-O178=0.9691     
O181-H182=0.9742     O181-H183=0.9698     H182-O181=0.9742     H183-O181=0.9698     O184-H185=0.9729     O184-H186=0.9757     
H185-O184=0.9729     H186-O184=0.9757     O187-H188=0.9851     O187-H189=0.9963     H188-O187=0.9851     H189-O187=0.9963     
O190-H191=0.9892     O190-H192=0.9579     H191-O190=0.9892     H192-O190=0.9579     O193-H194=0.9750     O193-H195=0.9732     
H194-O193=0.9750     H195-O193=0.9732     O196-H197=0.9638     O196-H198=0.9679     H197-O196=0.9638     H198-O196=0.9679     
O199-H200=0.9757     O199-H201=0.9636     H200-O199=0.9757     H201-O199=0.9636     O202-H203=0.9794     O202-H204=0.9637     
H203-O202=0.9794     H204-O202=0.9637     O205-H206=0.9838     O205-H207=0.9780     H206-O205=0.9838     H207-O205=0.9780     
O208-H209=0.9722     O208-H210=0.9706     H209-O208=0.9722     H210-O208=0.9706     O211-H212=0.9695     O211-H213=0.9764     
H212-O211=0.9695     H213-O211=0.9764     O214-H215=0.9771     O214-H216=0.9722     H215-O214=0.9771     H216-O214=0.9722     
O217-H218=0.9723     O217-H219=0.9710     H218-O217=0.9723     H219-O217=0.9710     O220-H221=0.9665     O220-H222=0.9810     
H221-O220=0.9665     H222-O220=0.9810     O223-H224=0.9660     O223-H225=0.9832     H224-O223=0.9660     H225-O223=0.9832     
O226-H227=0.9781     O226-H228=0.9743     H227-O226=0.9781     H228-O226=0.9743     O229-H230=0.9694     O229-H231=0.9754     
H230-O229=0.9694     H231-O229=0.9754     O232-H233=0.9733     O232-H234=0.9822     H233-O232=0.9733     H234-O232=0.9822     
O235-H236=0.9673     O235-H237=0.9744     H236-O235=0.9673     H237-O235=0.9744     O238-H239=0.9716     O238-H240=0.9692     
H239-O238=0.9716     H240-O238=0.9692     O241-H242=0.9731     O241-H243=0.9733     H242-O241=0.9731     H243-O241=0.9733     
O244-H245=1.0008     O244-H246=0.9593     H245-O244=1.0008     H246-O244=0.9593     O247-H248=0.9659     O247-H249=0.9752     
H248-O247=0.9659     H249-O247=0.9752     O250-H251=0.9561     O250-H252=0.9801     H251-O250=0.9561     H252-O250=0.9801     
O253-H254=0.9701     O253-H255=0.9731     H254-O253=0.9701     H255-O253=0.9731     O256-H257=0.9627     O256-H258=0.9723     
H257-O256=0.9627     H258-O256=0.9723     O259-H260=0.9741     O259-H261=0.9685     H260-O259=0.9741     H261-O259=0.9685     
O262-H263=0.9703     O262-H264=0.9794     H263-O262=0.9703     H264-O262=0.9794     O265-H266=0.9792     O265-H267=0.9763     
H266-O265=0.9792     H267-O265=0.9763     O268-H269=0.9702     O268-H270=0.9670     H269-O268=0.9702     H270-O268=0.9670     
O271-H272=0.9578     O271-H273=0.9928     H272-O271=0.9578     H273-O271=0.9928     O274-H275=0.9727     O274-H276=0.9757     
H275-O274=0.9727     H276-O274=0.9757     O277-H278=0.9728     O277-H279=0.9684     H278-O277=0.9728     H279-O277=0.9684     
O280-H281=0.9611     O280-H282=0.9652     H281-O280=0.9611     H282-O280=0.9652     O283-H284=0.9736     O283-H285=0.9665     
H284-O283=0.9736     H285-O283=0.9665     O286-H287=0.9745     O286-H288=0.9731     H287-O286=0.9745     H288-O286=0.9731     
O289-H290=0.9668     O289-H291=0.9751     H290-O289=0.9668     H291-O289=0.9751     O292-H293=0.9639     O292-H294=0.9684     
H293-O292=0.9639     H294-O292=0.9684     O295-H296=0.9698     O295-H297=0.9814     H296-O295=0.9698     H297-O295=0.9814     
O298-H299=0.9621     O298-H300=0.9780     H299-O298=0.9621     H300-O298=0.9780     O301-H302=0.9590     O301-H303=0.9776     
H302-O301=0.9590     H303-O301=0.9776     O304-H305=0.9701     O304-H306=0.9743     H305-O304=0.9701     H306-O304=0.9743     
O307-H308=0.9703     O307-H309=0.9709     H308-O307=0.9703     H309-O307=0.9709     O310-H311=0.9758     O310-H312=0.9647     
H311-O310=0.9758     H312-O310=0.9647     O313-H314=0.9720     O313-H315=0.9788     H314-O313=0.9720     H315-O313=0.9788     
O316-H317=0.9677     O316-H318=0.9645     H317-O316=0.9677     H318-O316=0.9645     O319-H320=0.9769     O319-H321=0.9641     
H320-O319=0.9769     H321-O319=0.9641     O322-H323=0.9866     O322-H324=0.9719     H323-O322=0.9866     H324-O322=0.9719     
O325-H326=0.9880     O325-H327=0.9570     H326-O325=0.9880     H327-O325=0.9570     O328-H329=0.9667     O328-H330=0.9677     
H329-O328=0.9667     H330-O328=0.9677     O331-H332=0.9583     O331-H333=0.9643     H332-O331=0.9583     H333-O331=0.9643     
O334-H335=0.9781     O334-H336=0.9712     H335-O334=0.9781     H336-O334=0.9712     O337-H338=0.9697     O337-H339=0.9642     
H338-O337=0.9697     H339-O337=0.9642     O340-H341=0.9833     O340-H342=0.9573     H341-O340=0.9833     H342-O340=0.9573     
O343-H344=0.9783     O343-H345=0.9705     H344-O343=0.9783     H345-O343=0.9705     O346-H347=0.9675     O346-H348=0.9717     
H347-O346=0.9675     H348-O346=0.9717     O349-H350=0.9753     O349-H351=0.9808     H350-O349=0.9753     H351-O349=0.9808     
O352-H353=0.9686     O352-H354=0.9895     H353-O352=0.9686     H354-O352=0.9895     O355-H356=0.9739     O355-H357=0.9567     
H356-O355=0.9739     H357-O355=0.9567     O358-H359=0.9676     O358-H360=0.9799     H359-O358=0.9676     H360-O358=0.9799     
O361-H362=0.9737     O361-H363=0.9603     H362-O361=0.9737     H363-O361=0.9603     O364-H365=0.9777     O364-H366=0.9708     
H365-O364=0.9777     H366-O364=0.9708     O367-H368=0.9760     O367-H369=0.9763     H368-O367=0.9760     H369-O367=0.9763     
O370-H371=0.9698     O370-H372=0.9733     H371-O370=0.9698     H372-O370=0.9733     O373-H374=0.9700     O373-H375=0.9630     
H374-O373=0.9700     H375-O373=0.9630     O376-H377=0.9788     O376-H378=0.9707     H377-O376=0.9788     H378-O376=0.9707     
O379-H380=0.9830     O379-H381=0.9799     H380-O379=0.9830     H381-O379=0.9799     O382-H383=0.9611     O382-H384=0.9818     
H383-O382=0.9611     H384-O382=0.9818     O385-H386=0.9695     O385-H387=0.9680     H386-O385=0.9695     H387-O385=0.9680     
O388-H389=0.9722     O388-H390=0.9785     H389-O388=0.9722     H390-O388=0.9785     O391-H392=0.9696     O391-H393=0.9672     
H392-O391=0.9696     H393-O391=0.9672     O394-H395=0.9821     O394-H396=0.9694     H395-O394=0.9821     H396-O394=0.9694     
O397-H398=0.9657     O397-H399=0.9664     H398-O397=0.9657     H399-O397=0.9664     O400-H401=0.9721     O400-H402=0.9644     
H401-O400=0.9721     H402-O400=0.9644     O403-H404=0.9998     O403-H405=0.9610     H404-O403=0.9998     H405-O403=0.9610     
O406-H407=0.9728     O406-H408=0.9707     H407-O406=0.9728     H408-O406=0.9707     O409-H410=0.9725     O409-H411=0.9715     
H410-O409=0.9725     H411-O409=0.9715     O412-H413=0.9690     O412-H414=0.9868     H413-O412=0.9690     H414-O412=0.9868     
O415-H416=0.9843     O415-H417=0.9625     H416-O415=0.9843     H417-O415=0.9625     O418-H419=0.9570     O418-H420=0.9834     
H419-O418=0.9570     H420-O418=0.9834     O421-H422=0.9878     O421-H423=0.9657     H422-O421=0.9878     H423-O421=0.9657     
O424-H425=0.9817     O424-H426=0.9681     H425-O424=0.9817     H426-O424=0.9681     O427-H428=0.9701     O427-H429=0.9588     
H428-O427=0.9701     H429-O427=0.9588     O430-H431=0.9593     O430-H432=0.9806     H431-O430=0.9593     H432-O430=0.9806     
O433-H434=0.9753     O433-H435=0.9710     H434-O433=0.9753     H435-O433=0.9710     O436-H437=0.9644     O436-H438=0.9884     
H437-O436=0.9644     H438-O436=0.9884     O439-H440=0.9695     O439-H441=0.9662     H440-O439=0.9695     H441-O439=0.9662     
O442-H443=0.9793     O442-H444=0.9777     H443-O442=0.9793     H444-O442=0.9777     O445-H446=0.9617     O445-H447=0.9868     
H446-O445=0.9617     H447-O445=0.9868     O448-H449=0.9567     O448-H450=0.9852     H449-O448=0.9567     H450-O448=0.9852     
O451-H452=0.9716     O451-H453=0.9790     H452-O451=0.9716     H453-O451=0.9790     O454-H455=0.9848     O454-H456=0.9583     
H455-O454=0.9848     H456-O454=0.9583     O457-H458=0.9739     O457-H459=0.9848     H458-O457=0.9739     H459-O457=0.9848     
O460-H461=0.9740     O460-H462=0.9806     H461-O460=0.9740     H462-O460=0.9806     O463-H464=0.9822     O463-H465=0.9703     
H464-O463=0.9822     H465-O463=0.9703     O466-H467=0.9681     O466-H468=0.9722     H467-O466=0.9681     H468-O466=0.9722     
O469-H470=0.9828     O469-H471=0.9741     H470-O469=0.9828     H471-O469=0.9741     O472-H473=0.9802     O472-H474=0.9648     
H473-O472=0.9802     H474-O472=0.9648     O475-H476=0.9861     O475-H477=0.9580     H476-O475=0.9861     H477-O475=0.9580     
O478-H479=0.9560     O478-H480=1.0058     H479-O478=0.9560     H480-O478=1.0058     O481-H482=0.9721     O481-H483=0.9612     
H482-O481=0.9721     H483-O481=0.9612     O484-H485=0.9708     O484-H486=0.9700     H485-O484=0.9708     H486-O484=0.9700     
O487-H488=0.9808     O487-H489=0.9796     H488-O487=0.9808     H489-O487=0.9796     O490-H491=0.9884     O490-H492=0.9577     
H491-O490=0.9884     H492-O490=0.9577     O493-H494=0.9743     O493-H495=0.9809     H494-O493=0.9743     H495-O493=0.9809     
O496-H497=0.9887     O496-H498=0.9706     H497-O496=0.9887     H498-O496=0.9706     O499-H500=0.9793     O499-H501=0.9786     
H500-O499=0.9793     H501-O499=0.9786     O502-H503=0.9787     O502-H504=0.9696     H503-O502=0.9787     H504-O502=0.9696     
O505-H506=0.9783     O505-H507=0.9884     H506-O505=0.9783     H507-O505=0.9884     O508-H509=0.9684     O508-H510=0.9763     
H509-O508=0.9684     H510-O508=0.9763     O511-H512=0.9577     O511-H513=1.0063     H512-O511=0.9577     H513-O511=1.0063     
O514-H515=0.9797     O514-H516=0.9717     H515-O514=0.9797     H516-O514=0.9717     O517-H518=0.9736     O517-H519=0.9669     
H518-O517=0.9736     H519-O517=0.9669     O520-H521=0.9713     O520-H522=0.9715     H521-O520=0.9713     H522-O520=0.9715     
O523-H524=0.9598     O523-H525=0.9761     H524-O523=0.9598     H525-O523=0.9761     O526-H527=0.9695     O526-H528=0.9827     
H527-O526=0.9695     H528-O526=0.9827     O529-H530=0.9942     O529-H531=0.9576     H530-O529=0.9942     H531-O529=0.9576     
O532-H533=0.9665     O532-H534=0.9724     H533-O532=0.9665     H534-O532=0.9724     O535-H536=0.9672     O535-H537=0.9795     
H536-O535=0.9672     H537-O535=0.9795     O538-H539=0.9661     O538-H540=0.9821     H539-O538=0.9661     H540-O538=0.9821     
O541-H542=0.9654     O541-H543=0.9921     H542-O541=0.9654     H543-O541=0.9921     O544-H545=0.9705     O544-H546=0.9751     
H545-O544=0.9705     H546-O544=0.9751     O547-H548=0.9795     O547-H549=0.9814     H548-O547=0.9795     H549-O547=0.9814     
O550-H551=0.9681     O550-H552=0.9667     H551-O550=0.9681     H552-O550=0.9667     O553-H554=0.9995     O553-H555=0.9559     
H554-O553=0.9995     H555-O553=0.9559     O556-H557=0.9791     O556-H558=0.9750     H557-O556=0.9791     H558-O556=0.9750     
O559-H560=0.9651     O559-H561=0.9823     H560-O559=0.9651     H561-O559=0.9823     O562-H563=0.9806     O562-H564=0.9796     
H563-O562=0.9806     H564-O562=0.9796     O565-H566=0.9860     O565-H567=0.9606     H566-O565=0.9860     H567-O565=0.9606     
O568-H569=0.9609     O568-H570=0.9818     H569-O568=0.9609     H570-O568=0.9818     O571-H572=0.9669     O571-H573=0.9701     
H572-O571=0.9669     H573-O571=0.9701     O574-H575=0.9713     O574-H576=0.9830     H575-O574=0.9713     H576-O574=0.9830     
O577-H578=0.9766     O577-H579=0.9755     H578-O577=0.9766     H579-O577=0.9755     O580-H581=0.9748     O580-H582=0.9738     
H581-O580=0.9748     H582-O580=0.9738     O583-H584=0.9625     O583-H585=0.9777     H584-O583=0.9625     H585-O583=0.9777     
O586-H587=0.9849     O586-H588=0.9860     H587-O586=0.9849     H588-O586=0.9860     O589-H590=0.9748     O589-H591=0.9691     
H590-O589=0.9748     H591-O589=0.9691     O592-H593=0.9641     O592-H594=0.9862     H593-O592=0.9641     H594-O592=0.9862     
O595-H596=0.9726     O595-H597=0.9592     H596-O595=0.9726     H597-O595=0.9592     O598-H599=0.9612     O598-H600=0.9646     
H599-O598=0.9612     H600-O598=0.9646     O601-H602=0.9718     O601-H603=0.9712     H602-O601=0.9718     H603-O601=0.9712     
O604-H605=0.9830     O604-H606=0.9846     H605-O604=0.9830     H606-O604=0.9846     O607-H608=0.9678     O607-H609=0.9702     
H608-O607=0.9678     H609-O607=0.9702     O610-H611=0.9658     O610-H612=0.9776     H611-O610=0.9658     H612-O610=0.9776     
 C  H  Rav=1.0844 sigma=0.0014  Rmin=1.0826  Rmax=1.0861     4
 C  C  Rav=1.5184 sigma=0.0000  Rmin=1.5184  Rmax=1.5184     1
 N  H  Rav=1.0423 sigma=0.0077  Rmin=1.0327  Rmax=1.0515     3
 N  C  Rav=1.4722 sigma=0.0000  Rmin=1.4722  Rmax=1.4722     1
 O  H  Rav=0.9733 sigma=0.0087  Rmin=0.9559  Rmax=1.0063   401
 O  C  Rav=1.4210 sigma=0.0000  Rmin=1.4210  Rmax=1.4210     1
 
 selected bond angles (degree)
 --------------------
H3-C2-H1=109.58                C4-C2-H1=110.70                C4-C2-H3=108.34                O7-C2-H1=108.85                
O7-C2-H3=107.20                O7-C2-C4=112.10                H5-C4-C2=110.69                H6-C4-C2=107.64                
H6-C4-H5=109.77                N9-C4-C2=111.29                N9-C4-H5=107.91                N9-C4-H6=109.54                
H8-O7-C2=107.62                H10-N9-C4=109.00               H11-N9-C4=107.14               H11-N9-H10=107.61              
H12-N9-C4=110.20               H12-N9-H10=109.54              H12-N9-H11=113.24              
 
 selected dihedral angles (degree)
 ---------------------------------
H5-C4-C2-H1=169.70            H5-C4-C2-H3= 49.52            H5-C4-C2-O7=291.44            H6-C4-C2-H1= 49.72            
H6-C4-C2-H3=289.55            H6-C4-C2-O7=171.47            N9-C4-C2-H1=289.69            N9-C4-C2-H3=169.51            
N9-C4-C2-O7= 51.43            H8-O7-C2-H1= 50.62            H8-O7-C2-H3=169.07            H8-O7-C2-C4=287.83            
H10-N9-C4-C2=297.57           H10-N9-C4-H5= 59.20           H10-N9-C4-H6=178.66           H11-N9-C4-C2=181.40           
H11-N9-C4-H5=303.03           H11-N9-C4-H6= 62.49           H12-N9-C4-C2= 57.80           H12-N9-C4-H5=179.43           
H12-N9-C4-H6=298.89           
 
 CMA Distance (Angstroems)
 ---------------------------
R(CMA):  1.1951
           -------------------------------------------------
          |                Final Singlepoint                |
           -------------------------------------------------

          ...................................................
          :                      SETUP                      :
          :.................................................:
          :  # basis functions                1224          :
          :  # atomic orbitals                1224          :
          :  # shells                          816          :
          :  # electrons                      1626          :
          :  max. iterations                   250          :
          :  Hamiltonian                  GFN2-xTB          :
          :  restarted?                      false          :
          :  GBSA solvation                  false          :
          :  PC potential                    false          :
          :  electronic temp.          300.0000000     K    :
          :  accuracy                    1.0000000          :
          :  -> integral cutoff          0.2500000E+02      :
          :  -> integral neglect         0.1000000E-07      :
          :  -> SCF convergence          0.1000000E-05 Eh   :
          :  -> wf. convergence          0.1000000E-03 e    :
          :  Broyden damping             0.4000000          :
          ...................................................

 iter      E             dE          RMSdq      gap      omega  full diag
   1  -1039.8126226 -0.103981E+04  0.313E-05    7.95       0.0  T
   2  -1039.8126226 -0.582077E-10  0.175E-05    7.95     230.6  T
   3  -1039.8126226 -0.409273E-11  0.578E-06    7.95     699.5  T

   *** convergence criteria satisfied after 3 iterations ***

         #    Occupation            Energy/Eh            Energy/eV
      -------------------------------------------------------------
         1        2.0000           -0.7393580             -20.1190
       ...           ...                  ...                  ...
       807        2.0000           -0.4616937             -12.5633
       808        2.0000           -0.4616663             -12.5626
       809        2.0000           -0.4591366             -12.4937
       810        2.0000           -0.4587778             -12.4840
       811        2.0000           -0.4581516             -12.4669
       812        2.0000           -0.4519020             -12.2969
       813        2.0000           -0.4478122             -12.1856 (HOMO)
       814                         -0.1557752              -4.2389 (LUMO)
       815                         -0.1413791              -3.8471
       816                         -0.1322632              -3.5991
       817                         -0.1244231              -3.3857
       818                         -0.1178633              -3.2072
       ...                                ...                  ...
      1224                          0.3766998              10.2505
      -------------------------------------------------------------
                  HL-Gap            0.2920370 Eh            7.9467 eV
             Fermi-level           -0.3017937 Eh           -8.2122 eV

 SCC (total)                   0 d,  0 h,  0 min, 12.219 sec
 SCC setup                      ...        0 min,  0.032 sec (  0.263%)
 Dispersion                     ...        0 min,  0.078 sec (  0.637%)
 classical contributions        ...        0 min,  0.021 sec (  0.168%)
 integral evaluation            ...        0 min,  0.703 sec (  5.755%)
 iterations                     ...        0 min,  1.819 sec ( 14.885%)
 molecular gradient             ...        0 min,  9.495 sec ( 77.706%)
 printout                       ...        0 min,  0.071 sec (  0.585%)

         :::::::::::::::::::::::::::::::::::::::::::::::::::::
         ::                     SUMMARY                     ::
         :::::::::::::::::::::::::::::::::::::::::::::::::::::
         :: total energy           -1033.450863830779 Eh    ::
         :: gradient norm              0.000197302042 Eh/a0 ::
         :: HOMO-LUMO gap              7.946731350683 eV    ::
         ::.................................................::
         :: SCC energy             -1039.812622557431 Eh    ::
         :: -> isotropic ES            5.734210938261 Eh    ::
         :: -> anisotropic ES         -1.305127702169 Eh    ::
         :: -> anisotropic XC         -0.097488506901 Eh    ::
         :: -> dispersion             -0.634766975921 Eh    ::
         :: repulsion energy           6.236926836605 Eh    ::
         :: add. restraining           0.000000000000 Eh    ::
         :: total charge               1.000000000000 e     ::
         :::::::::::::::::::::::::::::::::::::::::::::::::::::

           ------------------------------------------------- 
          |                Numerical Hessian                |
           ------------------------------------------------- 
step length          :   0.00500
SCC accuracy         :   0.30000
Hessian scale factor :   1.00000
frozen atoms in %    :   0.00000    0
RMS gradient         :   0.00020
estimated CPU  time    761.65 min
estimated wall time    763.52 min
