      -----------------------------------------------------------      
     |                   =====================                   |     
     |                           x T B                           |     
     |                   =====================                   |     
     |                         S. Grimme                         |     
     |          Mulliken Center for Theoretical Chemistry        |     
     |                    University of Bonn                     |     
      -----------------------------------------------------------      

   * xtb version 6.5.1 (579679a) compiled by 'ehlert@majestix' on 2022-07-11

   xtb is free software: you can redistribute it and/or modify it under
   the terms of the GNU Lesser General Public License as published by
   the Free Software Foundation, either version 3 of the License, or
   (at your option) any later version.
   
   xtb is distributed in the hope that it will be useful,
   but WITHOUT ANY WARRANTY; without even the implied warranty of
   MERCHANTABILITY or FITNESS FOR A PARTICULAR PURPOSE.  See the
   GNU Lesser General Public License for more details.
   
   Cite this work as:
   * C. Bannwarth, E. Caldeweyher, S. Ehlert, A. Hansen, P. Pracht,
     J. Seibert, S. Spicher, S. Grimme, WIREs Comput. Mol. Sci., 2020, 11,
     e01493. DOI: 10.1002/wcms.1493
   
   for GFN2-xTB:
   * C. Bannwarth, S. Ehlert and S. Grimme., J. Chem. Theory Comput., 2019,
     15, 1652-1671. DOI: 10.1021/acs.jctc.8b01176
   for GFN1-xTB:
   * S. Grimme, C. Bannwarth, P. Shushkov, J. Chem. Theory Comput., 2017,
     13, 1989-2009. DOI: 10.1021/acs.jctc.7b00118
   for GFN0-xTB:
   * P. Pracht, E. Caldeweyher, S. Ehlert, S. Grimme, ChemRxiv, 2019, preprint.
     DOI: 10.26434/chemrxiv.8326202.v1
   for GFN-FF:
   * S. Spicher and S. Grimme, Angew. Chem. Int. Ed., 2020, 59, 15665-15673.
     DOI: 10.1002/anie.202004239
   
   for ALPB and GBSA implicit solvation:
   * S. Ehlert, M. Stahn, S. Spicher, S. Grimme, J. Chem. Theory Comput.,
     2021, 17, 4250-4261. DOI: 10.1021/acs.jctc.1c00471
   
   for DFT-D4:
   * E. Caldeweyher, C. Bannwarth and S. Grimme, J. Chem. Phys., 2017,
     147, 034112. DOI: 10.1063/1.4993215
   * E. Caldeweyher, S. Ehlert, A. Hansen, H. Neugebauer, S. Spicher,
     C. Bannwarth and S. Grimme, J. Chem. Phys., 2019, 150, 154122.
     DOI: 10.1063/1.5090222
   * E. Caldeweyher, J.-M. Mewes, S. Ehlert and S. Grimme, Phys. Chem. Chem. Phys.
     2020, 22, 8499-8512. DOI: 10.1039/D0CP00502A
   
   for sTDA-xTB:
   * S. Grimme and C. Bannwarth, J. Chem. Phys., 2016, 145, 054103.
     DOI: 10.1063/1.4959605
   
   in the mass-spec context:
   * V. Asgeirsson, C. Bauer and S. Grimme, Chem. Sci., 2017, 8, 4879.
     DOI: 10.1039/c7sc00601b
   * J. Koopman and S. Grimme, ACS Omega 2019, 4, 12, 15120-15133.
     DOI: 10.1021/acsomega.9b02011
   
   for metadynamics refer to:
   * S. Grimme, J. Chem. Theory Comput., 2019, 155, 2847-2862
     DOI: 10.1021/acs.jctc.9b00143
   
   for SPH calculations refer to:
   * S. Spicher and S. Grimme, J. Chem. Theory Comput., 2021, 17, 1701-1714
     DOI: 10.1021/acs.jctc.0c01306
   
   with help from (in alphabetical order)
   P. Atkinson, C. Bannwarth, F. Bohle, G. Brandenburg, E. Caldeweyher
   M. Checinski, S. Dohm, S. Ehlert, S. Ehrlich, I. Gerasimov, C. Hölzer
   A. Katbashev, J. Koopman, C. Lavigne, S. Lehtola, F. März, M. Müller,
   F. Musil, H. Neugebauer, J. Pisarek, C. Plett, P. Pracht, F. Pultar,
   J. Seibert, P. Shushkov, S. Spicher, M. Stahn, M. Steiner, T. Strunk,
   J. Stückrath, T. Rose, and J. Unsleber
   
 * started run on 2022/11/17 at 06:48:47.984     

           -------------------------------------------------
          |                Calculation Setup                |
           -------------------------------------------------

          program call               : xtb solvent_cluster.coord --gfn2 --input xcontrol --opt 1
          hostname                   : cn0363
          coordinate file            : solvent_cluster.coord
          omp threads                :                     2

   ID    Z sym.   atoms
    1    8 o      1, 4, 7, 10, 13, 16, 19, 22, 25, 28, 31, 34, 37, 40, 43,
                  46, 49, 52, 55, 58, 61, 64, 67, 70, 73, 76, 79, 82, 85, 88,
                  91, 94, 97, 100, 103, 106, 109, 112, 115, 118, 121, 124,
                  127, 130, 133, 136, 139, 142, 145, 148, 151, 154, 157, 160,
                  163, 166, 169, 172, 175, 178, 181, 184, 187, 190, 193, 196,
                  199, 202, 205, 208, 211, 214, 217, 220, 223, 226, 229, 232,
                  235, 238, 241, 244, 247, 250, 253, 256, 259, 262, 265, 268,
                  271, 274, 277, 280, 283, 286, 289, 292, 295, 298, 301, 304,
                  307, 310, 313, 316, 319, 322, 325, 328, 331, 334, 337, 340,
                  343, 346, 349, 352, 355, 358, 361, 364, 367, 370, 373, 376,
                  379, 382, 385, 388, 391, 394, 397, 400, 403, 406, 409, 412,
                  415, 418, 421, 424, 427, 430, 433, 436, 439, 442, 445, 448,
                  451, 454, 457, 460, 463, 466, 469, 472, 475, 478, 481, 484,
                  487, 490, 493, 496, 499, 502, 505, 508, 511, 514, 517, 520,
                  523, 526, 529
    2    1 h      2, 3, 5, 6, 8, 9, 11, 12, 14, 15, 17, 18, 20, 21, 23, 24,
                  26, 27, 29, 30, 32, 33, 35, 36, 38, 39, 41, 42, 44, 45, 47,
                  48, 50, 51, 53, 54, 56, 57, 59, 60, 62, 63, 65, 66, 68, 69,
                  71, 72, 74, 75, 77, 78, 80, 81, 83, 84, 86, 87, 89, 90, 92,
                  93, 95, 96, 98, 99, 101, 102, 104, 105, 107, 108, 110, 111,
                  113, 114, 116, 117, 119, 120, 122, 123, 125, 126, 128, 129,
                  131, 132, 134, 135, 137, 138, 140, 141, 143, 144, 146, 147,
                  149, 150, 152, 153, 155, 156, 158, 159, 161, 162, 164, 165,
                  167, 168, 170, 171, 173, 174, 176, 177, 179, 180, 182, 183,
                  185, 186, 188, 189, 191, 192, 194, 195, 197, 198, 200, 201,
                  203, 204, 206, 207, 209, 210, 212, 213, 215, 216, 218, 219,
                  221, 222, 224, 225, 227, 228, 230, 231, 233, 234, 236, 237,
                  239, 240, 242, 243, 245, 246, 248, 249, 251, 252, 254, 255,
                  257, 258, 260, 261, 263, 264, 266, 267, 269, 270, 272, 273,
                  275, 276, 278, 279, 281, 282, 284, 285, 287, 288, 290, 291,
                  293, 294, 296, 297, 299, 300, 302, 303, 305, 306, 308, 309,
                  311, 312, 314, 315, 317, 318, 320, 321, 323, 324, 326, 327,
                  329, 330, 332, 333, 335, 336, 338, 339, 341, 342, 344, 345,
                  347, 348, 350, 351, 353, 354, 356, 357, 359, 360, 362, 363,
                  365, 366, 368, 369, 371, 372, 374, 375, 377, 378, 380, 381,
                  383, 384, 386, 387, 389, 390, 392, 393, 395, 396, 398, 399,
                  401, 402, 404, 405, 407, 408, 410, 411, 413, 414, 416, 417,
                  419, 420, 422, 423, 425, 426, 428, 429, 431, 432, 434, 435,
                  437, 438, 440, 441, 443, 444, 446, 447, 449, 450, 452, 453,
                  455, 456, 458, 459, 461, 462, 464, 465, 467, 468, 470, 471,
                  473, 474, 476, 477, 479, 480, 482, 483, 485, 486, 488, 489,
                  491, 492, 494, 495, 497, 498, 500, 501, 503, 504, 506, 507,
                  509, 510, 512, 513, 515, 516, 518, 519, 521, 522, 524, 525,
                  527, 528, 530, 531

molecular fragmentation (1/2 indicates fragments):
111222222222222222222222222222222222222222222222222222222222222222222222
222222222222222222222222222222222222222222222222222222222222222222222222
222222222222222222222222222222222222222222222222222222222222222222222222
222222222222222222222222222222222222222222222222222222222222222222222222
222222222222222222222222222222222222222222222222222222222222222222222222
222222222222222222222222222222222222222222222222222222222222222222222222
222222222222222222222222222222222222222222222222222222222222222222222222
222222222222222222222222222
# atoms in fragment 1/2:     3   528
 fragment masses (1/2) :       18.02     3170.69
CMA distance (Bohr)    :   4.189
constraining FC (au)   :  0.0500

           -------------------------------------------------
          |                 G F N 2 - x T B                 |
           -------------------------------------------------

        Reference                      10.1021/acs.jctc.8b01176
      * Hamiltonian:
        H0-scaling (s, p, d)           1.850000    2.230000    2.230000
        zeta-weighting                 0.500000
      * Dispersion:
        s8                             2.700000
        a1                             0.520000
        a2                             5.000000
        s9                             5.000000
      * Repulsion:
        kExp                           1.500000    1.000000
        rExp                           1.000000
      * Coulomb:
        alpha                          2.000000
        third order                    shell-resolved
        anisotropic                    true
        a3                             3.000000
        a5                             4.000000
        cn-shift                       1.200000
        cn-exp                         4.000000
        max-rad                        5.000000


          ...................................................
          :                      SETUP                      :
          :.................................................:
          :  # basis functions                1062          :
          :  # atomic orbitals                1062          :
          :  # shells                          708          :
          :  # electrons                      1416          :
          :  max. iterations                   250          :
          :  Hamiltonian                  GFN2-xTB          :
          :  restarted?                      false          :
          :  GBSA solvation                  false          :
          :  PC potential                    false          :
          :  electronic temp.          300.0000000     K    :
          :  accuracy                    1.0000000          :
          :  -> integral cutoff          0.2500000E+02      :
          :  -> integral neglect         0.1000000E-07      :
          :  -> SCF convergence          0.1000000E-05 Eh   :
          :  -> wf. convergence          0.1000000E-03 e    :
          :  Broyden damping             0.4000000          :
          ...................................................

 iter      E             dE          RMSdq      gap      omega  full diag
   1   -906.5465111 -0.906547E+03  0.406E+00    8.71       0.0  T
   2   -906.6033800 -0.568689E-01  0.241E+00    7.73       1.0  T
   3   -906.6260939 -0.227139E-01  0.213E-01    6.25       1.0  T
   4   -906.6300293 -0.393535E-02  0.461E-02    6.67       1.0  T
   5   -906.6300983 -0.690867E-04  0.312E-02    6.60       1.0  T
   6   -906.6301284 -0.300567E-04  0.404E-03    6.64       1.1  T
   7   -906.6301299 -0.153884E-05  0.759E-04    6.63       5.7  T
   8   -906.6301300 -0.213870E-07  0.390E-04    6.63      11.1  T
   9   -906.6301300 -0.104179E-07  0.543E-05    6.63      80.0  T

   *** convergence criteria satisfied after 9 iterations ***

         #    Occupation            Energy/Eh            Energy/eV
      -------------------------------------------------------------
         1        2.0000           -0.6911224             -18.8064
       ...           ...                  ...                  ...
       702        2.0000           -0.3461171              -9.4183
       703        2.0000           -0.3457327              -9.4079
       704        2.0000           -0.3423689              -9.3163
       705        2.0000           -0.3413941              -9.2898
       706        2.0000           -0.3406832              -9.2705
       707        2.0000           -0.3352011              -9.1213
       708        2.0000           -0.3156352              -8.5889 (HOMO)
       709                         -0.0718617              -1.9555 (LUMO)
       710                         -0.0659568              -1.7948
       711                         -0.0494966              -1.3469
       712                         -0.0452914              -1.2324
       713                         -0.0410898              -1.1181
       ...                                ...                  ...
      1062                          0.4757711              12.9464
      -------------------------------------------------------------
                  HL-Gap            0.2437735 Eh            6.6334 eV
             Fermi-level           -0.1937485 Eh           -5.2722 eV

 SCC (total)                   0 d,  0 h,  0 min,  8.458 sec
 SCC setup                      ...        0 min,  0.065 sec (  0.773%)
 Dispersion                     ...        0 min,  0.089 sec (  1.047%)
 classical contributions        ...        0 min,  0.021 sec (  0.251%)
 integral evaluation            ...        0 min,  0.521 sec (  6.166%)
 iterations                     ...        0 min,  2.961 sec ( 35.013%)
 molecular gradient             ...        0 min,  4.770 sec ( 56.397%)
 printout                       ...        0 min,  0.030 sec (  0.353%)

         :::::::::::::::::::::::::::::::::::::::::::::::::::::
         ::                     SUMMARY                     ::
         :::::::::::::::::::::::::::::::::::::::::::::::::::::
         :: total energy            -901.174833752928 Eh    ::
         :: gradient norm              0.100564422617 Eh/a0 ::
         :: HOMO-LUMO gap              6.633413523551 eV    ::
         ::.................................................::
         :: SCC energy              -906.630129965673 Eh    ::
         :: -> isotropic ES            5.097827588000 Eh    ::
         :: -> anisotropic ES         -1.103219384021 Eh    ::
         :: -> anisotropic XC         -0.093909507768 Eh    ::
         :: -> dispersion             -0.528546206794 Eh    ::
         :: repulsion energy           5.361853925829 Eh    ::
         :: add. restraining           0.000000000000 Eh    ::
         :: total charge               0.000000000000 e     ::
         :::::::::::::::::::::::::::::::::::::::::::::::::::::

      ----------------------------------------------------------- 
     |                       L-ANC optimizer                     |
      ----------------------------------------------------------- 
          low memory version by Sebastian Ehlert

          ...................................................
          :                      SETUP                      :
          :.................................................:
          :   energy convergence        0.1000000E-05 Eh    :
          :   grad. convergence         0.8000000E-03 Eh/a0 :
          :   optimization log               true           :
          :   writing optlog all                1     steps :
          :   Hessian reset                    20     steps :
          :   maximium step len.        1.0000000     a0    :
          :   LBFGS images                     20           :
          ...................................................
 * calculating model hessian...
Using Lindh-Hessian (1995)
 Shifting diagonal of input Hessian by   1.000020413523316E-002
 Lowest  eigenvalues of input Hessian
    0.010000    0.010000   -0.000000   -0.000000   -0.000000   -0.000000
   -0.000000   -0.000000   -0.000000   -0.000000   -0.000000   -0.000000
   -0.000000   -0.000000   -0.000000   -0.000000   -0.000000   -0.000000
 Highest eigenvalues
    0.315355    0.318883    1.226553    1.235514    1.420823    1.447201
 

........................................................................
.............................. CYCLE    1 ..............................
........................................................................
   1   -906.6308900 -0.906631E+03  0.208E-02    6.64       0.0  T
   2   -906.6309127 -0.227252E-04  0.122E-02    6.62       1.0  T
   3   -906.6309163 -0.354016E-05  0.339E-03    6.62       1.3  T
   4   -906.6309167 -0.423639E-06  0.477E-04    6.62       9.1  T
   5   -906.6309167 -0.314856E-08  0.749E-05    6.62      57.9  T
     SCC iter.                  ...        0 min,  1.361 sec
     gradient                   ...        0 min,  4.781 sec
 * total energy  :  -901.1767915 Eh     change       -0.1957785E-02 Eh
   gradient norm :     0.0074015 Eh/a0  converged?    E=F G=F D=F
   step length   :     0.3252235 a0

........................................................................
.............................. CYCLE    2 ..............................
........................................................................
   1   -906.6309426 -0.906631E+03  0.137E-02    6.63       0.0  T
   2   -906.6309464 -0.379244E-05  0.832E-03    6.63       1.0  T
   3   -906.6309471 -0.725520E-06  0.129E-03    6.64       3.4  T
   4   -906.6309473 -0.127366E-06  0.213E-04    6.64      20.4  T
   5   -906.6309473 -0.526711E-09  0.301E-05    6.64     144.0  T
     SCC iter.                  ...        0 min,  1.359 sec
     gradient                   ...        0 min,  4.790 sec
 * total energy  :  -901.1772166 Eh     change       -0.4250701E-03 Eh
   gradient norm :     0.0071908 Eh/a0  converged?    E=F G=F D=F
   step length   :     0.2027741 a0

........................................................................
.............................. CYCLE    3 ..............................
........................................................................
   1   -906.6303448 -0.906630E+03  0.118E-02    6.67       0.0  T
   2   -906.6303458 -0.106032E-05  0.708E-03    6.67       1.0  T
   3   -906.6303460 -0.182253E-06  0.642E-04    6.67       6.8  T
   4   -906.6303461 -0.430894E-07  0.132E-04    6.67      32.8  T
     SCC iter.                  ...        0 min,  1.065 sec
     gradient                   ...        0 min,  4.789 sec
 * total energy  :  -901.1774750 Eh     change       -0.2584277E-03 Eh
   gradient norm :     0.0088307 Eh/a0  converged?    E=F G=F D=F
   step length   :     0.2270836 a0

........................................................................
.............................. CYCLE    4 ..............................
........................................................................
   1   -906.6306926 -0.906631E+03  0.125E-02    6.70       0.0  T
   2   -906.6306932 -0.601883E-06  0.758E-03    6.71       1.0  T
   3   -906.6306935 -0.308357E-06  0.508E-04    6.71       8.5  T
   4   -906.6306935 -0.126071E-07  0.170E-04    6.71      25.6  T
     SCC iter.                  ...        0 min,  1.050 sec
     gradient                   ...        0 min,  4.800 sec
 * total energy  :  -901.1777056 Eh     change       -0.2305590E-03 Eh
   gradient norm :     0.0072336 Eh/a0  converged?    E=F G=F D=F
   step length   :     0.2555220 a0

........................................................................
.............................. CYCLE    5 ..............................
........................................................................
   1   -906.6287377 -0.906629E+03  0.191E-02    6.72       0.0  T
   2   -906.6287395 -0.176843E-05  0.115E-02    6.72       1.0  T
   3   -906.6287400 -0.522797E-06  0.869E-04    6.72       5.0  T
   4   -906.6287401 -0.620026E-07  0.264E-04    6.72      16.5  T
     SCC iter.                  ...        0 min,  1.025 sec
     gradient                   ...        0 min,  4.807 sec
 * total energy  :  -901.1777356 Eh     change       -0.3002024E-04 Eh
   gradient norm :     0.0175107 Eh/a0  converged?    E=F G=F D=F
   step length   :     0.3474121 a0

........................................................................
.............................. CYCLE    6 ..............................
........................................................................
   1   -906.6328204 -0.906633E+03  0.870E-03    6.73       0.0  T
   2   -906.6328210 -0.586715E-06  0.519E-03    6.73       1.0  T
   3   -906.6328212 -0.174903E-06  0.514E-04    6.73       8.4  T
   4   -906.6328212 -0.182555E-07  0.153E-04    6.73      28.4  T
     SCC iter.                  ...        0 min,  0.985 sec
     gradient                   ...        0 min,  4.813 sec
 * total energy  :  -901.1779266 Eh     change       -0.1910313E-03 Eh
   gradient norm :     0.0068463 Eh/a0  converged?    E=F G=F D=F
   step length   :     0.0979998 a0

........................................................................
.............................. CYCLE    7 ..............................
........................................................................
   1   -906.6324795 -0.906632E+03  0.600E-03    6.73       0.0  T
   2   -906.6324798 -0.252237E-06  0.362E-03    6.72       1.2  T
   3   -906.6324799 -0.705186E-07  0.329E-04    6.72      13.2  T
   4   -906.6324799 -0.894943E-08  0.871E-05    6.72      49.8  T
     SCC iter.                  ...        0 min,  0.967 sec
     gradient                   ...        0 min,  4.832 sec
 * total energy  :  -901.1780188 Eh     change       -0.9213032E-04 Eh
   gradient norm :     0.0037722 Eh/a0  converged?    E=F G=F D=F
   step length   :     0.1105265 a0

........................................................................
.............................. CYCLE    8 ..............................
........................................................................
   1   -906.6304118 -0.906630E+03  0.190E-02    6.70       0.0  T
   2   -906.6304135 -0.168506E-05  0.115E-02    6.69       1.0  T
   3   -906.6304144 -0.881894E-06  0.884E-04    6.67       4.9  T
   4   -906.6304144 -0.392948E-07  0.291E-04    6.68      14.9  T
     SCC iter.                  ...        0 min,  0.978 sec
     gradient                   ...        0 min,  4.855 sec
 * total energy  :  -901.1781315 Eh     change       -0.1127059E-03 Eh
   gradient norm :     0.0102479 Eh/a0  converged?    E=F G=F D=F
   step length   :     0.3756677 a0

........................................................................
.............................. CYCLE    9 ..............................
........................................................................
   1   -906.6328104 -0.906633E+03  0.659E-03    6.68       0.0  T
   2   -906.6328107 -0.281966E-06  0.393E-03    6.68       1.1  T
   3   -906.6328108 -0.852299E-07  0.353E-04    6.68      12.3  T
   4   -906.6328108 -0.862667E-08  0.104E-04    6.68      41.5  T
     SCC iter.                  ...        0 min,  0.968 sec
     gradient                   ...        0 min,  4.846 sec
 * total energy  :  -901.1782176 Eh     change       -0.8611049E-04 Eh
   gradient norm :     0.0048335 Eh/a0  converged?    E=F G=F D=F
   step length   :     0.0848211 a0

........................................................................
.............................. CYCLE   10 ..............................
........................................................................
   1   -906.6336561 -0.906634E+03  0.914E-03    6.68       0.0  T
   2   -906.6336568 -0.619911E-06  0.559E-03    6.67       1.0  T
   3   -906.6336571 -0.327506E-06  0.536E-04    6.67       8.1  T
   4   -906.6336571 -0.141894E-07  0.176E-04    6.67      24.6  T
     SCC iter.                  ...        0 min,  0.980 sec
     gradient                   ...        0 min,  4.847 sec
 * total energy  :  -901.1782909 Eh     change       -0.7333823E-04 Eh
   gradient norm :     0.0082515 Eh/a0  converged?    E=F G=F D=F
   step length   :     0.1385035 a0

........................................................................
.............................. CYCLE   11 ..............................
........................................................................
   1   -906.6324492 -0.906632E+03  0.127E-02    6.66       0.0  T
   2   -906.6324503 -0.113129E-05  0.780E-03    6.65       1.0  T
   3   -906.6324509 -0.585972E-06  0.718E-04    6.64       6.0  T
   4   -906.6324509 -0.275660E-07  0.239E-04    6.65      18.1  T
     SCC iter.                  ...        0 min,  0.981 sec
     gradient                   ...        0 min,  4.846 sec
 * total energy  :  -901.1783740 Eh     change       -0.8305145E-04 Eh
   gradient norm :     0.0093951 Eh/a0  converged?    E=F G=F D=F
   step length   :     0.2198719 a0

........................................................................
.............................. CYCLE   12 ..............................
........................................................................
   1   -906.6322995 -0.906632E+03  0.844E-03    6.66       0.0  T
   2   -906.6323001 -0.548032E-06  0.508E-03    6.65       1.0  T
   3   -906.6323002 -0.168797E-06  0.493E-04    6.65       8.8  T
   4   -906.6323002 -0.192291E-07  0.139E-04    6.65      31.2  T
     SCC iter.                  ...        0 min,  0.978 sec
     gradient                   ...        0 min,  4.835 sec
 * total energy  :  -901.1784683 Eh     change       -0.9430122E-04 Eh
   gradient norm :     0.0062526 Eh/a0  converged?    E=F G=F D=F
   step length   :     0.1177520 a0

........................................................................
.............................. CYCLE   13 ..............................
........................................................................
   1   -906.6285975 -0.906629E+03  0.197E-02    6.63       0.0  T
   2   -906.6285994 -0.189197E-05  0.120E-02    6.61       1.0  T
   3   -906.6286001 -0.738249E-06  0.897E-04    6.59       4.8  T
   4   -906.6286002 -0.586209E-07  0.305E-04    6.60      14.2  T
     SCC iter.                  ...        0 min,  0.971 sec
     gradient                   ...        0 min,  4.835 sec
 * total energy  :  -901.1783610 Eh     change        0.1072604E-03 Eh
   gradient norm :     0.0186864 Eh/a0  converged?    E=F G=F D=F
   step length   :     0.3030154 a0

........................................................................
.............................. CYCLE   14 ..............................
........................................................................
   1   -906.6329000 -0.906633E+03  0.148E-02    6.62       0.0  T
   2   -906.6329011 -0.110953E-05  0.899E-03    6.63       1.0  T
   3   -906.6329017 -0.591681E-06  0.738E-04    6.65       5.9  T
   4   -906.6329017 -0.229131E-07  0.242E-04    6.65      17.9  T
     SCC iter.                  ...        0 min,  0.967 sec
     gradient                   ...        0 min,  4.813 sec
 * total energy  :  -901.1785271 Eh     change       -0.1660424E-03 Eh
   gradient norm :     0.0048709 Eh/a0  converged?    E=F G=F D=F
   step length   :     0.2286034 a0

........................................................................
.............................. CYCLE   15 ..............................
........................................................................
   1   -906.6327165 -0.906633E+03  0.370E-03    6.64       0.0  T
   2   -906.6327167 -0.131097E-06  0.229E-03    6.64       1.9  T
   3   -906.6327167 -0.781456E-07  0.246E-04    6.64      17.7  T
   4   -906.6327167 -0.244131E-08  0.770E-05    6.64      56.3  T
     SCC iter.                  ...        0 min,  0.957 sec
     gradient                   ...        0 min,  4.815 sec
 * total energy  :  -901.1785504 Eh     change       -0.2337100E-04 Eh
   gradient norm :     0.0023301 Eh/a0  converged?    E=F G=F D=F
   step length   :     0.0522414 a0

........................................................................
.............................. CYCLE   16 ..............................
........................................................................
   1   -906.6324446 -0.906632E+03  0.584E-03    6.64       0.0  T
   2   -906.6324449 -0.251566E-06  0.355E-03    6.63       1.2  T
   3   -906.6324450 -0.957617E-07  0.330E-04    6.63      13.1  T
   4   -906.6324450 -0.853208E-08  0.108E-04    6.63      40.0  T
     SCC iter.                  ...        0 min,  0.957 sec
     gradient                   ...        0 min,  4.804 sec
 * total energy  :  -901.1785723 Eh     change       -0.2185195E-04 Eh
   gradient norm :     0.0036645 Eh/a0  converged?    E=F G=F D=F
   step length   :     0.0862412 a0

........................................................................
.............................. CYCLE   17 ..............................
........................................................................
   1   -906.6324198 -0.906632E+03  0.585E-03    6.63       0.0  T
   2   -906.6324201 -0.256782E-06  0.355E-03    6.62       1.2  T
   3   -906.6324202 -0.835174E-07  0.329E-04    6.61      13.2  T
   4   -906.6324202 -0.940508E-08  0.101E-04    6.62      43.1  T
     SCC iter.                  ...        0 min,  0.978 sec
     gradient                   ...        0 min,  4.785 sec
 * total energy  :  -901.1785903 Eh     change       -0.1799847E-04 Eh
   gradient norm :     0.0043823 Eh/a0  converged?    E=F G=F D=F
   step length   :     0.0828318 a0

........................................................................
.............................. CYCLE   18 ..............................
........................................................................
   1   -906.6329471 -0.906633E+03  0.413E-03    6.62       0.0  T
   2   -906.6329472 -0.153829E-06  0.250E-03    6.61       1.7  T
   3   -906.6329473 -0.469287E-07  0.256E-04    6.61      16.9  T
   4   -906.6329473 -0.551336E-08  0.732E-05    6.61      59.3  T
     SCC iter.                  ...        0 min,  0.982 sec
     gradient                   ...        0 min,  4.794 sec
 * total energy  :  -901.1786104 Eh     change       -0.2009016E-04 Eh
   gradient norm :     0.0030208 Eh/a0  converged?    E=F G=F D=F
   step length   :     0.0512437 a0

........................................................................
.............................. CYCLE   19 ..............................
........................................................................
   1   -906.6332985 -0.906633E+03  0.535E-03    6.61       0.0  T
   2   -906.6332988 -0.235927E-06  0.326E-03    6.61       1.3  T
   3   -906.6332989 -0.907138E-07  0.313E-04    6.60      13.9  T
   4   -906.6332989 -0.760156E-08  0.102E-04    6.60      42.4  T
     SCC iter.                  ...        0 min,  0.988 sec
     gradient                   ...        0 min,  4.768 sec
 * total energy  :  -901.1786275 Eh     change       -0.1713919E-04 Eh
   gradient norm :     0.0017184 Eh/a0  converged?    E=F G=F D=F
   step length   :     0.0662989 a0

........................................................................
.............................. CYCLE   20 ..............................
........................................................................
   1   -906.6332279 -0.906633E+03  0.689E-03    6.60       0.0  T
   2   -906.6332282 -0.378682E-06  0.420E-03    6.60       1.0  T
   3   -906.6332284 -0.149906E-06  0.389E-04    6.59      11.2  T
   4   -906.6332284 -0.118097E-07  0.131E-04    6.59      33.2  T
     SCC iter.                  ...        0 min,  0.977 sec
     gradient                   ...        0 min,  4.764 sec
 * total energy  :  -901.1786370 Eh     change       -0.9482394E-05 Eh
   gradient norm :     0.0012481 Eh/a0  converged?    E=F G=F D=F
   step length   :     0.0892203 a0
 * RMSD in coord.:     0.0867564 a0     energy gain  -0.3803246E-02 Eh
 * calculating model hessian...
Using Lindh-Hessian (1995)
 Shifting diagonal of input Hessian by   1.000014471586951E-002
 Lowest  eigenvalues of input Hessian
    0.010000    0.010000   -0.000000   -0.000000   -0.000000   -0.000000
   -0.000000   -0.000000   -0.000000   -0.000000   -0.000000   -0.000000
   -0.000000   -0.000000   -0.000000   -0.000000   -0.000000   -0.000000
 Highest eigenvalues
    0.298741    0.318526    1.234690    1.262483    1.368273    1.434882
 

........................................................................
.............................. CYCLE   21 ..............................
........................................................................
   1   -906.6330736 -0.906633E+03  0.799E-03    6.59       0.0  T
   2   -906.6330738 -0.195872E-06  0.483E-03    6.59       1.0  T
   3   -906.6330738 -0.622915E-07  0.268E-04    6.59      16.2  T
   4   -906.6330738 -0.580542E-08  0.733E-05    6.59      59.2  T
     SCC iter.                  ...        0 min,  0.913 sec
     gradient                   ...        0 min,  4.747 sec
 * total energy  :  -901.1787933 Eh     change       -0.1562998E-03 Eh
   gradient norm :     0.0018542 Eh/a0  converged?    E=F G=F D=F
   step length   :     0.1501212 a0

........................................................................
.............................. CYCLE   22 ..............................
........................................................................
   1   -906.6309955 -0.906631E+03  0.221E-02    6.57       0.0  T
   2   -906.6309987 -0.315725E-05  0.135E-02    6.56       1.0  T
   3   -906.6309997 -0.101815E-05  0.109E-03    6.54       4.0  T
   4   -906.6309998 -0.978786E-07  0.327E-04    6.54      13.3  T
   5   -906.6309998 -0.188993E-08  0.462E-05    6.54      94.0  T
     SCC iter.                  ...        0 min,  1.190 sec
     gradient                   ...        0 min,  4.731 sec
 * total energy  :  -901.1788640 Eh     change       -0.7067908E-04 Eh
   gradient norm :     0.0146054 Eh/a0  converged?    E=F G=F D=F
   step length   :     0.3700191 a0

........................................................................
.............................. CYCLE   23 ..............................
........................................................................
   1   -906.6327736 -0.906633E+03  0.685E-03    6.56       0.0  T
   2   -906.6327739 -0.306029E-06  0.416E-03    6.56       1.0  T
   3   -906.6327741 -0.152955E-06  0.377E-04    6.56      11.5  T
   4   -906.6327741 -0.541854E-08  0.114E-04    6.56      38.0  T
     SCC iter.                  ...        0 min,  0.952 sec
     gradient                   ...        0 min,  4.736 sec
 * total energy  :  -901.1789859 Eh     change       -0.1219630E-03 Eh
   gradient norm :     0.0035384 Eh/a0  converged?    E=F G=F D=F
   step length   :     0.0750612 a0

........................................................................
.............................. CYCLE   24 ..............................
........................................................................
   1   -906.6332792 -0.906633E+03  0.409E-03    6.57       0.0  T
   2   -906.6332793 -0.925121E-07  0.250E-03    6.56       1.7  T
   3   -906.6332793 -0.443391E-07  0.187E-04    6.56      23.2  T
   4   -906.6332793 -0.202635E-08  0.647E-05    6.56      67.1  T
     SCC iter.                  ...        0 min,  0.942 sec
     gradient                   ...        0 min,  4.738 sec
 * total energy  :  -901.1790247 Eh     change       -0.3880594E-04 Eh
   gradient norm :     0.0017934 Eh/a0  converged?    E=F G=F D=F
   step length   :     0.0462642 a0

........................................................................
.............................. CYCLE   25 ..............................
........................................................................
   1   -906.6320852 -0.906632E+03  0.202E-02    6.55       0.0  T
   2   -906.6320875 -0.226868E-05  0.124E-02    6.54       1.0  T
   3   -906.6320886 -0.115915E-05  0.929E-04    6.53       4.7  T
   4   -906.6320887 -0.473696E-07  0.333E-04    6.53      13.0  T
   5   -906.6320887 -0.289788E-08  0.390E-05    6.53     111.2  T
     SCC iter.                  ...        0 min,  1.152 sec
     gradient                   ...        0 min,  4.738 sec
 * total energy  :  -901.1790578 Eh     change       -0.3307822E-04 Eh
   gradient norm :     0.0074203 Eh/a0  converged?    E=F G=F D=F
   step length   :     0.2584946 a0

........................................................................
.............................. CYCLE   26 ..............................
........................................................................
   1   -906.6333217 -0.906633E+03  0.569E-03    6.54       0.0  T
   2   -906.6333219 -0.216111E-06  0.347E-03    6.54       1.3  T
   3   -906.6333220 -0.119375E-06  0.313E-04    6.55      13.9  T
   4   -906.6333220 -0.429111E-08  0.104E-04    6.55      41.7  T
     SCC iter.                  ...        0 min,  0.922 sec
     gradient                   ...        0 min,  4.738 sec
 * total energy  :  -901.1790917 Eh     change       -0.3386623E-04 Eh
   gradient norm :     0.0012843 Eh/a0  converged?    E=F G=F D=F
   step length   :     0.0694873 a0

........................................................................
.............................. CYCLE   27 ..............................
........................................................................
   1   -906.6334329 -0.906633E+03  0.168E-03    6.54       0.0  T
   2   -906.6334329 -0.356135E-07  0.101E-03    6.54       4.3  T
   3   -906.6334329 -0.712703E-08  0.122E-04    6.54      35.5  T
   4   -906.6334329 -0.131547E-08  0.244E-05    6.54     177.7  T
     SCC iter.                  ...        0 min,  0.916 sec
     gradient                   ...        0 min,  4.741 sec
 * total energy  :  -901.1790965 Eh     change       -0.4758678E-05 Eh
   gradient norm :     0.0007683 Eh/a0  converged?    E=F G=T D=F
   step length   :     0.0225861 a0

........................................................................
.............................. CYCLE   28 ..............................
........................................................................
   1   -906.6334615 -0.906633E+03  0.312E-03    6.54       0.0  T
   2   -906.6334616 -0.736784E-07  0.190E-03    6.54       2.3  T
   3   -906.6334616 -0.172382E-07  0.166E-04    6.53      26.1  T
   4   -906.6334616 -0.276350E-08  0.383E-05    6.53     113.2  T
     SCC iter.                  ...        0 min,  0.915 sec
     gradient                   ...        0 min,  4.739 sec
 * total energy  :  -901.1790998 Eh     change       -0.3313452E-05 Eh
   gradient norm :     0.0004301 Eh/a0  converged?    E=F G=T D=F
   step length   :     0.0402899 a0

........................................................................
.............................. CYCLE   29 ..............................
........................................................................
   1   -906.6335019 -0.906634E+03  0.122E-03    6.53       0.0  T
   2   -906.6335020 -0.138236E-07  0.750E-04    6.53       5.8  T
   3   -906.6335020 -0.575903E-08  0.736E-05    6.53      58.9  T
     SCC iter.                  ...        0 min,  0.704 sec
     gradient                   ...        0 min,  4.745 sec
 * total energy  :  -901.1791006 Eh     change       -0.7944878E-06 Eh
   gradient norm :     0.0004886 Eh/a0  converged?    E=T G=T D=F
   step length   :     0.0114798 a0

   *** GEOMETRY OPTIMIZATION CONVERGED AFTER 29 CYCLES ***

------------------------------------------------------------------------
 total energy gain   :        -0.0042668 Eh       -2.6775 kcal/mol
 total RMSD          :         0.0957834 a0        0.0507 Å
 total power (kW/mol):        -0.3862929 (step)   -0.0591 (real)
------------------------------------------------------------------------

 L-ANCopt (total)              0 d,  0 h,  3 min,  9.684 sec
 setup                          ...        0 min,  0.029 sec (  0.015%)
 model hessian                  ...        0 min,  7.678 sec (  4.048%)
 ANC generation                 ...        0 min,  1.779 sec (  0.938%)
 coordinate transformation      ...        0 min,  0.002 sec (  0.001%)
 Rational function              ...        0 min,  0.000 sec (  0.000%)
 singlepoint calculation        ...        3 min,  0.050 sec ( 94.921%)
 optimization log               ...        0 min,  0.140 sec (  0.074%)
 hessian update                 ...        0 min,  0.000 sec (  0.000%)

================
 final structure:
================
$coord
        0.40814706531400       -3.96613688502000       -0.67168590558900      o
        0.98678839676500       -4.67396354200900        0.90113428589100      h
        0.47496911545300       -5.29322788927100       -1.96036557050800      h
        2.61317965571700       -8.43609035562100        2.75780491455700      o
        2.81871634960300       -9.89691939370200        3.85329222933700      h
        2.75347184230900       -6.92711075982400        3.81535848176800      h
        4.47659632672000        6.19088482562500        0.14246086651600      o
        4.76113211119500        7.60216486305600        1.26515575442500      h
        3.24621800774300        6.75994274999600       -1.09210977678800      h
        6.24128543713300       -2.76755632224300        0.40748670473900      o
        5.61323423856100       -3.16555027156700       -1.26444626267600      h
        7.82845365029500       -1.83189192464500        0.21876327584400      h
      -11.19586918417500       -3.56729843550000        4.95200659661800      o
      -10.71783017074500       -4.58826104224500        6.40904380641800      h
       -9.69165652998800       -3.21894345932400        3.96561851202800      h
        5.02802387464600       -7.19681840183400       -2.03954766593700      o
        4.88675382139400       -8.51067469792600       -3.32305165758600      h
        4.11272373514300       -7.80529758440500       -0.58011938986200      h
       -3.26594946086700       -5.18033013984800        5.40478523075600      o
       -2.47311381048400       -6.28239768107200        4.13485938851600      h
       -2.06197127442700       -3.92631352583100        5.99410430202500      h
        7.28765179573300       -7.21452360670200        7.75881460873800      o
        7.45277167654600       -6.93857693677200        5.91484582992100      h
        6.25388440727800       -5.81076421651200        8.34206495815800      h
       -2.18511339036000       -8.37249455012500        1.77235052863000      o
       -0.35022228468400       -8.66745979787600        1.90459242428500      h
       -3.03524563432700       -9.98453414324700        1.94207791411900      h
        1.19018691751800        6.63776794395900        6.02446351266100      o
        0.28630936427600        7.80167486448700        7.13435919241900      h
        0.52533321197500        6.94963288161700        4.30230653883400      h
       -4.15206515355600       -2.33084271402700       -2.05224840878500      o
       -2.48082394772600       -2.68003434010000       -1.35383505973000      h
       -4.83466311968900       -4.03551676370200       -2.36799676293700      h
        7.25907357791600        3.81036760782200        8.97513429035100      o
        9.03661731741800        3.69167322590500        8.54094950848800      h
        6.68196074752000        5.48205300261800        8.42392390122700      h
       -0.75715474754100        7.84739175659200        1.69239719106600      o
       -2.59519493184600        7.75637348211100        1.79074098403200      h
       -0.32579395834200        9.59868396877100        1.38704414736200      h
       -8.75515040328800        4.85381038539000        4.42389114282800      o
       -7.56697451738600        5.96416084716100        3.51948640971500      h
      -10.09192356470500        4.33577846863600        3.26714068835800      h
       -3.13343229393500        3.14286663130600       -6.19465031698500      o
       -3.59169882129900        3.44327944118400       -4.42771481714800      h
       -4.26372926928100        1.79169857960300       -6.74380239166000      h
       -4.06814085869800       14.67544498983200       -5.51359109440900      o
       -2.84525645452000       13.58608666309700       -6.37790817258500      h
       -4.25547567217800       16.16448024013700       -6.52181235943500      h
       -8.34377031488500        4.57250402540000       -5.90814640088700      o
       -8.38317877434900        5.91116376410400       -4.64665205738400      h
       -8.55242711827800        3.01481119785800       -4.96194178412000      h
       -0.45985898770500       -1.49690258553400       -5.77274900928300      o
       -1.97566022489300       -1.76840403138300       -4.78497957036200      h
       -0.85966140098300       -2.06338290027800       -7.48797055867400      h
        5.94764793313300        1.62779869036700        3.26721914789000      o
        4.76220318877600        1.90877552637100        4.66097633484900      h
        6.89138504043000        3.17065441039500        2.95268199336500      h
        8.93707986790700       -1.59764881714700        5.71863107061700      o
        8.02281660742600       -0.42983686676200        4.61324086469600      h
        9.90201846882100       -2.72769949109300        4.61897385537700      h
       -8.64079372477200       12.45450875496800       -4.15739706502100      o
       -7.06488049883300       13.23906092620100       -4.66742201280500      h
       -9.56442140144100       12.07904068610200       -5.72196905192000      h
        2.06550144766200        2.88808430033400       -5.04849021573600      o
        0.65328640595800        1.76332214426600       -5.42260802382200      h
        1.40513281201800        4.51222283153300       -4.56699251778100      h
       12.23877429993900        4.18987940865000        8.00281374751400      o
       13.94982862736800        4.42280601135400        8.70749625824800      h
       12.50242116261800        3.12676613730500        6.48947839595400      h
       15.99328129160300       -2.43152528322900        0.73109468214900      o
       16.67418528509700       -3.88017573336400       -0.19399919055500      h
       14.43900444380400       -3.04847426002400        1.55290681009200      h
       -8.29861561076900        0.83910943489900       -2.31757625148100      o
       -6.93503114268400       -0.34375610093300       -2.59933596674200      h
       -9.60710974126100       -0.09916904479200       -1.40620969521600      h
        6.84216289263800        2.55134452527300       -2.47553471420900      o
        6.19764807902000        3.89457032847600       -1.39813514511200      h
        6.99782501311600        3.30356731050800       -4.13453444635900      h
       -5.67396161977900       -2.22387930653000       10.54060787835100      o
       -5.28350904043000       -1.37331187662900        8.96400616137600      h
       -7.49031590038500       -1.97239316595000       10.74782434339700      h
       -6.89538407508300        0.71972384282000      -12.25710911311600      o
       -8.72646796992000        0.76704670529500      -12.25880857370900      h
       -6.42384131680200        0.34800851495400      -10.50593409380400      h
      -11.46597203269800        5.42504403477200       -9.61825833464600      o
      -10.29377154509600        5.02418121047000       -8.19979686655500      h
      -11.66935563066300        3.83982790417000      -10.53057959028700      h
       11.75463792491800       -6.25930149360500        9.68425275322700      o
       10.05520610107100       -6.62196233640100        8.97260233442400      h
       11.45816605724900       -5.56045352307800       11.32781798692600      h
        6.37344449325000       -5.91648540850000       -8.15314654223800      o
        7.56752198781200       -4.81470401241400       -9.01697370537000      h
        4.90545459341900       -5.98545866407800       -9.29283432436200      h
      -15.39471770102100       -8.24561116004900       -1.90482326130200      o
      -14.15762126758800       -9.47746448156100       -2.45315801986700      h
      -14.97038169213800       -7.79046385912400       -0.17139178410700      h
       -4.63427779077300        4.00155062558800       -1.37789870657000      o
       -6.32378289932600        3.28778321370000       -1.54442760106500      h
       -4.68096061591900        5.81614512517000       -1.64941387296200      h
       -0.16390003304400       -7.66920599913900       -4.01388465237500      o
        0.32547468763100       -9.03679786032400       -2.88514404568300      h
        0.33352406337300       -8.25252827549700       -5.69180622500700      h
        2.76587030138100        2.02035918588000        7.17380721556300      o
        1.95857609206400        3.66002780032500        6.89511210289000      h
        4.13302729391700        2.29522646343500        8.35881692762100      h
        5.45056035533300      -10.64220321277600       -5.79571125354100      o
        7.01031103982100      -11.38052612653800       -5.20916125288500      h
        5.90360260397400       -9.30957958794400       -6.95726851017700      h
        4.97404179102500       -2.74293334354500        8.58052362586400      o
        4.66232979644700       -1.64825069561800       10.01675019142000      h
        6.48461900063500       -2.12817866417800        7.71831359835800      h
       -9.96913877024900       -6.77489195284000        0.36134516626800      o
       -9.41830113240300       -6.97888819712300        2.10228656386300      h
      -10.65329396618400       -8.43277676557800       -0.12500764205200      h
       11.90606270231600        2.86926581803600       -4.52064848402600      o
       11.05564391391300        4.32257024309800       -3.73112521728500      h
       13.46998468603900        2.58990155529400       -3.59182897957500      h
       -4.07945042536400        7.98342329241400       -7.66747209167700      o
       -3.84344423738100        6.17405873619700       -7.35384442596800      h
       -5.40019909680200        8.11289373602300       -8.97586489922100      h
        7.64509863065500       -6.98557285643800        2.90587297572100      o
        7.18896720883300       -8.52359741799900        2.01103835792200      h
        6.97430140724500       -5.55865948019000        1.95592799641500      h
        3.96061798649500        0.44033022677500       12.58465483796500      o
        4.95936046685000        1.76139547190700       13.36546037068900      h
        2.36927518880900        1.26646863529200       12.15589887725000      h
        7.68499517723000       -3.21812333848200       13.49566968391700      o
        8.88312352726600       -2.33952418590300       12.40479888402600      h
        6.33231328383200       -2.02119475920000       13.75468821317100      h
       -0.44165386868700       -2.03391754494500        8.37266739334200      o
       -0.39663671488800       -2.32683662691800       10.18937722531800      h
        0.67700466116000       -0.62372372312400        8.02716180925800      h
        1.17870812457100        7.88646903289100       -3.52016683351100      o
        1.74748462169400        9.63772621805400       -3.41743278027500      h
       -0.63195840577100        7.96943221067400       -3.06537468692400      h
        1.07071014691700       12.71778510210400        1.08722410105100      o
        1.55670159163700       13.04724820979600       -0.65185590155600      h
        2.59820843681000       12.05172857219900        1.89405390908100      h
       -6.32568410328100      -11.62149380152900        1.55528745452900      o
       -6.89778425153800      -10.33378383530700        2.76420743136200      h
       -6.17905397314300      -13.15809985580300        2.49696491909000      h
      -11.70442904217000       -1.94485154558600        0.10739603965600      o
      -13.41162683974700       -1.95489109528300       -0.54210290952400      h
      -11.07365710253700       -3.67307448056300        0.01180341366100      h
       17.03509177302900        5.32082203589000       -6.37598198815300      o
       17.70296765775600        3.69482536248800       -5.86235565715700      h
       15.89187097911200        4.97989374959200       -7.75393457383300      h
       -4.37236870609300        5.03615499861000      -13.64079853488000      o
       -5.24057754976100        3.42188950258400      -13.47042098237600      h
       -2.82108319374900        4.84024008628000      -12.68359520550800      h
      -16.15378744865200       -0.77157905273600       -2.00644475747100      o
      -15.29228528395200        0.77643549857000       -2.52477520613800      h
      -17.86678987396400       -0.74051952553700       -2.69265952943600      h
        2.81119314329600        7.49673959478200       12.28012082567600      o
        4.14527230440700        6.89370839196700       13.36738290511600      h
        1.69308811588000        6.03351452365900       12.06634619635800      h
      -13.21691753969200        3.09384811717000       -3.34090786592000      o
      -14.09909788243700        4.07008551350100       -4.64739623694300      h
      -12.77241233344000        4.21174489621900       -1.97620261951500      h
       -7.38363154663900        0.42973127265500        6.41313029078400      o
       -7.69636797242600        2.12641045100800        5.78425444793300      h
       -7.03018813128900       -0.55688611600600        4.90193807175300      h
       14.50232979531300       -3.01541858941600        6.97743049219500      o
       15.48341504130400       -4.21488466019900        5.96314429648800      h
       13.40772283242100       -4.05394765942900        8.05595631565900      h
       16.02657619622600        1.93972368276000       -1.71747125604000      o
       15.77602438585500        0.29063765476200       -0.89795952645400      h
       17.85290889616100        2.21053791540500       -1.67323360436900      h
      -17.26206731937000        7.12104548237800        5.01552432808600      o
      -16.21552597328200        8.52592233819700        4.48941646207500      h
      -17.62618160803100        6.14643911115900        3.49336806498500      h
        0.02890899601400        0.20901144561700      -13.90956483542000      o
       -0.01890465002200        1.74317939625800      -12.90118464066300      h
        1.78489259685900       -0.29761793184400      -14.02624614897500      h
       -3.78211845081900       -6.86723023812500       10.35519824982700      o
       -3.22972228927600       -6.72037075440500        8.60773147092500      h
       -4.67053502166700       -5.26530948986700       10.63475621382500      h
        9.00155126072500       12.17547252465100        0.15427405365100      o
       10.61600717460900       11.43905340433600        0.77827607803900      h
        9.32323472044100       13.93088178656800       -0.13235429145200      h
       -8.61020713116100        7.94543089663400       -2.06822937043800      o
       -8.50153472033200        9.62883289712800       -2.84388755631700      h
      -10.34101956818800        7.78867942927100       -1.44702026632800      h
      -12.83469455887100        2.69555847751300        2.24950290569900      o
      -13.36839634019800        2.72404498825200        4.01959487563800      h
      -12.38977815675600        0.96823064751500        1.82017523315300      h
       -9.79713346223500       13.61407030226500        0.90779596368100      o
      -11.33478020219500       12.70435948475900        1.26856242613300      h
       -9.39400822155500       13.35726534526400       -0.85934660023000      h
      -13.30160139156400        7.69677993532800       -0.41950464330200      o
      -14.72001236164200        8.07117390248400       -1.51409083187000      h
      -13.51368249648500        8.74514005458200        1.06357492515800      h
       10.53374508213000       -0.09043445177500       -0.07665514368500      o
        9.45798633297300        1.25971284272500       -0.70480983158600      h
       11.33366602714600        0.46203590399900        1.47268552412900      h
        9.43341646691300        5.36127988795300        2.51871499466900      o
        9.48228093493700        6.70699349042300        3.77337911912500      h
       11.18180272920300        4.81570354742800        2.35877819957700      h
        9.37742808014800       -1.50381725359900       -4.92631666995700      o
        7.63091006896300       -1.27291925053600       -4.44390410521400      h
       10.20130981081800        0.12263953216700       -4.61111972952100      h
       -0.58543366300400       10.18148901050700        9.18429827691400      o
       -2.34594737253100        9.75749101180200        9.47961262432200      h
        0.35967101515300        9.74532026999800       10.68182027096200      h
       -3.07249978088600        0.19268713625400       14.18452890511600      o
       -1.85929213190300       -1.07828544068600       14.66731812512100      h
       -4.08825116427000       -0.65190968523500       12.88231067865600      h
       -6.62705344556900       -2.66312725229300        2.50270531541700      o
       -5.92198368028900       -2.25256432220800        0.85635295231700      h
       -5.34981317205500       -3.61659104569200        3.42201958527100      h
        9.91676620628000       -2.46805765671000       -9.77521813541300      o
        9.76656306622100       -2.04578090468200       -7.95830842825700      h
        9.32073983054400       -1.01574939463600      -10.68655371661300      h
       -7.68570507659400       -7.91754029018600        4.78522309688800      o
       -8.10888834943500       -8.81183945073500        6.34504861263300      h
       -6.19297288265900       -6.93492765051900        5.15233192824700      h
        4.33089588921500       -2.67375128799000       -4.66366421206400      o
        4.81841240154600       -4.25043081613100       -5.47109552950200      h
        2.50346058332100       -2.47750030282900       -4.90050313934500      h
        4.88263909866400       -1.40096542470500      -13.06438524361400      o
        4.77740587813600       -0.70804462402600      -11.34714359135500      h
        6.25701316776200       -0.55167705241200      -13.88045548914900      h
      -11.98684472269300        0.59627005419700      -11.21515559361000      o
      -11.71870711829200        0.06730806157500       -9.44405730340700      h
      -13.34416836978200       -0.43692068854200      -11.82277852831400      h
       14.13331274647000       -3.59961696634500       -4.75382701516700      o
       13.35347358274600       -2.47834598807200       -3.55113961170600      h
       14.43987792729400       -2.63001740399800       -6.28690677921400      h
        9.94606916688000       -5.82461981189400       -1.80754520120500      o
        8.21519535590000       -6.48219422864100       -1.86734532923800      h
        9.96187020167900       -4.37894398240000       -2.93080303261700      h
      -20.03091260648700       -5.82458283978400       -1.81469416675200      o
      -19.85570957357500       -5.21768340820200       -0.10534629398100      h
      -18.57814610608900       -6.90159456644100       -2.10431224992500      h
       -0.13484995405900        3.36008837435700       11.62905451927400      o
       -1.22415469856000        2.42719462926300       12.80550287648400      h
       -1.18928720368700        3.59550560997300       10.12503971788200      h
        4.99891393046600        0.69166121405100       -8.41236995501300      o
        5.00506996181200       -0.67949763317500       -7.16947656008500      h
        3.88683391440500        1.92858773239800       -7.62190966066800      h
        5.38359666513300        8.36691491051600        7.90972235503800      o
        4.65505468394500        8.53537813491800        9.59657393384600      h
        3.93135091330300        7.71822925308600        6.91083002754100      h
       12.91075026655500        3.56310682133200       -9.29800282895800      o
       11.37550044289500        3.16767291379800      -10.24680707708400      h
       12.39979989540700        3.42444529872700       -7.49984513488000      h
        2.71379740297200       -3.51604805769600        4.01862773184900      o
        3.28975767533900       -3.13384958303000        5.71740285608600      h
        4.08177114772500       -3.01436663208100        2.90674808021800      h
      -14.35546094592200       -4.37247566250300       -4.98908051434400      o
      -15.14937875807400       -3.07155052656600       -3.93384479446500      h
      -14.62157006519900       -5.96196524034300       -4.08612892417200      h
      -15.75858940480500        5.22219271327000       -7.09297483247900      o
      -16.58958716064300        3.64100674885400       -7.59077430198000      h
      -14.31170496952200        5.44109213271900       -8.24490654965000      h
        2.48805592496500       12.78756941861000       -3.88676803742500      o
        1.56764767027200       12.77292091179400       -5.46929806847700      h
        4.26506918230000       12.45185273626500       -4.26468300111800      h
       13.29908419742000        1.08795248646900        4.25165247539200      o
       13.30267606510500       -0.52101604781700        5.17126061955100      h
       15.05378048576800        1.36299374825700        3.81944348572300      h
       20.98803047583700        2.06939793728100       -0.55884985477300      o
       21.73792441496800        0.70711845289800       -1.49815362984400      h
       20.60773464490900        1.37418735926000        1.09666716253100      h
       13.09002848686300       10.32913305949700        2.15838020836300      o
       13.59334228137500        8.63746330823100        1.61736110561500      h
       12.47368558221900       10.11316867905500        3.86580866834700      h
       14.42714556763100        5.48628538970100        1.45373299525400      o
       14.94646087475500        4.26299308553100        0.15678398935700      h
       15.85053546197400        5.64098564288300        2.60174854131100      h
        1.91523136292700      -11.58696019439700       -1.30014761367500      o
        1.86555220211100      -12.56504351528600       -2.86786680440500      h
        0.81105603800900      -12.42351265906600       -0.10110497132900      h
       11.90242605096100       -4.43876636101100        2.70612446782000      o
       11.99598475660100       -6.04382749307900        3.59841698791100      h
       10.99880611706600       -4.79281226011100        1.12864606086800      h
        2.89787950582000      -12.76296177503900        5.64754980249900      o
        4.67390620791200      -13.04687268270000        6.00768261187200      h
        2.01974036941800      -12.55335801050900        7.23288779245700      h
      -18.61145881268600       -3.04423031424300        2.76702749982100      o
      -17.76489282098000       -2.20764596063700        4.17384010832200      h
      -19.46954204532500       -1.71332275124600        1.83786064559900      h
      -15.94696125699000       -6.27468953749100        8.09558312785400      o
      -16.29347960568100       -4.47664285536400        8.10068361497600      h
      -15.91100561067200       -6.72280827127800        6.31795489416900      h
      -12.48266074547500      -10.77385527809700        4.70611899687500      o
      -13.40426974847700       -9.29285719760500        4.14716814758800      h
      -13.05217078243300      -11.14488965380000        6.38087146545200      h
       -3.85246135595500       -8.69987557949900      -10.83296185100600      o
       -4.20722959826400       -7.47658743404800      -12.13784117518600      h
       -5.43427869973100       -9.66435194739800      -10.59237261612500      h
       10.05223508432700      -11.55690260651000       -3.38399486364900      o
       10.58674341505200      -10.17746939711700       -4.51630827655000      h
       11.53304722069900      -11.91192556819200       -2.39015863021000      h
      -11.14021486089600       -0.53727206550800       -6.44575056418700      o
      -11.57697283364000       -2.19025062414800       -5.77404562962500      h
      -11.75019329043000        0.70125648010600       -5.23759123870900      h
       -3.31468002668900      -14.45151939597700       -2.77094666823000      o
       -2.70041016218300      -14.47557872630400       -1.05856625434000      h
       -1.87126314157900      -14.56031718936700       -3.88010168124000      h
       17.50443029090100       -6.18594227877400        4.43800784032200      o
       18.91940632993200       -5.33450581644400        3.62030875363000      h
       16.88259102441400       -7.43904888732400        3.28635036263700      h
        8.07816355411800      -12.01610150954000        5.76070252829800      o
        7.54524301894600      -10.44867108348500        6.55212444521900      h
        7.67822609724400      -11.90606224330200        3.96808424685500      h
       -4.15661170795600      -12.42696207939800        6.24724066714400      o
       -5.66477192349500      -12.15277753526300        7.22897960694700      h
       -2.75710595538400      -12.09911613057600        7.40295284891900      h
       -5.51037879122000       -7.04307018483700       -1.83346517497700      o
       -4.27017815996100       -7.59080782477300       -0.59270928875500      h
       -7.15990251414100       -6.90869200331900       -0.97694593452500      h
       -7.83058316999500       -9.89090823781800        9.43908791205400      o
       -6.33496899148700       -8.98208939968400       10.03496593636700      h
       -9.23658313889000       -8.79788738730000        9.87323910309400      h
       17.23532908651400       -6.50074063216500       -2.03904446101900      o
       16.15812379201600       -7.82691527239900       -1.33544722235400      h
       16.19369802436300       -5.73459725159000       -3.35312532363900      h
       10.38852119117900        8.61142501720500        6.33347827002200      o
       11.23574757067200        7.17261034478300        7.14409775507000      h
        8.82999139475500        8.88847897526800        7.24061323383400      h
      -14.22065700158800        3.69693489323400        7.08364076604500      o
      -15.50694739679500        4.93699287512800        6.57324755186900      h
      -12.99939004238400        4.63179169679400        8.07136918922000      h
       -5.83146095147800        8.07423724481300        2.13131542538300      o
       -6.06376727979600        9.71576875998000        2.95104709261300      h
       -6.73641266047600        8.16074146270000        0.51453813019100      h
      -20.69265409250600       -1.39222441814700       -4.12266051946400      o
      -20.63503071862900       -3.16804022493300       -3.57168180998600      h
      -21.62290144270400       -0.52141438428400       -2.81717802008300      h
      -14.83796130052900       -6.41868019820100        2.91034502125100      o
      -16.27403410569800       -5.29061117157600        2.65000289373700      h
      -13.41337964409100       -5.30665540408900        3.35307953822500      h
      -17.69748581373300        0.67488211776100       -7.98241895711800      o
      -16.79535426994700       -0.73988880096600       -8.71974208566700      h
      -18.92135720646800       -0.02848700547000       -6.81940840258300      h
       11.30286471947000       -7.81287905946700       -6.55121632928800      o
       12.27545825400700       -6.41217053979200       -5.88061596278700      h
        9.71132767250800       -7.12197716564800       -7.10364233791900      h
       -0.39571464937900      -11.19764793313300        9.49692379222800      o
        0.19263303472300       -9.52502530588700        8.89364282849200      h
       -1.26914854334400      -10.88345408228600       11.05069562153900      h
       -4.29669600730800       -5.69904066852800       -6.67833760524800      o
       -3.02862443560000       -6.33812035630600       -5.52157763411800      h
       -4.15731416538900       -6.73871852033100       -8.19698036174100      h
       -4.05095132545900       13.16899495473400       -0.41987472175200      o
       -4.11746997197100       14.27453018880700       -1.86516445264500      h
       -2.42310961604800       13.40623365769700        0.36072864979100      h
        7.37823567154000        5.70807773845000       -6.62600752137400      o
        7.79477714480800        6.82661276658000       -5.23153164045600      h
        5.64506274192500        6.11275317575100       -7.14778157700900      h
        2.57406816914200       -5.83510956990100      -11.38256262863600      o
        3.38756403440300       -4.76632926460200      -12.61456967727600      h
        0.99960262162400       -4.92299867288300      -10.94212293268200      h
       -0.95331943912300      -13.89481726274500        2.36777068651800      o
        0.56993936927700      -13.95348234219300        3.38640517621600      h
       -2.27846549887700      -13.56052840649300        3.58756930031300      h
       14.84639094431200       -1.08696388200800       -9.17767701960600      o
       13.43925213490800       -2.06509633104800       -9.84467581902500      h
       14.29672946320500        0.68366236636900       -9.34719168488100      h
       20.95498018981400       -2.98221258184800       -2.86851210575500      o
       19.99525064512400       -4.53904749913100       -2.90950311621500      h
       20.10461653151900       -1.85228697620200       -4.04530855842100      h
       -6.76116929930100      -11.08371047368900       -4.62418054301900      o
       -5.73537891858800      -12.48574641000300       -4.03255885050700      h
       -6.12872233644400       -9.60744510053200       -3.70392621255100      h
      -14.09515876589300       11.14007853209700        3.35121897225900      o
      -15.18991003562800       12.57441522373800        3.48623677158800      h
      -12.98012601316200       11.20112839788300        4.88047063681500      h
      -15.22741540027600       -3.68648293598300       -9.76920369027200      o
      -14.91085551484200       -4.04337772507500       -7.94462850595700      h
      -16.47691301568800       -4.87607708464300      -10.30951975770800      h
      -11.13139404157300       -5.93132674144000        9.50350789525600      o
      -12.93095481124800       -6.28469574410700        9.20275605078000      h
      -11.09302755205300       -4.25683725733000       10.23369474172000      h
      -17.51658072703300        4.23021011371500        0.76716174935400      o
      -17.51395027329800        5.33051902740500       -0.69735100068400      h
      -15.78490113142800        3.60620978327800        1.01805143233100      h
        5.54576285024000       11.27519977502400       -9.63944662625900      o
        7.00481662326200       10.66360352578300      -10.53979637843800      h
        6.13132323032900       11.55413003366800       -7.93015819047100      h
       17.00422290311600        4.42655113543600        9.29840923171900      o
       17.59449399809800        2.68420646061000        9.33099338112100      h
       17.75338688835600        5.18484058215200        7.81266153008900      h
        2.90345422741700        7.24618489653200       -8.28963502305400      o
        2.08148865769500        7.64996331097100       -6.68497002346600      h
        3.59341598975700        8.81941420555400       -8.97922756658100      h
       -7.21695918263800        3.16434095939800       11.55853358589100      o
       -5.93167646395100        3.17615041829300       10.21896242026700      h
       -6.31766281264600        2.89086202400300       13.10796738053300      h
       21.46858615466600       -3.69652158598000        2.20152656427500      o
       21.28271366932900       -3.35320005530800        0.39750982081100      h
       23.03061172394300       -4.58433705730300        2.39507852132600      h
       -9.15598114817000       -5.12307415023800       -5.15360197375100      o
       -7.39198921227300       -5.62093780938400       -5.30210469153600      h
      -10.12452863110600       -6.62728342181600       -4.74523530980900      h
      -11.59926062317900       -9.70227217530100       -5.08247814352400      o
      -12.03848147027300      -10.40663956969700       -6.69076123565900      h
      -10.08195115016800      -10.59709032451600       -4.52940158464100      h
       -6.08290850990100       -0.81094505572700       -7.45021647094200      o
       -7.84451614096200       -0.83854885903400       -6.90527808318900      h
       -5.43924986383600       -2.52343520694700       -7.27668350507000      h
       -1.43244564723000       -3.01805393754100      -10.47591648968400      o
       -1.00082591889900       -1.74577971056400      -11.78016897438100      h
       -3.08045925046000       -3.65523428520000      -11.00735331616500      h
        0.54818409676200       -9.73234925627800       -8.61182645716900      o
        1.66267827721800       -8.81196130309900       -9.72417621932600      h
       -1.10493431955100       -9.62684749359800       -9.42426187606800      h
       -5.43974230884400        8.85973174111800        8.41683386546100      o
       -5.74255824919600       10.06421630608200        7.07662619743000      h
       -7.09250977999300        8.28236623546500        8.97946164731300      h
      -17.63009382035800        7.71341449706300       -3.20845094628600      o
      -19.10086574449600        8.68627089210100       -3.60278719554200      h
      -17.08875094972900        6.89582766935200       -4.78580469841100      h
       12.44054177611500       -9.11715492687600        5.06794207445700      o
       11.06758784854100      -10.32121384033000        5.32278624085200      h
       12.92566247782500       -8.55657324730800        6.72945798955900      h
        6.77435770104700      -11.53658681270600        0.69429216119400      o
        7.88415885104400      -11.63685233866600       -0.76753577808700      h
        5.04931634250500      -11.67996043424100        0.06165166942400      h
       -5.90259806874500       -4.30309796173000      -12.58996289107400      o
       -6.14425738796900       -2.54846981841200      -13.08279460383500      h
       -7.46582192042800       -4.78871263213400      -11.74036222418200      h
       11.64925265685100       11.52558595072700       -6.65040096186300      o
       11.33881646841700       10.45905119090000       -8.12111350192900      h
       12.82687168946000       10.60942532092200       -5.57899873437500      h
       -0.31838748248600        4.00672909527500      -10.47969599733000      o
        0.93064103264800        5.21085988029800       -9.87466313102700      h
       -1.24838570028500        3.46582618648400       -8.99632023700300      h
        8.40127610207600        2.67018256982500      -11.47309700458400      o
        7.93506425729600        4.31796070715500      -12.06675806288400      h
        7.22205794689700        2.26347863152700      -10.09357501737700      h
      -21.27190517105700        0.89543128119300        0.56905836203200      o
      -22.50482293778100        1.45579077679900        1.76678306093500      h
      -19.87424528049400        2.12105964039300        0.62422231333200      h
       13.51436898781300       -9.29870708219800       -0.06972409585400      o
       13.17714267937400       -9.46993030520600        1.71851581472000      h
       12.20597170879900       -8.18228319750600       -0.73365282797700      h
       18.96056418202900        0.31101451033600       -6.41405380798100      o
       20.35766673590600        0.59440511427100       -7.52933417074600      h
       17.60812559689400       -0.40270877607300       -7.43812315782400      h
       -0.71196138889300       11.61555497698400       -7.91346139987200      o
       -1.83535035386800       10.11209784978300       -7.89563322335500      h
       -0.14403449176900       11.81034652037000       -9.62069303185900      h
        4.32985908124600       -6.83910324831400       12.47933629064100      o
        4.94963198343000       -8.39500502327000       13.15672679358900      h
        5.67402821731200       -5.57768884777900       12.73813074866400      h
        5.19694511551800       10.52953457221500        2.98902244476600      o
        5.62524495931700       10.32959079231800        4.74644598749400      h
        6.67551223591900       11.18393511391600        2.09101504059300      h
      -10.53147988558700       -0.76291028189700       10.13316658542700      o
      -10.27569423466900        0.72773051718100       11.14186181602000      h
       -9.77387001758200       -0.34699121179200        8.48435643209600      h
       -7.40815837797000        8.20134351975000      -11.35918884080500      o
       -6.28639129674600        7.21067089088400      -12.48193559621200      h
       -8.85341375780200        7.10350664482400      -11.05886869175000      h
       18.34411462654300       -0.58074430239100        8.83292938438100      o
       16.76999872084500       -1.49949600914400        8.35825486756600      h
       19.22099856199400       -1.62416662991100       10.01808516072700      h
       10.05022449736400        8.08051268926400      -10.14880021110500      o
        9.08592191659900        7.13359635880800       -8.85373101482100      h
       11.53546605782000        7.07542087919700      -10.45723901741400      h
       -8.28178327050600      -10.47618835076200       -9.56069400771300      o
       -7.75530202677300      -10.71944613871000       -7.80917988218200      h
       -9.09373109418900       -8.83213527920700       -9.68659930644000      h
      -10.16727439459500       -5.55536494160800       -9.98839339411500      o
      -11.83600379124400       -4.90183620569800      -10.32460844065700      h
       -9.82833934228400       -5.17981331057200       -8.18570385413000      h
       -1.85865677353600       13.77726813657900        5.44219414417000      o
       -1.22679822107200       12.74544335106200        6.81278915084100      h
       -0.68046130308000       13.59804643079300        4.06292478403200      h
      -11.12608225247600       11.35030931015400        7.22618637032900      o
      -10.91549336946200        9.72313974886200        8.03925156062100      h
       -9.49662179436800       11.86158781652900        6.55332883087200      h
       -6.64838471687200       12.34765183711800        4.63644911782500      o
       -5.02682233548700       13.22894857821400        4.79722368776800      h
       -7.56784052153000       13.13497723730600        3.22736090965100      h
        7.17688513769500       11.02334543589400       -4.58219758668400      o
        7.57020573276300       10.89585740891400       -2.79505927144300      h
        8.84892203115500       11.38217877578500       -5.34388522704100      h
      -10.02556865614400        6.49562034997500        8.91588869691800      o
       -9.26152657504600        5.32890374125300       10.11656856815800      h
       -9.56271563218700        5.85002822608100        7.22010662022800      h
        9.94098937206800        6.97796274919300       -2.31740184848500      o
        9.53334254782600        6.55768942509000       -0.56981861597800      h
       11.56248271363700        7.82582968266600       -2.34763506958000      h
       18.57386367566100        0.52124656301400        3.79408676839200      o
       17.85948929891700       -0.86708520959500        2.77381778517800      h
       18.92797630552000       -0.16329152390300        5.45663429055900      h
       -3.61298675683800        8.75376875151400       -2.78043029041000      o
       -4.15381882528400        8.81277091366300       -4.53980809644000      h
       -3.92940854166700       10.38818366439300       -1.97629828122200      h
      -10.75620108335700       10.96019127352500       -8.47426178290400      o
       -9.41344640735300       10.60295950169900       -9.66558519238000      h
      -11.80399414838800        9.47584656963500       -8.51124739638300      h
       14.66835673192000        8.67461315098800       -3.43798639155400      o
       15.60623837369700        7.41727590373000       -4.43680643930200      h
       15.86397326086900        9.52610695195000       -2.38288794628100      h
[...]
   160   8 o      161   1 h                                       0.9717299
   160   8 o      162   1 h                                       0.9731738
   163   8 o      164   1 h                                       0.9800534
   163   8 o      165   1 h                                       0.9814669
   166   8 o      167   1 h                                       0.9834529
   166   8 o      168   1 h                                       0.9773015
   169   8 o      170   1 h                                       0.9679341
   169   8 o      171   1 h                                       0.9756681
   172   8 o      173   1 h                                       0.9718421
   172   8 o      174   1 h                                       0.9690977
   175   8 o      176   1 h                                       0.9729308
   175   8 o      177   1 h                                       0.9805623
   178   8 o      179   1 h                                       0.9953822
   178   8 o      180   1 h                                       0.9564940
   181   8 o      182   1 h                                       0.9825181
   181   8 o      183   1 h                                       0.9766415
   184   8 o      185   1 h                                       0.9784593
   184   8 o      186   1 h                                       0.9708541
   187   8 o      188   1 h                                       0.9645094
   187   8 o      189   1 h                                       0.9687343
   190   8 o      191   1 h                                       0.9685794
   190   8 o      192   1 h                                       0.9676223
   193   8 o      194   1 h                                       0.9721222
   193   8 o      195   1 h                                       0.9679104
   196   8 o      197   1 h                                       0.9739615
   196   8 o      198   1 h                                       0.9728932
   199   8 o      200   1 h                                       0.9665797
   199   8 o      201   1 h                                       0.9791198
   202   8 o      203   1 h                                       0.9709204
   202   8 o      204   1 h                                       0.9650833
   205   8 o      206   1 h                                       0.9642547
   205   8 o      207   1 h                                       0.9816013
   208   8 o      209   1 h                                       0.9723280
   208   8 o      210   1 h                                       0.9736825
   211   8 o      212   1 h                                       0.9902884
   211   8 o      213   1 h                                       0.9605667
   214   8 o      215   1 h                                       0.9774623
   214   8 o      216   1 h                                       0.9654470
   217   8 o      218   1 h                                       0.9722379
   217   8 o      219   1 h                                       0.9806394
   220   8 o      221   1 h                                       0.9814965
   220   8 o      222   1 h                                       0.9578204
   223   8 o      224   1 h                                       0.9883705
   223   8 o      225   1 h                                       0.9582370
   226   8 o      227   1 h                                       0.9630233
   226   8 o      228   1 h                                       0.9735192
   229   8 o      230   1 h                                       0.9803220
   229   8 o      231   1 h                                       0.9688333
   232   8 o      233   1 h                                       0.9643365
   232   8 o      234   1 h                                       0.9691840
   235   8 o      236   1 h                                       0.9816069
   235   8 o      237   1 h                                       0.9799528
   238   8 o      239   1 h                                       0.9793209
   238   8 o      240   1 h                                       0.9745395
   241   8 o      242   1 h                                       0.9764176
   241   8 o      243   1 h                                       0.9938953
   244   8 o      245   1 h                                       0.9777027
   244   8 o      246   1 h                                       0.9919312
   247   8 o      248   1 h                                       0.9705236
   247   8 o      249   1 h                                       0.9698987
   250   8 o      251   1 h                                       0.9809402
   250   8 o      252   1 h                                       0.9775628
   253   8 o      254   1 h                                       0.9812651
   253   8 o      255   1 h                                       0.9855119
   256   8 o      257   1 h                                       0.9688089
   256   8 o      258   1 h                                       0.9776615
   259   8 o      260   1 h                                       0.9806887
   259   8 o      261   1 h                                       0.9673110
   262   8 o      263   1 h                                       0.9613620
   262   8 o      264   1 h                                       0.9712499
   265   8 o      266   1 h                                       0.9768694
   265   8 o      267   1 h                                       0.9673718
   268   8 o      269   1 h                                       0.9826480
   268   8 o      270   1 h                                       0.9711391
   271   8 o      272   1 h                                       0.9781707
   271   8 o      273   1 h                                       0.9695253
   274   8 o      275   1 h                                       0.9730475
   274   8 o      276   1 h                                       0.9800951
   277   8 o      278   1 h                                       0.9706576
   277   8 o      279   1 h                                       0.9654199
   280   8 o      281   1 h                                       0.9751330
   280   8 o      282   1 h                                       0.9715805
   283   8 o      284   1 h                                       0.9689975
   283   8 o      285   1 h                                       0.9702960
   286   8 o      287   1 h                                       0.9692968
   286   8 o      288   1 h                                       0.9564510
   289   8 o      290   1 h                                       0.9649333
   289   8 o      291   1 h                                       0.9886193
   292   8 o      293   1 h                                       0.9858430
   292   8 o      294   1 h                                       0.9622527
   295   8 o      296   1 h                                       0.9720575
   295   8 o      297   1 h                                       0.9708168
   298   8 o      299   1 h                                       0.9627759
   298   8 o      300   1 h                                       0.9650072
   301   8 o      302   1 h                                       0.9751422
   301   8 o      303   1 h                                       0.9588591
   304   8 o      305   1 h                                       0.9710354
   304   8 o      306   1 h                                       0.9736774
   307   8 o      308   1 h                                       0.9632677
   307   8 o      309   1 h                                       0.9760086
   310   8 o      311   1 h                                       0.9725336
   310   8 o      312   1 h                                       0.9861188
   313   8 o      314   1 h                                       0.9783175
   313   8 o      315   1 h                                       0.9700005
   316   8 o      317   1 h                                       0.9777843
   316   8 o      318   1 h                                       0.9755795
   319   8 o      320   1 h                                       0.9822026
   319   8 o      321   1 h                                       0.9654647
   322   8 o      323   1 h                                       0.9833002
   322   8 o      324   1 h                                       0.9672598
   325   8 o      326   1 h                                       0.9786993
   325   8 o      327   1 h                                       0.9815332
   328   8 o      329   1 h                                       0.9843863
   328   8 o      330   1 h                                       0.9653613
   331   8 o      332   1 h                                       0.9761309
   331   8 o      333   1 h                                       0.9846176
   334   8 o      335   1 h                                       0.9698627
   334   8 o      336   1 h                                       0.9678568
   337   8 o      338   1 h                                       0.9696554
   337   8 o      339   1 h                                       0.9635546
   340   8 o      341   1 h                                       0.9910979
   340   8 o      342   1 h                                       0.9577687
   343   8 o      344   1 h                                       0.9692069
   343   8 o      345   1 h                                       0.9767060
   346   8 o      347   1 h                                       0.9635525
   346   8 o      348   1 h                                       0.9635521
   349   8 o      350   1 h                                       0.9713236
   349   8 o      351   1 h                                       0.9814632
   352   8 o      353   1 h                                       0.9644839
   352   8 o      354   1 h                                       0.9906893
   355   8 o      356   1 h                                       0.9701964
   355   8 o      357   1 h                                       0.9693727
   358   8 o      359   1 h                                       0.9731209
   358   8 o      360   1 h                                       0.9851769
   361   8 o      362   1 h                                       0.9680467
   361   8 o      363   1 h                                       0.9735567
   364   8 o      365   1 h                                       0.9711472
   364   8 o      366   1 h                                       0.9795093
   367   8 o      368   1 h                                       0.9575085
   370   8 o      371   1 h                                       0.9979810 (max)
   370   8 o      372   1 h                                       0.9566729
   373   8 o      374   1 h                                       0.9834358
   373   8 o      375   1 h                                       0.9668982
   376   8 o      377   1 h                                       0.9693459
   376   8 o      378   1 h                                       0.9830507
   379   8 o      380   1 h                                       0.9632651
   379   8 o      381   1 h                                       0.9674469
   382   8 o      383   1 h                                       0.9736353
   382   8 o      384   1 h                                       0.9676416
   385   8 o      386   1 h                                       0.9777062
   385   8 o      387   1 h                                       0.9795692
   388   8 o      389   1 h                                       0.9824104
   388   8 o      390   1 h                                       0.9590044
   391   8 o      392   1 h                                       0.9767435
   391   8 o      393   1 h                                       0.9562751
   394   8 o      395   1 h                                       0.9731092
   394   8 o      396   1 h                                       0.9710789
   397   8 o      398   1 h                                       0.9577411
   397   8 o      399   1 h                                       0.9770196
   400   8 o      401   1 h                                       0.9758954
   400   8 o      402   1 h                                       0.9724534
   403   8 o      404   1 h                                       0.9908555
   403   8 o      405   1 h                                       0.9763819
   406   8 o      407   1 h                                       0.9651551
   406   8 o      408   1 h                                       0.9763259
   409   8 o      410   1 h                                       0.9669094
   409   8 o      411   1 h                                       0.9731023
   412   8 o      413   1 h                                       0.9562045
   412   8 o      414   1 h                                       0.9828383
   415   8 o      416   1 h                                       0.9757125
   415   8 o      417   1 h                                       0.9627870
   418   8 o      419   1 h                                       0.9726866
   418   8 o      420   1 h                                       0.9752606
   421   8 o      422   1 h                                       0.9728809
   421   8 o      423   1 h                                       0.9759429
   424   8 o      425   1 h                                       0.9753043
   424   8 o      426   1 h                                       0.9720224
   427   8 o      428   1 h                                       0.9723145
   427   8 o      429   1 h                                       0.9696913
   430   8 o      431   1 h                                       0.9591051
   430   8 o      432   1 h                                       0.9841907
   433   8 o      434   1 h                                       0.9567187
   433   8 o      435   1 h                                       0.9841361
   436   8 o      437   1 h                                       0.9672285
   436   8 o      438   1 h                                       0.9756265
   439   8 o      440   1 h                                       0.9578044
   439   8 o      441   1 h                                       0.9739175
   442   8 o      443   1 h                                       0.9932058
   442   8 o      444   1 h                                       0.9576682
   445   8 o      446   1 h                                       0.9560121
   445   8 o      447   1 h                                       0.9850278
   448   8 o      449   1 h                                       0.9630380
   448   8 o      450   1 h                                       0.9787374
   451   8 o      452   1 h                                       0.9620120
   451   8 o      453   1 h                                       0.9851138
   454   8 o      455   1 h                                       0.9900501
   454   8 o      456   1 h                                       0.9734850
   457   8 o      458   1 h                                       0.9966617
   457   8 o      459   1 h                                       0.9557841 (min)
   460   8 o      461   1 h                                       0.9905280
   460   8 o      462   1 h                                       0.9629407
   463   8 o      464   1 h                                       0.9763512
   463   8 o      465   1 h                                       0.9725958
   466   8 o      467   1 h                                       0.9649034
   466   8 o      468   1 h                                       0.9907925
   469   8 o      470   1 h                                       0.9674597
   469   8 o      471   1 h                                       0.9645914
   472   8 o      473   1 h                                       0.9690019
   472   8 o      474   1 h                                       0.9713372
   475   8 o      476   1 h                                       0.9803353
   475   8 o      477   1 h                                       0.9830185
   478   8 o      479   1 h                                       0.9706931
   478   8 o      480   1 h                                       0.9906556
   481   8 o      482   1 h                                       0.9738328
   481   8 o      483   1 h                                       0.9909470
   484   8 o      485   1 h                                       0.9753029
   484   8 o      486   1 h                                       0.9684136
   487   8 o      488   1 h                                       0.9869893
   487   8 o      489   1 h                                       0.9697168
   490   8 o      491   1 h                                       0.9745185
   490   8 o      492   1 h                                       0.9783432
   493   8 o      494   1 h                                       0.9685326
   493   8 o      495   1 h                                       0.9616648
   496   8 o      497   1 h                                       0.9840649
   496   8 o      498   1 h                                       0.9565929
   499   8 o      500   1 h                                       0.9772929
   499   8 o      501   1 h                                       0.9604215
   502   8 o      503   1 h                                       0.9753434
   502   8 o      504   1 h                                       0.9673870
   505   8 o      506   1 h                                       0.9731481
   505   8 o      507   1 h                                       0.9696917
   508   8 o      509   1 h                                       0.9735940
   508   8 o      510   1 h                                       0.9672594
   511   8 o      512   1 h                                       0.9687480
   511   8 o      513   1 h                                       0.9709814
   514   8 o      515   1 h                                       0.9792887
   514   8 o      516   1 h                                       0.9571841
   517   8 o      518   1 h                                       0.9575251
   517   8 o      519   1 h                                       0.9795488
   520   8 o      521   1 h                                       0.9771704
   520   8 o      522   1 h                                       0.9709807
   523   8 o      524   1 h                                       0.9560982
   523   8 o      525   1 h                                       0.9899371
   526   8 o      527   1 h                                       0.9676428
   526   8 o      528   1 h                                       0.9658216
   529   8 o      530   1 h                                       0.9614110
   529   8 o      531   1 h                                       0.9583037

 * 1 distinct bonds (by element types)

   Z      Z             #   av. dist./Å        max./Å        min./Å
   1 H    8 O         353     0.9735726     0.9979810     0.9557841


optimized geometry written to: xtbopt.coord


           -------------------------------------------------
          | TOTAL ENERGY             -901.179100558332 Eh   |
          | GRADIENT NORM               0.004785150511 Eh/α |
          | HOMO-LUMO GAP               6.534478768875 eV   |
           -------------------------------------------------

------------------------------------------------------------------------
 * finished run on 2022/11/17 at 06:52:12.649     
------------------------------------------------------------------------
 total:
 * wall-time:     0 d,  0 h,  3 min, 24.666 sec
 *  cpu-time:     0 d,  0 h,  5 min, 15.877 sec
 * ratio c/w:     1.543 speedup
 SCF:
 * wall-time:     0 d,  0 h,  0 min,  8.465 sec
 *  cpu-time:     0 d,  0 h,  0 min, 13.252 sec
 * ratio c/w:     1.566 speedup
 ANC optimizer:
 * wall-time:     0 d,  0 h,  3 min, 15.548 sec
 *  cpu-time:     0 d,  0 h,  5 min,  1.562 sec
 * ratio c/w:     1.542 speedup

