      -----------------------------------------------------------      
     |                   =====================                   |     
     |                           x T B                           |     
     |                   =====================                   |     
     |                         S. Grimme                         |     
     |          Mulliken Center for Theoretical Chemistry        |     
     |                    University of Bonn                     |     
      -----------------------------------------------------------      

   * xtb version 6.5.1 (579679a) compiled by 'ehlert@majestix' on 2022-07-11

   xtb is free software: you can redistribute it and/or modify it under
   the terms of the GNU Lesser General Public License as published by
   the Free Software Foundation, either version 3 of the License, or
   (at your option) any later version.
   
   xtb is distributed in the hope that it will be useful,
   but WITHOUT ANY WARRANTY; without even the implied warranty of
   MERCHANTABILITY or FITNESS FOR A PARTICULAR PURPOSE.  See the
   GNU Lesser General Public License for more details.
   
   Cite this work as:
   * C. Bannwarth, E. Caldeweyher, S. Ehlert, A. Hansen, P. Pracht,
     J. Seibert, S. Spicher, S. Grimme, WIREs Comput. Mol. Sci., 2020, 11,
     e01493. DOI: 10.1002/wcms.1493
   
   for GFN2-xTB:
   * C. Bannwarth, S. Ehlert and S. Grimme., J. Chem. Theory Comput., 2019,
     15, 1652-1671. DOI: 10.1021/acs.jctc.8b01176
   for GFN1-xTB:
   * S. Grimme, C. Bannwarth, P. Shushkov, J. Chem. Theory Comput., 2017,
     13, 1989-2009. DOI: 10.1021/acs.jctc.7b00118
   for GFN0-xTB:
   * P. Pracht, E. Caldeweyher, S. Ehlert, S. Grimme, ChemRxiv, 2019, preprint.
     DOI: 10.26434/chemrxiv.8326202.v1
   for GFN-FF:
   * S. Spicher and S. Grimme, Angew. Chem. Int. Ed., 2020, 59, 15665-15673.
     DOI: 10.1002/anie.202004239
   
   for ALPB and GBSA implicit solvation:
   * S. Ehlert, M. Stahn, S. Spicher, S. Grimme, J. Chem. Theory Comput.,
     2021, 17, 4250-4261. DOI: 10.1021/acs.jctc.1c00471
   
   for DFT-D4:
   * E. Caldeweyher, C. Bannwarth and S. Grimme, J. Chem. Phys., 2017,
     147, 034112. DOI: 10.1063/1.4993215
   * E. Caldeweyher, S. Ehlert, A. Hansen, H. Neugebauer, S. Spicher,
     C. Bannwarth and S. Grimme, J. Chem. Phys., 2019, 150, 154122.
     DOI: 10.1063/1.5090222
   * E. Caldeweyher, J.-M. Mewes, S. Ehlert and S. Grimme, Phys. Chem. Chem. Phys.
     2020, 22, 8499-8512. DOI: 10.1039/D0CP00502A
   
   for sTDA-xTB:
   * S. Grimme and C. Bannwarth, J. Chem. Phys., 2016, 145, 054103.
     DOI: 10.1063/1.4959605
   
   in the mass-spec context:
   * V. Asgeirsson, C. Bauer and S. Grimme, Chem. Sci., 2017, 8, 4879.
     DOI: 10.1039/c7sc00601b
   * J. Koopman and S. Grimme, ACS Omega 2019, 4, 12, 15120-15133.
     DOI: 10.1021/acsomega.9b02011
   
   for metadynamics refer to:
   * S. Grimme, J. Chem. Theory Comput., 2019, 155, 2847-2862
     DOI: 10.1021/acs.jctc.9b00143
   
   for SPH calculations refer to:
   * S. Spicher and S. Grimme, J. Chem. Theory Comput., 2021, 17, 1701-1714
     DOI: 10.1021/acs.jctc.0c01306
   
   with help from (in alphabetical order)
   P. Atkinson, C. Bannwarth, F. Bohle, G. Brandenburg, E. Caldeweyher
   M. Checinski, S. Dohm, S. Ehlert, S. Ehrlich, I. Gerasimov, C. Hölzer
   A. Katbashev, J. Koopman, C. Lavigne, S. Lehtola, F. März, M. Müller,
   F. Musil, H. Neugebauer, J. Pisarek, C. Plett, P. Pracht, F. Pultar,
   J. Seibert, P. Shushkov, S. Spicher, M. Stahn, M. Steiner, T. Strunk,
   J. Stückrath, T. Rose, and J. Unsleber
   
 * started run on 2022/11/17 at 06:54:49.175     

           -------------------------------------------------
          |                Calculation Setup                |
           -------------------------------------------------

          program call               : xtb xtbopt.coord --gfn2 --sp --gbsa water
          hostname                   : cn0363
          coordinate file            : xtbopt.coord
          omp threads                :                     2

   ID    Z sym.   atoms
    1    8 o      1, 4, 7, 10, 13, 16, 19, 22, 25, 28, 31, 34, 37, 40, 43,
                  46, 49, 52, 55, 58, 61, 64, 67, 70, 73, 76, 79, 82, 85, 88,
                  91, 94, 97, 100, 103, 106, 109, 112, 115, 118, 121, 124,
                  127, 130, 133, 136, 139, 142, 145, 148, 151, 154, 157, 160,
                  163, 166, 169, 172, 175, 178, 181, 184, 187, 190, 193, 196,
                  199, 202, 205, 208, 211, 214, 217, 220, 223, 226, 229, 232,
                  235, 238, 241, 244, 247, 250, 253, 256, 259, 262, 265, 268,
                  271, 274, 277, 280, 283, 286, 289, 292, 295, 298, 301, 304,
                  307, 310, 313, 316, 319, 322, 325, 328, 331, 334, 337, 340,
                  343, 346, 349, 352, 355, 358, 361, 364, 367, 370, 373, 376,
                  379, 382, 385, 388, 391, 394, 397, 400, 403, 406, 409, 412,
                  415, 418, 421, 424, 427, 430, 433, 436, 439, 442, 445, 448,
                  451, 454, 457, 460, 463, 466, 469, 472, 475, 478, 481, 484,
                  487, 490, 493, 496, 499, 502, 505, 508, 511, 514, 517, 520,
                  523, 526, 529
    2    1 h      2, 3, 5, 6, 8, 9, 11, 12, 14, 15, 17, 18, 20, 21, 23, 24,
                  26, 27, 29, 30, 32, 33, 35, 36, 38, 39, 41, 42, 44, 45, 47,
                  48, 50, 51, 53, 54, 56, 57, 59, 60, 62, 63, 65, 66, 68, 69,
                  71, 72, 74, 75, 77, 78, 80, 81, 83, 84, 86, 87, 89, 90, 92,
                  93, 95, 96, 98, 99, 101, 102, 104, 105, 107, 108, 110, 111,
                  113, 114, 116, 117, 119, 120, 122, 123, 125, 126, 128, 129,
                  131, 132, 134, 135, 137, 138, 140, 141, 143, 144, 146, 147,
                  149, 150, 152, 153, 155, 156, 158, 159, 161, 162, 164, 165,
                  167, 168, 170, 171, 173, 174, 176, 177, 179, 180, 182, 183,
                  185, 186, 188, 189, 191, 192, 194, 195, 197, 198, 200, 201,
                  203, 204, 206, 207, 209, 210, 212, 213, 215, 216, 218, 219,
                  221, 222, 224, 225, 227, 228, 230, 231, 233, 234, 236, 237,
                  239, 240, 242, 243, 245, 246, 248, 249, 251, 252, 254, 255,
                  257, 258, 260, 261, 263, 264, 266, 267, 269, 270, 272, 273,
                  275, 276, 278, 279, 281, 282, 284, 285, 287, 288, 290, 291,
                  293, 294, 296, 297, 299, 300, 302, 303, 305, 306, 308, 309,
                  311, 312, 314, 315, 317, 318, 320, 321, 323, 324, 326, 327,
                  329, 330, 332, 333, 335, 336, 338, 339, 341, 342, 344, 345,
                  347, 348, 350, 351, 353, 354, 356, 357, 359, 360, 362, 363,
                  365, 366, 368, 369, 371, 372, 374, 375, 377, 378, 380, 381,
                  383, 384, 386, 387, 389, 390, 392, 393, 395, 396, 398, 399,
                  401, 402, 404, 405, 407, 408, 410, 411, 413, 414, 416, 417,
                  419, 420, 422, 423, 425, 426, 428, 429, 431, 432, 434, 435,
                  437, 438, 440, 441, 443, 444, 446, 447, 449, 450, 452, 453,
                  455, 456, 458, 459, 461, 462, 464, 465, 467, 468, 470, 471,
                  473, 474, 476, 477, 479, 480, 482, 483, 485, 486, 488, 489,
                  491, 492, 494, 495, 497, 498, 500, 501, 503, 504, 506, 507,
                  509, 510, 512, 513, 515, 516, 518, 519, 521, 522, 524, 525,
                  527, 528, 530, 531

molecular fragmentation (1/2 indicates fragments):
111222222222222222222222222222222222222222222222222222222222222222222222
222222222222222222222222222222222222222222222222222222222222222222222222
222222222222222222222222222222222222222222222222222222222222222222222222
222222222222222222222222222222222222222222222222222222222222222222222222
222222222222222222222222222222222222222222222222222222222222222222222222
222222222222222222222222222222222222222222222222222222222222222222222222
222222222222222222222222222222222222222222222222222222222222222222222222
222222222222222222222222222
# atoms in fragment 1/2:     3   528
 fragment masses (1/2) :       18.02     3170.69
CMA distance (Bohr)    :   4.185
constraining FC (au)   :  0.0500

           -------------------------------------------------
          |                 G F N 2 - x T B                 |
           -------------------------------------------------

        Reference                      10.1021/acs.jctc.8b01176
      * Hamiltonian:
        H0-scaling (s, p, d)           1.850000    2.230000    2.230000
        zeta-weighting                 0.500000
      * Dispersion:
        s8                             2.700000
        a1                             0.520000
        a2                             5.000000
        s9                             5.000000
      * Repulsion:
        kExp                           1.500000    1.000000
        rExp                           1.000000
      * Coulomb:
        alpha                          2.000000
        third order                    shell-resolved
        anisotropic                    true
        a3                             3.000000
        a5                             4.000000
        cn-shift                       1.200000
        cn-exp                         4.000000
        max-rad                        5.000000

      * Solvation model:               GBSA
        Solvent                        water
        Parameter file                 internal GFN2-xTB/GBSA
        Dielectric constant                8.0200E+01
        Reference state                gsolv [1 M gas/solution]
        Free energy shift                  1.8574E-03 Eh       1.1656E+00 kcal/mol
        Temperature                        2.9815E+02 K
        Density                            1.0000E+00 kg/L
        Solvent mass                       1.8000E+01 g/mol
        Interaction kernel             Still
        Born radius scaling (c1)           1.5524E+00
        Born radii integrator          GBOBC
        Born offset                        2.4628E-02 a0       4.6540E-02 AA
        H-bond correction              true
        Ion screening                  false
        Surface tension                    1.0000E-05 Eh       1.5569E+01 dyn/cm
        Grid points                               230 per atom

          ...................................................
          :                      SETUP                      :
          :.................................................:
          :  # basis functions                1062          :
          :  # atomic orbitals                1062          :
          :  # shells                          708          :
          :  # electrons                      1416          :
          :  max. iterations                   250          :
          :  Hamiltonian                  GFN2-xTB          :
          :  restarted?                      false          :
          :  GBSA solvation                   true          :
          :  PC potential                    false          :
          :  electronic temp.          300.0000000     K    :
          :  accuracy                    1.0000000          :
          :  -> integral cutoff          0.2500000E+02      :
          :  -> integral neglect         0.1000000E-07      :
          :  -> SCF convergence          0.1000000E-05 Eh   :
          :  -> wf. convergence          0.1000000E-03 e    :
          :  Broyden damping             0.4000000          :
          ...................................................

 iter      E             dE          RMSdq      gap      omega  full diag
   1   -906.7513917 -0.906751E+03  0.408E+00    8.64       0.0  T
   2   -906.8131814 -0.617897E-01  0.241E+00    8.32       1.0  T
   3   -906.8387914 -0.256099E-01  0.229E-01    7.23       1.0  T
   4   -906.8427362 -0.394486E-02  0.500E-02    7.51       1.0  T
   5   -906.8428789 -0.142640E-03  0.314E-02    7.44       1.0  T
   6   -906.8429123 -0.334250E-04  0.342E-03    7.45       1.3  T
   7   -906.8429132 -0.947592E-06  0.878E-04    7.45       4.9  T
   8   -906.8429133 -0.433292E-07  0.475E-04    7.45       9.1  T

   *** convergence criteria satisfied after 8 iterations ***

         #    Occupation            Energy/Eh            Energy/eV
      -------------------------------------------------------------
         1        2.0000           -0.6568549             -17.8739
       ...           ...                  ...                  ...
       702        2.0000           -0.3446124              -9.3774
       703        2.0000           -0.3439422              -9.3591
       704        2.0000           -0.3430165              -9.3340
       705        2.0000           -0.3405569              -9.2670
       706        2.0000           -0.3351684              -9.1204
       707        2.0000           -0.3347208              -9.1082
       708        2.0000           -0.3237470              -8.8096 (HOMO)
       709                         -0.0499775              -1.3600 (LUMO)
       710                         -0.0409779              -1.1151
       711                         -0.0283714              -0.7720
       712                         -0.0255400              -0.6950
       713                         -0.0199707              -0.5434
       ...                                ...                  ...
      1062                          0.4804599              13.0740
      -------------------------------------------------------------
                  HL-Gap            0.2737695 Eh            7.4496 eV
             Fermi-level           -0.1868622 Eh           -5.0848 eV

 SCC (total)                   0 d,  0 h,  0 min,  8.571 sec
 SCC setup                      ...        0 min,  0.061 sec (  0.717%)
 Dispersion                     ...        0 min,  0.054 sec (  0.628%)
 classical contributions        ...        0 min,  0.012 sec (  0.134%)
 integral evaluation            ...        0 min,  0.320 sec (  3.739%)
 iterations                     ...        0 min,  3.327 sec ( 38.817%)
 molecular gradient             ...        0 min,  4.769 sec ( 55.641%)
 printout                       ...        0 min,  0.028 sec (  0.325%)

         :::::::::::::::::::::::::::::::::::::::::::::::::::::
         ::                     SUMMARY                     ::
         :::::::::::::::::::::::::::::::::::::::::::::::::::::
         :: total energy            -901.388511864130 Eh    ::
         :: total w/o Gsasa/hb      -901.195982908772 Eh    ::
         :: gradient norm              0.101989374490 Eh/a0 ::
         :: HOMO-LUMO gap              7.449647691422 eV    ::
         ::.................................................::
         :: SCC energy              -906.842913274440 Eh    ::
         :: -> isotropic ES            5.266453165674 Eh    ::
         :: -> anisotropic ES         -1.117692896179 Eh    ::
         :: -> anisotropic XC         -0.086867000510 Eh    ::
         :: -> dispersion             -0.529362278381 Eh    ::
         :: -> Gsolv                  -0.222909523110 Eh    ::
         ::    -> Gelec               -0.030380567752 Eh    ::
         ::    -> Gsasa                0.003555874875 Eh    ::
         ::    -> Ghb                 -0.197942273360 Eh    ::
         ::    -> Gshift               0.001857443127 Eh    ::
         :: repulsion energy           5.360922166313 Eh    ::
         :: add. restraining           0.000000000000 Eh    ::
         :: total charge               0.000000000000 e     ::
         :::::::::::::::::::::::::::::::::::::::::::::::::::::

           -------------------------------------------------
          |                Property Printout                |
           -------------------------------------------------

    * Orbital Energies and Occupations

         #    Occupation            Energy/Eh            Energy/eV
      -------------------------------------------------------------
         1        2.0000           -0.6568549             -17.8739
       ...           ...                  ...                  ...
       696        2.0000           -0.3520453              -9.5796
       697        2.0000           -0.3511225              -9.5545
       698        2.0000           -0.3500195              -9.5245
       699        2.0000           -0.3492319              -9.5031
       700        2.0000           -0.3472323              -9.4487
       701        2.0000           -0.3458378              -9.4107
       702        2.0000           -0.3446124              -9.3774
       703        2.0000           -0.3439422              -9.3591
       704        2.0000           -0.3430165              -9.3340
       705        2.0000           -0.3405569              -9.2670
       706        2.0000           -0.3351684              -9.1204
       707        2.0000           -0.3347208              -9.1082
       708        2.0000           -0.3237470              -8.8096 (HOMO)
       709                         -0.0499775              -1.3600 (LUMO)
       710                         -0.0409779              -1.1151
       711                         -0.0283714              -0.7720
       712                         -0.0255400              -0.6950
       713                         -0.0199707              -0.5434
       714                         -0.0111331              -0.3029
       715                         -0.0089001              -0.2422
       716                         -0.0002419              -0.0066
       717                          0.0015473               0.0421
       718                          0.0077126               0.2099
       719                          0.0105170               0.2862
       ...                                ...                  ...
      1062                          0.4804599              13.0740
      -------------------------------------------------------------
                  HL-Gap            0.2737695 Eh            7.4496 eV
             Fermi-level           -0.1868622 Eh           -5.0848 eV

     #   Z          covCN         q      C6AA      α(0)
     1   8 o        1.608    -0.673    26.994     7.012
     2   1 h        0.805     0.333     0.629     1.245
     3   1 h        0.803     0.348     0.593     1.210
     4   8 o        1.608    -0.669    26.897     7.000
     5   1 h        0.804     0.327     0.645     1.261
     6   1 h        0.803     0.349     0.591     1.207
     7   8 o        1.609    -0.669    26.911     7.002
     8   1 h        0.805     0.317     0.672     1.288
     9   1 h        0.804     0.327     0.645     1.262
    10   8 o        1.607    -0.681    27.205     7.040
    11   1 h        0.804     0.338     0.616     1.233
    12   1 h        0.803     0.350     0.589     1.206
    13   8 o        1.608    -0.673    27.014     7.015
    14   1 h        0.804     0.333     0.631     1.247
    15   1 h        0.804     0.360     0.565     1.181
    16   8 o        1.608    -0.668    26.867     6.996
    17   1 h        0.804     0.325     0.650     1.267
    18   1 h        0.805     0.338     0.616     1.233
    19   8 o        1.606    -0.685    27.320     7.054
    20   1 h        0.803     0.349     0.590     1.207
    21   1 h        0.804     0.351     0.586     1.202
    22   8 o        1.606    -0.713    28.069     7.150
    23   1 h        0.803     0.359     0.567     1.183
    24   1 h        0.804     0.345     0.600     1.217
    25   8 o        1.607    -0.673    27.006     7.014
    26   1 h        0.803     0.348     0.594     1.210
    27   1 h        0.804     0.328     0.642     1.258
    28   8 o        1.606    -0.684    27.287     7.050
    29   1 h        0.803     0.329     0.640     1.257
    30   1 h        0.803     0.353     0.581     1.197
    31   8 o        1.605    -0.704    27.813     7.118
    32   1 h        0.804     0.350     0.589     1.206
    33   1 h        0.802     0.345     0.599     1.216
    34   8 o        1.607    -0.672    26.986     7.011
    35   1 h        0.804     0.337     0.619     1.236
    36   1 h        0.803     0.336     0.621     1.238
    37   8 o        1.610    -0.663    26.756     6.981
    38   1 h        0.804     0.342     0.609     1.225
    39   1 h        0.804     0.322     0.659     1.275
    40   8 o        1.607    -0.687    27.372     7.061
    41   1 h        0.803     0.348     0.593     1.209
    42   1 h        0.804     0.340     0.611     1.228
    43   8 o        1.606    -0.693    27.522     7.080
    44   1 h        0.803     0.349     0.590     1.207
    45   1 h        0.803     0.336     0.623     1.240
    46   8 o        1.609    -0.661    26.700     6.974
    47   1 h        0.803     0.347     0.596     1.213
    48   1 h        0.806     0.317     0.671     1.286
    49   8 o        1.610    -0.680    27.179     7.036
    50   1 h        0.804     0.334     0.627     1.244
    51   1 h        0.804     0.349     0.591     1.207
    52   8 o        1.608    -0.675    27.045     7.019
    53   1 h        0.804     0.341     0.609     1.225
    54   1 h        0.803     0.334     0.628     1.245
    55   8 o        1.607    -0.673    27.010     7.014
    56   1 h        0.803     0.328     0.643     1.259
    57   1 h        0.804     0.324     0.652     1.269
    58   8 o        1.606    -0.704    27.828     7.120
    59   1 h        0.803     0.350     0.588     1.205
    60   1 h        0.803     0.347     0.595     1.211
    61   8 o        1.607    -0.668    26.883     6.998
    62   1 h        0.804     0.329     0.640     1.256
    63   1 h        0.803     0.340     0.611     1.228
    64   8 o        1.609    -0.666    26.833     6.991
    65   1 h        0.804     0.343     0.606     1.223
    66   1 h        0.805     0.322     0.659     1.275
    67   8 o        1.603    -0.703    27.807     7.117
    68   1 h        0.802     0.324     0.654     1.270
    69   1 h        0.802     0.354     0.579     1.195
    70   8 o        1.605    -0.687    27.372     7.061
    71   1 h        0.803     0.331     0.636     1.253
    72   1 h        0.802     0.358     0.570     1.186
    73   8 o        1.608    -0.683    27.263     7.047
    74   1 h        0.805     0.340     0.613     1.230
    75   1 h        0.803     0.345     0.600     1.217
    76   8 o        1.608    -0.675    27.055     7.020
    77   1 h        0.804     0.333     0.631     1.248
    78   1 h        0.805     0.324     0.652     1.268
    79   8 o        1.608    -0.661    26.696     6.973
    80   1 h        0.804     0.362     0.562     1.177
    81   1 h        0.803     0.333     0.629     1.246
    82   8 o        1.607    -0.687    27.368     7.061
    83   1 h        0.804     0.325     0.651     1.267
    84   1 h        0.803     0.355     0.577     1.193
    85   8 o        1.604    -0.698    27.667     7.099
    86   1 h        0.802     0.364     0.556     1.171
    87   1 h        0.804     0.329     0.640     1.256
    88   8 o        1.606    -0.678    27.146     7.032
    89   1 h        0.801     0.353     0.581     1.198
    90   1 h        0.806     0.308     0.696     1.311
    91   8 o        1.606    -0.688    27.392     7.064
    92   1 h        0.804     0.329     0.639     1.256
    93   1 h        0.803     0.332     0.633     1.250
    94   8 o        1.608    -0.673    26.994     7.012
    95   1 h        0.804     0.334     0.626     1.243
    96   1 h        0.804     0.344     0.602     1.218
    97   8 o        1.608    -0.691    27.463     7.073
    98   1 h        0.804     0.337     0.620     1.237
    99   1 h        0.804     0.338     0.616     1.233
   100   8 o        1.607    -0.672    26.989     7.012
   101   1 h        0.804     0.334     0.627     1.243
   102   1 h        0.803     0.328     0.642     1.259
   103   8 o        1.608    -0.663    26.748     6.980
   104   1 h        0.803     0.343     0.606     1.222
   105   1 h        0.804     0.333     0.629     1.246
   106   8 o        1.610    -0.645    26.299     6.921
   107   1 h        0.805     0.325     0.650     1.266
   108   1 h        0.805     0.330     0.638     1.254
   109   8 o        1.608    -0.679    27.155     7.033
   110   1 h        0.804     0.330     0.636     1.253
   111   1 h        0.804     0.345     0.600     1.217
   112   8 o        1.607    -0.670    26.939     7.005
   113   1 h        0.804     0.349     0.590     1.207
   114   1 h        0.802     0.337     0.620     1.237
   115   8 o        1.607    -0.677    27.101     7.026
   116   1 h        0.802     0.353     0.581     1.197
   117   1 h        0.804     0.343     0.605     1.222
   118   8 o        1.606    -0.686    27.330     7.056
   119   1 h        0.803     0.351     0.585     1.202
   120   1 h        0.802     0.330     0.638     1.255
   121   8 o        1.610    -0.696    27.598     7.090
   122   1 h        0.804     0.331     0.635     1.252
   123   1 h        0.804     0.354     0.580     1.196
   124   8 o        1.608    -0.679    27.159     7.034
   125   1 h        0.804     0.316     0.674     1.290
   126   1 h        0.804     0.342     0.609     1.225
   127   8 o        1.608    -0.678    27.131     7.030
   128   1 h        0.804     0.345     0.599     1.216
   129   1 h        0.805     0.332     0.633     1.249
   130   8 o        1.608    -0.666    26.825     6.990
   131   1 h        0.804     0.326     0.647     1.264
   132   1 h        0.804     0.340     0.613     1.229
   133   8 o        1.605    -0.693    27.535     7.082
   134   1 h        0.804     0.329     0.641     1.258
   135   1 h        0.802     0.354     0.579     1.195
   136   8 o        1.607    -0.687    27.364     7.060
   137   1 h        0.804     0.338     0.618     1.235
   138   1 h        0.803     0.343     0.605     1.222
   139   8 o        1.608    -0.649    26.394     6.934
   140   1 h        0.803     0.355     0.577     1.194
   141   1 h        0.806     0.296     0.732     1.344
   142   8 o        1.608    -0.670    26.932     7.004
   143   1 h        0.805     0.335     0.625     1.241
   144   1 h        0.804     0.351     0.586     1.203
   145   8 o        1.609    -0.662    26.706     6.975
   146   1 h        0.804     0.337     0.620     1.237
   147   1 h        0.805     0.334     0.628     1.244
   148   8 o        1.608    -0.683    27.263     7.047
   149   1 h        0.804     0.336     0.622     1.239
   150   1 h        0.804     0.339     0.615     1.232
   151   8 o        1.607    -0.682    27.243     7.044
   152   1 h        0.803     0.346     0.598     1.215
   153   1 h        0.803     0.324     0.652     1.269
   154   8 o        1.608    -0.676    27.080     7.023
   155   1 h        0.805     0.319     0.667     1.283
   156   1 h        0.803     0.348     0.594     1.211
   157   8 o        1.608    -0.660    26.672     6.970
   158   1 h        0.803     0.333     0.629     1.246
   159   1 h        0.805     0.340     0.612     1.228
   160   8 o        1.608    -0.692    27.498     7.077
   161   1 h        0.804     0.330     0.637     1.253
   162   1 h        0.804     0.341     0.610     1.226
   163   8 o        1.607    -0.664    26.776     6.984
   164   1 h        0.803     0.343     0.604     1.221
   165   1 h        0.803     0.337     0.620     1.237
   166   8 o        1.606    -0.675    27.058     7.020
   167   1 h        0.803     0.354     0.579     1.195
   168   1 h        0.803     0.324     0.653     1.269
   169   8 o        1.608    -0.686    27.347     7.058
   170   1 h        0.804     0.326     0.647     1.263
   171   1 h        0.804     0.341     0.609     1.226
   172   8 o        1.609    -0.677    27.115     7.028
   173   1 h        0.804     0.344     0.603     1.220
   174   1 h        0.804     0.330     0.637     1.254
   175   8 o        1.607    -0.692    27.497     7.077
   176   1 h        0.804     0.349     0.590     1.206
   177   1 h        0.803     0.341     0.611     1.228
   178   8 o        1.606    -0.661    26.705     6.975
   179   1 h        0.802     0.347     0.596     1.212
   180   1 h        0.806     0.315     0.676     1.292
   181   8 o        1.606    -0.676    27.094     7.025
   182   1 h        0.803     0.334     0.628     1.245
   183   1 h        0.804     0.336     0.623     1.240
   184   8 o        1.607    -0.661    26.687     6.972
   185   1 h        0.803     0.335     0.625     1.242
   186   1 h        0.804     0.348     0.592     1.209
   187   8 o        1.609    -0.663    26.740     6.979
   188   1 h        0.805     0.325     0.650     1.267
   189   1 h        0.804     0.338     0.616     1.233
   190   8 o        1.609    -0.650    26.409     6.936
   191   1 h        0.804     0.332     0.632     1.249
   192   1 h        0.805     0.328     0.644     1.260
   193   8 o        1.609    -0.678    27.135     7.030
   194   1 h        0.804     0.341     0.611     1.227
   195   1 h        0.805     0.329     0.640     1.257
   196   8 o        1.608    -0.665    26.793     6.986
   197   1 h        0.804     0.326     0.649     1.265
   198   1 h        0.804     0.343     0.606     1.223
   199   8 o        1.608    -0.678    27.122     7.029
   200   1 h        0.805     0.351     0.586     1.202
   201   1 h        0.803     0.352     0.584     1.201
   202   8 o        1.609    -0.654    26.520     6.950
   203   1 h        0.804     0.344     0.604     1.220
   204   1 h        0.805     0.331     0.634     1.251
   205   8 o        1.608    -0.683    27.261     7.047
   206   1 h        0.805     0.322     0.658     1.274
   207   1 h        0.803     0.351     0.586     1.203
   208   8 o        1.608    -0.685    27.320     7.054
   209   1 h        0.804     0.342     0.606     1.223
   210   1 h        0.804     0.336     0.622     1.239
   211   8 o        1.606    -0.691    27.475     7.074
   212   1 h        0.802     0.363     0.560     1.176
   213   1 h        0.805     0.319     0.668     1.283
   214   8 o        1.608    -0.665    26.793     6.986
   215   1 h        0.803     0.328     0.643     1.260
   216   1 h        0.805     0.350     0.589     1.205
   217   8 o        1.607    -0.667    26.857     6.994
   218   1 h        0.804     0.329     0.641     1.257
   219   1 h        0.803     0.353     0.582     1.198
   220   8 o        1.608    -0.672    26.965     7.008
   221   1 h        0.803     0.360     0.565     1.181
   222   1 h        0.806     0.308     0.697     1.312
   223   8 o        1.607    -0.678    27.133     7.030
   224   1 h        0.802     0.366     0.553     1.168
   225   1 h        0.806     0.309     0.694     1.308
   226   8 o        1.609    -0.664    26.781     6.984
   227   1 h        0.805     0.351     0.585     1.201
   228   1 h        0.804     0.332     0.631     1.248
   229   8 o        1.607    -0.686    27.337     7.057
   230   1 h        0.803     0.347     0.594     1.211
   231   1 h        0.804     0.341     0.610     1.227
   232   8 o        1.609    -0.668    26.862     6.995
   233   1 h        0.805     0.334     0.626     1.243
   234   1 h        0.804     0.344     0.603     1.219
   235   8 o        1.606    -0.692    27.504     7.078
   236   1 h        0.803     0.324     0.653     1.269
   237   1 h        0.803     0.353     0.582     1.198
   238   8 o        1.607    -0.692    27.508     7.079
   239   1 h        0.803     0.350     0.588     1.204
   240   1 h        0.804     0.347     0.595     1.212
   241   8 o        1.604    -0.698    27.658     7.098
   242   1 h        0.803     0.327     0.645     1.262
   243   1 h        0.801     0.360     0.565     1.181
   244   8 o        1.604    -0.717    28.172     7.163
   245   1 h        0.803     0.331     0.636     1.253
   246   1 h        0.802     0.359     0.569     1.185
   247   8 o        1.608    -0.687    27.379     7.062
   248   1 h        0.804     0.333     0.629     1.245
   249   1 h        0.804     0.342     0.608     1.224
   250   8 o        1.608    -0.684    27.280     7.049
   251   1 h        0.803     0.341     0.610     1.227
   252   1 h        0.803     0.331     0.634     1.251
   253   8 o        1.605    -0.687    27.375     7.061
   254   1 h        0.803     0.345     0.601     1.218
   255   1 h        0.802     0.340     0.612     1.229
   256   8 o        1.608    -0.671    26.947     7.006
   257   1 h        0.804     0.336     0.621     1.238
   258   1 h        0.803     0.341     0.611     1.228
   259   8 o        1.608    -0.660    26.668     6.970
   260   1 h        0.803     0.353     0.581     1.197
   261   1 h        0.805     0.333     0.631     1.247
   262   8 o        1.609    -0.660    26.667     6.970
   263   1 h        0.805     0.322     0.659     1.275
   264   1 h        0.804     0.341     0.609     1.226
   265   8 o        1.610    -0.676    27.080     7.023
   266   1 h        0.803     0.351     0.586     1.202
   267   1 h        0.805     0.334     0.627     1.243
   268   8 o        1.607    -0.679    27.164     7.034
   269   1 h        0.803     0.345     0.601     1.218
   270   1 h        0.804     0.317     0.673     1.288
   271   8 o        1.607    -0.660    26.663     6.969
   272   1 h        0.803     0.328     0.642     1.258
   273   1 h        0.804     0.330     0.638     1.255
   274   8 o        1.607    -0.665    26.799     6.987
   275   1 h        0.804     0.334     0.628     1.245
   276   1 h        0.803     0.356     0.574     1.190
   277   8 o        1.609    -0.654    26.506     6.949
   278   1 h        0.804     0.329     0.639     1.255
   279   1 h        0.805     0.336     0.623     1.240
   280   8 o        1.608    -0.686    27.338     7.057
   281   1 h        0.804     0.337     0.620     1.237
   282   1 h        0.804     0.325     0.650     1.266
   283   8 o        1.609    -0.675    27.052     7.020
   284   1 h        0.804     0.338     0.617     1.234
   285   1 h        0.804     0.338     0.617     1.234
   286   8 o        1.610    -0.652    26.453     6.942
   287   1 h        0.804     0.342     0.607     1.224
   288   1 h        0.806     0.305     0.706     1.320
   289   8 o        1.606    -0.671    26.962     7.008
   290   1 h        0.805     0.332     0.632     1.249
   291   1 h        0.802     0.340     0.613     1.230
   292   8 o        1.607    -0.681    27.206     7.040
   293   1 h        0.802     0.347     0.595     1.211
   294   1 h        0.805     0.319     0.668     1.283
   295   8 o        1.609    -0.669    26.889     6.999
   296   1 h        0.804     0.352     0.583     1.200
   297   1 h        0.804     0.353     0.581     1.197
   298   8 o        1.610    -0.657    26.588     6.959
   299   1 h        0.805     0.329     0.640     1.256
   300   1 h        0.805     0.331     0.636     1.253
   301   8 o        1.609    -0.654    26.520     6.950
   302   1 h        0.804     0.338     0.618     1.235
   303   1 h        0.805     0.320     0.665     1.281
   304   8 o        1.608    -0.693    27.527     7.081
   305   1 h        0.804     0.352     0.583     1.199
   306   1 h        0.804     0.349     0.591     1.207
   307   8 o        1.608    -0.674    27.017     7.015
   308   1 h        0.805     0.319     0.666     1.282
   309   1 h        0.803     0.328     0.642     1.259
   310   8 o        1.606    -0.686    27.337     7.057
   311   1 h        0.804     0.347     0.595     1.212
   312   1 h        0.802     0.352     0.584     1.201
   313   8 o        1.607    -0.684    27.284     7.050
   314   1 h        0.803     0.338     0.617     1.234
   315   1 h        0.804     0.330     0.638     1.255
   316   8 o        1.607    -0.692    27.500     7.078
   317   1 h        0.803     0.335     0.625     1.242
   318   1 h        0.804     0.343     0.606     1.222
   319   8 o        1.607    -0.679    27.159     7.034
   320   1 h        0.803     0.342     0.608     1.225
   321   1 h        0.805     0.326     0.648     1.264
   322   8 o        1.607    -0.669    26.894     6.999
   323   1 h        0.802     0.331     0.634     1.251
   324   1 h        0.805     0.325     0.649     1.266
   325   8 o        1.607    -0.678    27.125     7.029
   326   1 h        0.803     0.333     0.631     1.247
   327   1 h        0.803     0.350     0.588     1.205
   328   8 o        1.607    -0.666    26.832     6.991
   329   1 h        0.802     0.345     0.601     1.218
   330   1 h        0.805     0.329     0.641     1.258
   331   8 o        1.606    -0.696    27.608     7.091
   332   1 h        0.804     0.336     0.622     1.239
   333   1 h        0.802     0.363     0.560     1.175
   334   8 o        1.609    -0.669    26.904     7.001
   335   1 h        0.804     0.330     0.638     1.254
   336   1 h        0.805     0.329     0.639     1.256
   337   8 o        1.609    -0.674    27.030     7.017
   338   1 h        0.804     0.344     0.604     1.220
   339   1 h        0.805     0.336     0.622     1.239
   340   8 o        1.607    -0.682    27.246     7.045
   341   1 h        0.802     0.363     0.559     1.175
   342   1 h        0.806     0.312     0.685     1.300
   343   8 o        1.608    -0.671    26.944     7.006
   344   1 h        0.804     0.344     0.601     1.218
   345   1 h        0.803     0.325     0.650     1.267
   346   8 o        1.610    -0.631    25.943     6.874
   347   1 h        0.805     0.322     0.657     1.274
   348   1 h        0.805     0.328     0.641     1.258
   349   8 o        1.607    -0.669    26.892     6.999
   350   1 h        0.804     0.343     0.605     1.222
   351   1 h        0.803     0.340     0.612     1.229
   352   8 o        1.606    -0.681    27.212     7.040
   353   1 h        0.805     0.324     0.654     1.270
   354   1 h        0.802     0.354     0.580     1.197
   355   8 o        1.609    -0.676    27.083     7.024
   356   1 h        0.804     0.336     0.622     1.239
   357   1 h        0.804     0.336     0.621     1.238
   358   8 o        1.606    -0.694    27.548     7.084
   359   1 h        0.804     0.335     0.623     1.240
   360   1 h        0.802     0.341     0.610     1.227
   361   8 o        1.608    -0.680    27.190     7.038
   362   1 h        0.804     0.336     0.623     1.240
   363   1 h        0.804     0.336     0.622     1.239
   364   8 o        1.607    -0.689    27.416     7.067
   365   1 h        0.804     0.322     0.658     1.274
   366   1 h        0.803     0.355     0.576     1.192
   367   8 o        1.604    -0.670    26.920     7.002
   368   1 h        0.806     0.315     0.676     1.292
   369   1 h        0.802     0.350     0.590     1.206
   370   8 o        1.605    -0.682    27.237     7.044
   371   1 h        0.802     0.360     0.565     1.181
   372   1 h        0.806     0.308     0.698     1.313
   373   8 o        1.607    -0.669    26.911     7.001
   374   1 h        0.802     0.329     0.641     1.257
   375   1 h        0.805     0.332     0.633     1.250
   376   8 o        1.607    -0.675    27.049     7.019
   377   1 h        0.804     0.332     0.632     1.249
   378   1 h        0.802     0.361     0.563     1.178
   379   8 o        1.610    -0.654    26.522     6.951
   380   1 h        0.805     0.329     0.640     1.256
   381   1 h        0.805     0.347     0.595     1.212
   382   8 o        1.609    -0.672    26.985     7.011
   383   1 h        0.804     0.340     0.612     1.229
   384   1 h        0.805     0.336     0.622     1.239
   385   8 o        1.606    -0.680    27.187     7.037
   386   1 h        0.803     0.352     0.584     1.201
   387   1 h        0.803     0.328     0.642     1.258
   388   8 o        1.608    -0.671    26.950     7.006
   389   1 h        0.803     0.359     0.567     1.183
   390   1 h        0.805     0.309     0.694     1.308
   391   8 o        1.609    -0.651    26.443     6.940
   392   1 h        0.803     0.340     0.611     1.228
   393   1 h        0.806     0.312     0.686     1.301
   394   8 o        1.609    -0.662    26.731     6.978
   395   1 h        0.804     0.346     0.597     1.214
   396   1 h        0.804     0.333     0.630     1.247
   397   8 o        1.609    -0.642    26.221     6.911
   398   1 h        0.806     0.309     0.695     1.309
   399   1 h        0.803     0.344     0.603     1.220
   400   8 o        1.607    -0.678    27.136     7.031
   401   1 h        0.803     0.348     0.592     1.209
   402   1 h        0.804     0.348     0.593     1.210
   403   8 o        1.605    -0.671    26.962     7.008
   404   1 h        0.802     0.334     0.627     1.244
   405   1 h        0.803     0.337     0.621     1.238
   406   8 o        1.608    -0.656    26.559     6.955
   407   1 h        0.805     0.334     0.627     1.244
   408   1 h        0.804     0.343     0.604     1.221
   409   8 o        1.608    -0.669    26.910     7.001
   410   1 h        0.805     0.338     0.618     1.234
   411   1 h        0.804     0.334     0.626     1.243
   412   8 o        1.608    -0.665    26.801     6.987
   413   1 h        0.806     0.322     0.659     1.275
   414   1 h        0.803     0.350     0.589     1.206
   415   8 o        1.609    -0.654    26.510     6.949
   416   1 h        0.803     0.334     0.628     1.245
   417   1 h        0.805     0.328     0.642     1.259
   418   8 o        1.607    -0.677    27.117     7.028
   419   1 h        0.804     0.331     0.636     1.252
   420   1 h        0.804     0.344     0.602     1.219
   421   8 o        1.607    -0.685    27.328     7.055
   422   1 h        0.804     0.329     0.641     1.257
   423   1 h        0.803     0.339     0.614     1.231
   424   8 o        1.608    -0.681    27.213     7.041
   425   1 h        0.804     0.333     0.630     1.247
   426   1 h        0.804     0.338     0.617     1.234
   427   8 o        1.608    -0.691    27.460     7.072
   428   1 h        0.804     0.338     0.617     1.234
   429   1 h        0.804     0.352     0.584     1.200
   430   8 o        1.608    -0.676    27.087     7.024
   431   1 h        0.805     0.317     0.672     1.288
   432   1 h        0.802     0.364     0.556     1.172
   433   8 o        1.608    -0.669    26.892     6.999
   434   1 h        0.806     0.315     0.679     1.294
   435   1 h        0.802     0.350     0.587     1.204
   436   8 o        1.608    -0.687    27.365     7.060
   437   1 h        0.805     0.330     0.638     1.254
   438   1 h        0.804     0.358     0.570     1.186
   439   8 o        1.609    -0.639    26.131     6.899
   440   1 h        0.806     0.318     0.669     1.285
   441   1 h        0.804     0.348     0.594     1.210
   442   8 o        1.606    -0.665    26.799     6.987
   443   1 h        0.801     0.360     0.567     1.183
   444   1 h        0.806     0.312     0.685     1.300
   445   8 o        1.608    -0.657    26.592     6.960
   446   1 h        0.806     0.316     0.676     1.291
   447   1 h        0.802     0.343     0.605     1.222
   448   8 o        1.608    -0.657    26.588     6.959
   449   1 h        0.805     0.328     0.641     1.258
   450   1 h        0.803     0.339     0.616     1.233
   451   8 o        1.607    -0.677    27.106     7.027
   452   1 h        0.805     0.313     0.684     1.299
   453   1 h        0.802     0.365     0.555     1.170
   454   8 o        1.606    -0.692    27.502     7.078
   455   1 h        0.802     0.338     0.617     1.234
   456   1 h        0.804     0.334     0.626     1.243
   457   8 o        1.606    -0.680    27.189     7.037
   458   1 h        0.801     0.355     0.578     1.194
   459   1 h        0.806     0.312     0.685     1.300
   460   8 o        1.606    -0.697    27.635     7.095
   461   1 h        0.801     0.355     0.576     1.193
   462   1 h        0.805     0.313     0.683     1.298
   463   8 o        1.608    -0.693    27.514     7.079
   464   1 h        0.803     0.349     0.591     1.208
   465   1 h        0.804     0.341     0.611     1.228
   466   8 o        1.606    -0.698    27.662     7.098
   467   1 h        0.805     0.316     0.675     1.290
   468   1 h        0.802     0.358     0.570     1.186
   469   8 o        1.609    -0.668    26.876     6.997
   470   1 h        0.805     0.338     0.618     1.235
   471   1 h        0.805     0.333     0.628     1.245
   472   8 o        1.612    -0.666    26.827     6.991
   473   1 h        0.804     0.343     0.604     1.221
   474   1 h        0.804     0.346     0.598     1.214
   475   8 o        1.605    -0.674    27.020     7.015
   476   1 h        0.803     0.338     0.617     1.233
   477   1 h        0.802     0.346     0.597     1.214
   478   8 o        1.605    -0.687    27.369     7.061
   479   1 h        0.804     0.333     0.630     1.247
   480   1 h        0.802     0.330     0.638     1.255
   481   8 o        1.605    -0.708    27.918     7.131
   482   1 h        0.804     0.333     0.629     1.246
   483   1 h        0.802     0.364     0.557     1.173
   484   8 o        1.608    -0.665    26.785     6.985
   485   1 h        0.804     0.344     0.602     1.219
   486   1 h        0.804     0.325     0.650     1.266
   487   8 o        1.606    -0.682    27.237     7.044
   488   1 h        0.802     0.364     0.557     1.173
   489   1 h        0.804     0.327     0.645     1.261
   490   8 o        1.608    -0.671    26.941     7.005
   491   1 h        0.804     0.338     0.617     1.234
   492   1 h        0.803     0.339     0.615     1.232
   493   8 o        1.610    -0.653    26.483     6.946
   494   1 h        0.804     0.342     0.608     1.225
   495   1 h        0.805     0.333     0.629     1.246
   496   8 o        1.608    -0.649    26.391     6.934
   497   1 h        0.802     0.347     0.596     1.213
   498   1 h        0.806     0.314     0.681     1.296
   499   8 o        1.609    -0.683    27.274     7.048
   500   1 h        0.803     0.355     0.577     1.193
   501   1 h        0.805     0.310     0.690     1.305
   502   8 o        1.608    -0.685    27.311     7.053
   503   1 h        0.804     0.354     0.580     1.196
   504   1 h        0.805     0.326     0.647     1.264
   505   8 o        1.609    -0.669    26.908     7.001
   506   1 h        0.804     0.352     0.583     1.199
   507   1 h        0.804     0.325     0.650     1.266
   508   8 o        1.608    -0.664    26.763     6.982
   509   1 h        0.804     0.337     0.620     1.237
   510   1 h        0.805     0.330     0.639     1.255
   511   8 o        1.609    -0.670    26.936     7.005
   512   1 h        0.804     0.328     0.642     1.258
   513   1 h        0.804     0.334     0.628     1.245
   514   8 o        1.609    -0.663    26.757     6.981
   515   1 h        0.803     0.353     0.580     1.197
   516   1 h        0.806     0.322     0.658     1.274
   517   8 o        1.609    -0.657    26.595     6.960
   518   1 h        0.806     0.321     0.660     1.276
   519   1 h        0.803     0.355     0.577     1.193
   520   8 o        1.608    -0.679    27.159     7.034
   521   1 h        0.804     0.359     0.568     1.184
   522   1 h        0.804     0.327     0.646     1.263
   523   8 o        1.607    -0.688    27.403     7.065
   524   1 h        0.806     0.312     0.686     1.301
   525   1 h        0.802     0.353     0.582     1.199
   526   8 o        1.610    -0.632    25.954     6.876
   527   1 h        0.805     0.329     0.639     1.256
   528   1 h        0.805     0.332     0.632     1.248
   529   8 o        1.611    -0.649    26.390     6.933
   530   1 h        0.805     0.326     0.649     1.265
   531   1 h        0.806     0.311     0.688     1.303

 Mol. C6AA /au·bohr⁶  :    1428456.182222
 Mol. C8AA /au·bohr⁸  :   25902598.759194
 Mol. α(0) /au        :       1680.078204


Wiberg/Mayer (AO) data.
largest (>0.10) Wiberg bond orders for each atom

 ---------------------------------------------------------------------------
     #   Z sym  total        # sym  WBO       # sym  WBO       # sym  WBO
 ---------------------------------------------------------------------------
     1   8 o    1.839 --     2 h    0.859     3 h    0.815
     2   1 h    0.889 --     1 o    0.859
     3   1 h    0.879 --     1 o    0.815
     4   8 o    1.874 --     5 h    0.842     6 h    0.814
     5   1 h    0.893 --     4 o    0.842
     6   1 h    0.878 --     4 o    0.814
     7   8 o    1.812 --     8 h    0.852     9 h    0.844
     8   1 h    0.899 --     7 o    0.852
     9   1 h    0.893 --     7 o    0.844
    10   8 o    1.855 --    11 h    0.843    12 h    0.801
    11   1 h    0.885 --    10 o    0.843
    12   1 h    0.878 --    10 o    0.801
    13   8 o    1.870 --    14 h    0.835    15 h    0.814
    14   1 h    0.889 --    13 o    0.835
    15   1 h    0.870 --    13 o    0.814
    16   8 o    1.842 --    18 h    0.845    17 h    0.833
    17   1 h    0.894 --    16 o    0.833
    18   1 h    0.885 --    16 o    0.845
    19   8 o    1.868 --    21 h    0.827    20 h    0.804
    20   1 h    0.878 --    19 o    0.804
    21   1 h    0.877 --    19 o    0.827
    22   8 o    1.846 --    24 h    0.815    23 h    0.774
    23   1 h    0.871 --    22 o    0.774
    24   1 h    0.881 --    22 o    0.815
    25   8 o    1.874 --    27 h    0.852    26 h    0.784
    26   1 h    0.879 --    25 o    0.784
    27   1 h    0.892 --    25 o    0.852
    28   8 o    1.882 --    29 h    0.828    30 h    0.776
    29   1 h    0.892 --    28 o    0.828
    30   1 h    0.875 --    28 o    0.776
    31   8 o    1.845 --    32 h    0.808    33 h    0.802
    32   1 h    0.878 --    31 o    0.808
    33   1 h    0.881 --    31 o    0.802
    34   8 o    1.875 --    35 h    0.831    36 h    0.813
    35   1 h    0.886 --    34 o    0.831
    36   1 h    0.887 --    34 o    0.813
    37   8 o    1.865 --    39 h    0.850    38 h    0.822
    38   1 h    0.883 --    37 o    0.822
    39   1 h    0.896 --    37 o    0.850
    40   8 o    1.876 --    42 h    0.826    41 h    0.785
    41   1 h    0.879 --    40 o    0.785
    42   1 h    0.884 --    40 o    0.826
    43   8 o    1.844 --    45 h    0.828    44 h    0.800
    44   1 h    0.878 --    43 o    0.800
    45   1 h    0.887 --    43 o    0.828
    46   8 o    1.830 --    48 h    0.894    47 h    0.818
    47   1 h    0.880 --    46 o    0.818
    48   1 h    0.899 --    46 o    0.894
    49   8 o    1.853 --    50 h    0.828    51 h    0.826
    50   1 h    0.888 --    49 o    0.828
    51   1 h    0.878 --    49 o    0.826
    52   8 o    1.854 --    53 h    0.833    54 h    0.825
    53   1 h    0.883 --    52 o    0.833
    54   1 h    0.889 --    52 o    0.825
    55   8 o    1.842 --    57 h    0.850    56 h    0.825
    56   1 h    0.892 --    55 o    0.825
    57   1 h    0.895 --    55 o    0.850
    58   8 o    1.846 --    60 h    0.806    59 h    0.796
    59   1 h    0.877 --    58 o    0.796
    60   1 h    0.879 --    58 o    0.806
    61   8 o    1.860 --    62 h    0.845    63 h    0.818
    62   1 h    0.892 --    61 o    0.845
    63   1 h    0.884 --    61 o    0.818
    64   8 o    1.837 --    66 h    0.859    65 h    0.828
    65   1 h    0.883 --    64 o    0.828
    66   1 h    0.896 --    64 o    0.859
    67   8 o    1.849 --    68 h    0.810    69 h    0.788
    68   1 h    0.895 --    67 o    0.810
    69   1 h    0.874 --    67 o    0.788
    70   8 o    1.878 --    71 h    0.819    72 h    0.785
    71   1 h    0.891 --    70 o    0.819
    72   1 h    0.872 --    70 o    0.785
    73   8 o    1.843 --    74 h    0.846    75 h    0.803
    74   1 h    0.885 --    73 o    0.846
    75   1 h    0.881 --    73 o    0.803
    76   8 o    1.819 --    78 h    0.850    77 h    0.835
    77   1 h    0.889 --    76 o    0.835
    78   1 h    0.895 --    76 o    0.850
    79   8 o    1.893 --    80 h    0.839    81 h    0.825
    80   1 h    0.869 --    79 o    0.839
    81   1 h    0.889 --    79 o    0.825
    82   8 o    1.842 --    83 h    0.852    84 h    0.808
    83   1 h    0.894 --    82 o    0.852
    84   1 h    0.874 --    82 o    0.808
    85   8 o    1.867 --    87 h    0.842    86 h    0.768
    86   1 h    0.867 --    85 o    0.768
    87   1 h    0.892 --    85 o    0.842
    88   8 o    1.826 --    90 h    0.895    89 h    0.777
    89   1 h    0.875 --    88 o    0.777
    90   1 h    0.905 --    88 o    0.895
    91   8 o    1.826 --    92 h    0.837    93 h    0.811
    92   1 h    0.891 --    91 o    0.837
    93   1 h    0.890 --    91 o    0.811
    94   8 o    1.847 --    95 h    0.848    96 h    0.825
    95   1 h    0.888 --    94 o    0.848
    96   1 h    0.881 --    94 o    0.825
    97   8 o    1.832 --    99 h    0.830    98 h    0.827
    98   1 h    0.887 --    97 o    0.827
    99   1 h    0.885 --    97 o    0.830
   100   8 o    1.838 --   101 h    0.834   102 h    0.830
   101   1 h    0.888 --   100 o    0.834
   102   1 h    0.892 --   100 o    0.830
   103   8 o    1.874 --   105 h    0.850   104 h    0.818
   104   1 h    0.882 --   103 o    0.818
   105   1 h    0.889 --   103 o    0.850
   106   8 o    1.848 --   107 h    0.869   108 h    0.861
   107   1 h    0.894 --   106 o    0.869
   108   1 h    0.891 --   106 o    0.861
   109   8 o    1.848 --   110 h    0.835   111 h    0.813
   110   1 h    0.891 --   109 o    0.835
   111   1 h    0.881 --   109 o    0.813
   112   8 o    1.886 --   113 h    0.826   114 h    0.810
   113   1 h    0.878 --   112 o    0.826
   114   1 h    0.886 --   112 o    0.810
   115   8 o    1.896 --   117 h    0.825   116 h    0.794
   116   1 h    0.875 --   115 o    0.794
   117   1 h    0.882 --   115 o    0.825
   118   8 o    1.868 --   120 h    0.807   119 h    0.806
   119   1 h    0.876 --   118 o    0.806
   120   1 h    0.891 --   118 o    0.807
   121   8 o    1.839 --   122 h    0.825   123 h    0.798
   122   1 h    0.890 --   121 o    0.825
   123   1 h    0.875 --   121 o    0.798
   124   8 o    1.815 --   125 h    0.853   126 h    0.818
   125   1 h    0.900 --   124 o    0.853
   126   1 h    0.883 --   124 o    0.818
   127   8 o    1.825 --   129 h    0.863   128 h    0.824
   128   1 h    0.881 --   127 o    0.824
   129   1 h    0.890 --   127 o    0.863
   130   8 o    1.847 --   131 h    0.842   132 h    0.835
   131   1 h    0.893 --   130 o    0.842
   132   1 h    0.884 --   130 o    0.835
   133   8 o    1.861 --   134 h    0.825   135 h    0.785
   134   1 h    0.892 --   133 o    0.825
   135   1 h    0.874 --   133 o    0.785
   136   8 o    1.829 --   137 h    0.840   138 h    0.814
   137   1 h    0.886 --   136 o    0.840
   138   1 h    0.882 --   136 o    0.814
   139   8 o    1.855 --   141 h    0.902   140 h    0.802
   140   1 h    0.874 --   139 o    0.802
   141   1 h    0.912 --   139 o    0.902
   142   8 o    1.857 --   143 h    0.844   144 h    0.816
   143   1 h    0.888 --   142 o    0.844
   144   1 h    0.877 --   142 o    0.816
   145   8 o    1.835 --   147 h    0.864   146 h    0.848
   146   1 h    0.887 --   145 o    0.848
   147   1 h    0.889 --   145 o    0.864
   148   8 o    1.834 --   149 h    0.840   150 h    0.837
   149   1 h    0.887 --   148 o    0.840
   150   1 h    0.885 --   148 o    0.837
   151   8 o    1.858 --   153 h    0.820   152 h    0.811
   152   1 h    0.880 --   151 o    0.811
   153   1 h    0.895 --   151 o    0.820
   154   8 o    1.820 --   155 h    0.871   156 h    0.819
   155   1 h    0.898 --   154 o    0.871
   156   1 h    0.879 --   154 o    0.819
   157   8 o    1.872 --   159 h    0.854   158 h    0.814
   158   1 h    0.889 --   157 o    0.814
   159   1 h    0.884 --   157 o    0.854
   160   8 o    1.833 --   161 h    0.826   162 h    0.814
   161   1 h    0.891 --   160 o    0.826
   162   1 h    0.884 --   160 o    0.814
   163   8 o    1.902 --   164 h    0.818   165 h    0.812
   164   1 h    0.882 --   163 o    0.818
   165   1 h    0.886 --   163 o    0.812
   166   8 o    1.871 --   168 h    0.833   167 h    0.800
   167   1 h    0.874 --   166 o    0.800
   168   1 h    0.895 --   166 o    0.833
   169   8 o    1.825 --   170 h    0.854   171 h    0.827
   170   1 h    0.893 --   169 o    0.854
   171   1 h    0.883 --   169 o    0.827
   172   8 o    1.850 --   174 h    0.846   173 h    0.832
   173   1 h    0.882 --   172 o    0.832
   174   1 h    0.891 --   172 o    0.846
   175   8 o    1.848 --   176 h    0.832   177 h    0.817
   176   1 h    0.878 --   175 o    0.832
   177   1 h    0.884 --   175 o    0.817
   178   8 o    1.858 --   180 h    0.895   179 h    0.783
   179   1 h    0.879 --   178 o    0.783
   180   1 h    0.900 --   178 o    0.895
   181   8 o    1.882 --   183 h    0.818   182 h    0.813
   182   1 h    0.889 --   181 o    0.813
   183   1 h    0.887 --   181 o    0.818
   184   8 o    1.884 --   186 h    0.839   185 h    0.832
   185   1 h    0.888 --   184 o    0.832
   186   1 h    0.879 --   184 o    0.839
   187   8 o    1.828 --   188 h    0.867   189 h    0.848
   188   1 h    0.894 --   187 o    0.867
   189   1 h    0.885 --   187 o    0.848
   190   8 o    1.856 --   192 h    0.849   191 h    0.846
   191   1 h    0.890 --   190 o    0.846
   192   1 h    0.893 --   190 o    0.849
   193   8 o    1.835 --   195 h    0.845   194 h    0.831
   194   1 h    0.884 --   193 o    0.831
   195   1 h    0.892 --   193 o    0.845
   196   8 o    1.864 --   197 h    0.835   198 h    0.835
   197   1 h    0.894 --   196 o    0.835
   198   1 h    0.883 --   196 o    0.835
   199   8 o    1.878 --   200 h    0.835   201 h    0.806
   200   1 h    0.877 --   199 o    0.835
   201   1 h    0.876 --   199 o    0.806
   202   8 o    1.859 --   204 h    0.864   203 h    0.841
   203   1 h    0.882 --   202 o    0.841
   204   1 h    0.890 --   202 o    0.864
   205   8 o    1.825 --   206 h    0.877   207 h    0.805
   206   1 h    0.896 --   205 o    0.877
   207   1 h    0.877 --   205 o    0.805
   208   8 o    1.843 --   210 h    0.825   209 h    0.819
   209   1 h    0.883 --   208 o    0.819
   210   1 h    0.887 --   208 o    0.825
   211   8 o    1.832 --   213 h    0.879   212 h    0.777
   212   1 h    0.869 --   211 o    0.777
   213   1 h    0.898 --   211 o    0.879
   214   8 o    1.870 --   216 h    0.835   215 h    0.826
   215   1 h    0.892 --   214 o    0.826
   216   1 h    0.878 --   214 o    0.835
   217   8 o    1.876 --   218 h    0.851   219 h    0.807
   218   1 h    0.892 --   217 o    0.851
   219   1 h    0.875 --   217 o    0.807
   220   8 o    1.827 --   222 h    0.893   221 h    0.803
   221   1 h    0.870 --   220 o    0.803
   222   1 h    0.905 --   220 o    0.893
   223   8 o    1.832 --   225 h    0.887   224 h    0.782
   224   1 h    0.866 --   223 o    0.782
   225   1 h    0.904 --   223 o    0.887
   226   8 o    1.855 --   227 h    0.857   228 h    0.829
   227   1 h    0.877 --   226 o    0.857
   228   1 h    0.890 --   226 o    0.829
   229   8 o    1.846 --   231 h    0.834   230 h    0.808
   230   1 h    0.879 --   229 o    0.808
   231   1 h    0.884 --   229 o    0.834
   232   8 o    1.828 --   233 h    0.870   234 h    0.844
   233   1 h    0.888 --   232 o    0.870
   234   1 h    0.882 --   232 o    0.844
   235   8 o    1.844 --   236 h    0.824   237 h    0.802
   236   1 h    0.895 --   235 o    0.824
   237   1 h    0.875 --   235 o    0.802
   238   8 o    1.856 --   240 h    0.816   239 h    0.799
   239   1 h    0.877 --   238 o    0.799
   240   1 h    0.880 --   238 o    0.816
   241   8 o    1.848 --   242 h    0.842   243 h    0.772
   242   1 h    0.893 --   241 o    0.842
   243   1 h    0.870 --   241 o    0.772
   244   8 o    1.831 --   245 h    0.820   246 h    0.779
   245   1 h    0.891 --   244 o    0.820
   246   1 h    0.871 --   244 o    0.779
   247   8 o    1.823 --   249 h    0.833   248 h    0.832
   248   1 h    0.889 --   247 o    0.832
   249   1 h    0.883 --   247 o    0.833
   250   8 o    1.860 --   252 h    0.821   251 h    0.802
   251   1 h    0.884 --   250 o    0.802
   252   1 h    0.890 --   250 o    0.821
   253   8 o    1.867 --   254 h    0.820   255 h    0.797
   254   1 h    0.881 --   253 o    0.820
   255   1 h    0.884 --   253 o    0.797
   256   8 o    1.853 --   257 h    0.848   258 h    0.824
   257   1 h    0.887 --   256 o    0.848
   258   1 h    0.884 --   256 o    0.824
   259   8 o    1.891 --   261 h    0.848   260 h    0.814
   260   1 h    0.875 --   259 o    0.814
   261   1 h    0.889 --   259 o    0.848
   262   8 o    1.832 --   263 h    0.882   264 h    0.842
   263   1 h    0.896 --   262 o    0.882
   264   1 h    0.883 --   262 o    0.842
   265   8 o    1.853 --   267 h    0.860   266 h    0.813
   266   1 h    0.877 --   265 o    0.813
   267   1 h    0.888 --   265 o    0.860
   268   8 o    1.843 --   270 h    0.848   269 h    0.798
   269   1 h    0.881 --   268 o    0.798
   270   1 h    0.900 --   268 o    0.848
   271   8 o    1.870 --   273 h    0.843   272 h    0.828
   272   1 h    0.892 --   271 o    0.828
   273   1 h    0.891 --   271 o    0.843
   274   8 o    1.899 --   275 h    0.837   276 h    0.802
   275   1 h    0.889 --   274 o    0.837
   276   1 h    0.873 --   274 o    0.802
   277   8 o    1.851 --   279 h    0.860   278 h    0.846
   278   1 h    0.891 --   277 o    0.846
   279   1 h    0.887 --   277 o    0.860
   280   8 o    1.803 --   282 h    0.838   281 h    0.832
   281   1 h    0.887 --   280 o    0.832
   282   1 h    0.894 --   280 o    0.838
   283   8 o    1.834 --   284 h    0.856   285 h    0.843
   284   1 h    0.886 --   283 o    0.856
   285   1 h    0.886 --   283 o    0.843
   286   8 o    1.807 --   288 h    0.899   287 h    0.845
   287   1 h    0.883 --   286 o    0.845
   288   1 h    0.907 --   286 o    0.899
   289   8 o    1.857 --   290 h    0.859   291 h    0.799
   290   1 h    0.890 --   289 o    0.859
   291   1 h    0.884 --   289 o    0.799
   292   8 o    1.810 --   294 h    0.875   293 h    0.804
   293   1 h    0.879 --   292 o    0.804
   294   1 h    0.898 --   292 o    0.875
   295   8 o    1.885 --   296 h    0.827   297 h    0.821
   296   1 h    0.876 --   295 o    0.827
   297   1 h    0.875 --   295 o    0.821
   298   8 o    1.816 --   299 h    0.870   300 h    0.865
   299   1 h    0.892 --   298 o    0.870
   300   1 h    0.891 --   298 o    0.865
   301   8 o    1.833 --   303 h    0.887   302 h    0.832
   302   1 h    0.886 --   301 o    0.832
   303   1 h    0.898 --   301 o    0.887
   304   8 o    1.834 --   305 h    0.835   306 h    0.834
   305   1 h    0.876 --   304 o    0.835
   306   1 h    0.878 --   304 o    0.834
   307   8 o    1.795 --   308 h    0.872   309 h    0.831
   308   1 h    0.898 --   307 o    0.872
   309   1 h    0.892 --   307 o    0.831
   310   8 o    1.894 --   311 h    0.820   312 h    0.791
   311   1 h    0.879 --   310 o    0.820
   312   1 h    0.876 --   310 o    0.791
   313   8 o    1.826 --   315 h    0.851   314 h    0.825
   314   1 h    0.886 --   313 o    0.825
   315   1 h    0.891 --   313 o    0.851
   316   8 o    1.831 --   318 h    0.828   317 h    0.822
   317   1 h    0.888 --   316 o    0.822
   318   1 h    0.883 --   316 o    0.828
   319   8 o    1.835 --   321 h    0.856   320 h    0.816
   320   1 h    0.883 --   319 o    0.816
   321   1 h    0.894 --   319 o    0.856
   322   8 o    1.845 --   324 h    0.851   323 h    0.821
   323   1 h    0.890 --   322 o    0.821
   324   1 h    0.894 --   322 o    0.851
   325   8 o    1.895 --   326 h    0.818   327 h    0.800
   326   1 h    0.889 --   325 o    0.818
   327   1 h    0.877 --   325 o    0.800
   328   8 o    1.854 --   330 h    0.865   329 h    0.817
   329   1 h    0.881 --   328 o    0.817
   330   1 h    0.892 --   328 o    0.865
   331   8 o    1.853 --   332 h    0.827   333 h    0.791
   332   1 h    0.887 --   331 o    0.827
   333   1 h    0.868 --   331 o    0.791
   334   8 o    1.817 --   336 h    0.857   335 h    0.843
   335   1 h    0.891 --   334 o    0.843
   336   1 h    0.892 --   334 o    0.857
   337   8 o    1.832 --   339 h    0.860   338 h    0.839
   338   1 h    0.882 --   337 o    0.839
   339   1 h    0.887 --   337 o    0.860
   340   8 o    1.827 --   342 h    0.892   341 h    0.777
   341   1 h    0.868 --   340 o    0.777
   342   1 h    0.902 --   340 o    0.892
   343   8 o    1.847 --   344 h    0.835   345 h    0.832
   344   1 h    0.881 --   343 o    0.835
   345   1 h    0.894 --   343 o    0.832
   346   8 o    1.867 --   347 h    0.871   348 h    0.865
   347   1 h    0.896 --   346 o    0.871
   348   1 h    0.892 --   346 o    0.865
   349   8 o    1.887 --   350 h    0.844   351 h    0.809
   350   1 h    0.882 --   349 o    0.844
   351   1 h    0.884 --   349 o    0.809
   352   8 o    1.842 --   353 h    0.866   354 h    0.787
   353   1 h    0.895 --   352 o    0.866
   354   1 h    0.875 --   352 o    0.787
   355   8 o    1.813 --   356 h    0.847   357 h    0.842
   356   1 h    0.887 --   355 o    0.847
   357   1 h    0.887 --   355 o    0.842
   358   8 o    1.825 --   359 h    0.837   360 h    0.805
   359   1 h    0.887 --   358 o    0.837
   360   1 h    0.884 --   358 o    0.805
   361   8 o    1.812 --   362 h    0.854   363 h    0.833
   362   1 h    0.887 --   361 o    0.854
   363   1 h    0.887 --   361 o    0.833
   364   8 o    1.835 --   365 h    0.848   366 h    0.797
   365   1 h    0.896 --   364 o    0.848
   366   1 h    0.874 --   364 o    0.797
   367   8 o    1.849 --   368 h    0.893   369 h    0.774
   368   1 h    0.900 --   367 o    0.893
   369   1 h    0.878 --   367 o    0.774   472 o    0.100
   370   8 o    1.828 --   372 h    0.902   371 h    0.772
   371   1 h    0.870 --   370 o    0.772
   372   1 h    0.905 --   370 o    0.902
   373   8 o    1.844 --   375 h    0.854   374 h    0.823
   374   1 h    0.892 --   373 o    0.823
   375   1 h    0.890 --   373 o    0.854
   376   8 o    1.881 --   377 h    0.846   378 h    0.800
   377   1 h    0.890 --   376 o    0.846
   378   1 h    0.869 --   376 o    0.800
   379   8 o    1.846 --   380 h    0.879   381 h    0.849
   380   1 h    0.892 --   379 o    0.879
   381   1 h    0.880 --   379 o    0.849
   382   8 o    1.843 --   384 h    0.856   383 h    0.838
   383   1 h    0.884 --   382 o    0.838
   384   1 h    0.887 --   382 o    0.856
   385   8 o    1.877 --   387 h    0.822   386 h    0.810
   386   1 h    0.876 --   385 o    0.810
   387   1 h    0.892 --   385 o    0.822
   388   8 o    1.820 --   390 h    0.890   389 h    0.806
   389   1 h    0.871 --   388 o    0.806
   390   1 h    0.904 --   388 o    0.890
   391   8 o    1.831 --   393 h    0.900   392 h    0.829
   392   1 h    0.884 --   391 o    0.829
   393   1 h    0.903 --   391 o    0.900
   394   8 o    1.880 --   396 h    0.843   395 h    0.821
   395   1 h    0.880 --   394 o    0.821
   396   1 h    0.889 --   394 o    0.843
   397   8 o    1.852 --   398 h    0.894   399 h    0.826
   398   1 h    0.905 --   397 o    0.894
   399   1 h    0.882 --   397 o    0.826
   400   8 o    1.867 --   402 h    0.827   401 h    0.819
   401   1 h    0.879 --   400 o    0.819
   402   1 h    0.879 --   400 o    0.827
   403   8 o    1.890 --   405 h    0.822   404 h    0.799
   404   1 h    0.888 --   403 o    0.799
   405   1 h    0.887 --   403 o    0.822
   406   8 o    1.869 --   407 h    0.853   408 h    0.827
   407   1 h    0.888 --   406 o    0.853
   408   1 h    0.882 --   406 o    0.827
   409   8 o    1.841 --   410 h    0.848   411 h    0.830
   410   1 h    0.886 --   409 o    0.848
   411   1 h    0.888 --   409 o    0.830
   412   8 o    1.833 --   413 h    0.887   414 h    0.812
   413   1 h    0.896 --   412 o    0.887
   414   1 h    0.878 --   412 o    0.812
   415   8 o    1.839 --   417 h    0.870   416 h    0.837
   416   1 h    0.889 --   415 o    0.837
   417   1 h    0.892 --   415 o    0.870
   418   8 o    1.842 --   419 h    0.841   420 h    0.825
   419   1 h    0.891 --   418 o    0.841
   420   1 h    0.881 --   418 o    0.825
   421   8 o    1.822 --   422 h    0.840   423 h    0.828
   422   1 h    0.892 --   421 o    0.840
   423   1 h    0.885 --   421 o    0.828
   424   8 o    1.842 --   426 h    0.840   425 h    0.835
   425   1 h    0.889 --   424 o    0.835
   426   1 h    0.886 --   424 o    0.840
   427   8 o    1.834 --   429 h    0.830   428 h    0.822
   428   1 h    0.886 --   427 o    0.822
   429   1 h    0.876 --   427 o    0.830
   430   8 o    1.832 --   431 h    0.888   432 h    0.795
   431   1 h    0.900 --   430 o    0.888
   432   1 h    0.867 --   430 o    0.795
   433   8 o    1.832 --   434 h    0.896   435 h    0.803
   434   1 h    0.901 --   433 o    0.896
   435   1 h    0.877 --   433 o    0.803
   436   8 o    1.825 --   437 h    0.853   438 h    0.824
   437   1 h    0.891 --   436 o    0.853
   438   1 h    0.872 --   436 o    0.824
   439   8 o    1.865 --   440 h    0.897   441 h    0.835
   440   1 h    0.899 --   439 o    0.897
   441   1 h    0.879 --   439 o    0.835
   442   8 o    1.848 --   444 h    0.895   443 h    0.785
   443   1 h    0.871 --   442 o    0.785
   444   1 h    0.902 --   442 o    0.895
   445   8 o    1.839 --   446 h    0.893   447 h    0.811
   446   1 h    0.900 --   445 o    0.893
   447   1 h    0.882 --   445 o    0.811
   448   8 o    1.868 --   449 h    0.861   450 h    0.820
   449   1 h    0.892 --   448 o    0.861
   450   1 h    0.885 --   448 o    0.820
   451   8 o    1.838 --   452 h    0.879   453 h    0.795
   452   1 h    0.902 --   451 o    0.879
   453   1 h    0.867 --   451 o    0.795
   454   8 o    1.839 --   456 h    0.836   455 h    0.800
   455   1 h    0.886 --   454 o    0.800
   456   1 h    0.888 --   454 o    0.836
   457   8 o    1.828 --   459 h    0.895   458 h    0.776
   458   1 h    0.874 --   457 o    0.776
   459   1 h    0.902 --   457 o    0.895
   460   8 o    1.811 --   462 h    0.878   461 h    0.783
   461   1 h    0.874 --   460 o    0.783
   462   1 h    0.902 --   460 o    0.878
   463   8 o    1.837 --   465 h    0.840   464 h    0.825
   464   1 h    0.878 --   463 o    0.825
   465   1 h    0.884 --   463 o    0.840
   466   8 o    1.826 --   467 h    0.862   468 h    0.774
   467   1 h    0.900 --   466 o    0.862
   468   1 h    0.872 --   466 o    0.774
   469   8 o    1.825 --   471 h    0.857   470 h    0.855
   470   1 h    0.886 --   469 o    0.855
   471   1 h    0.889 --   469 o    0.857
   472   8 o    1.866 --   473 h    0.844   474 h    0.839   369 h    0.100
   473   1 h    0.882 --   472 o    0.844
   474   1 h    0.880 --   472 o    0.839
   475   8 o    1.875 --   476 h    0.823   477 h    0.812
   476   1 h    0.886 --   475 o    0.823
   477   1 h    0.880 --   475 o    0.812
   478   8 o    1.822 --   479 h    0.841   480 h    0.800
   479   1 h    0.889 --   478 o    0.841
   480   1 h    0.891 --   478 o    0.800
   481   8 o    1.839 --   482 h    0.834   483 h    0.777
   482   1 h    0.889 --   481 o    0.834
   483   1 h    0.868 --   481 o    0.777
   484   8 o    1.867 --   486 h    0.850   485 h    0.817
   485   1 h    0.882 --   484 o    0.817
   486   1 h    0.894 --   484 o    0.850
   487   8 o    1.859 --   489 h    0.849   488 h    0.778
   488   1 h    0.868 --   487 o    0.778
   489   1 h    0.893 --   487 o    0.849
   490   8 o    1.885 --   491 h    0.824   492 h    0.809
   491   1 h    0.886 --   490 o    0.824
   492   1 h    0.885 --   490 o    0.809
   493   8 o    1.837 --   495 h    0.876   494 h    0.855
   494   1 h    0.883 --   493 o    0.855
   495   1 h    0.889 --   493 o    0.876
   496   8 o    1.855 --   498 h    0.894   497 h    0.812
   497   1 h    0.880 --   496 o    0.812
   498   1 h    0.902 --   496 o    0.894
   499   8 o    1.801 --   501 h    0.875   500 h    0.810
   500   1 h    0.874 --   499 o    0.810
   501   1 h    0.904 --   499 o    0.875
   502   8 o    1.825 --   504 h    0.850   503 h    0.822
   503   1 h    0.875 --   502 o    0.822
   504   1 h    0.894 --   502 o    0.850
   505   8 o    1.857 --   507 h    0.849   506 h    0.812
   506   1 h    0.876 --   505 o    0.812
   507   1 h    0.894 --   505 o    0.849
   508   8 o    1.848 --   510 h    0.860   509 h    0.838
   509   1 h    0.886 --   508 o    0.838
   510   1 h    0.891 --   508 o    0.860
   511   8 o    1.828 --   512 h    0.852   513 h    0.847
   512   1 h    0.892 --   511 o    0.852
   513   1 h    0.889 --   511 o    0.847
   514   8 o    1.843 --   516 h    0.890   515 h    0.813
   515   1 h    0.875 --   514 o    0.813
   516   1 h    0.896 --   514 o    0.890
   517   8 o    1.851 --   518 h    0.889   519 h    0.819
   518   1 h    0.897 --   517 o    0.889
   519   1 h    0.874 --   517 o    0.819
   520   8 o    1.870 --   522 h    0.845   521 h    0.790
   521   1 h    0.871 --   520 o    0.790
   522   1 h    0.893 --   520 o    0.845
   523   8 o    1.806 --   524 h    0.896   525 h    0.784
   524   1 h    0.903 --   523 o    0.896
   525   1 h    0.875 --   523 o    0.784
   526   8 o    1.862 --   528 h    0.869   527 h    0.868
   527   1 h    0.891 --   526 o    0.868
   528   1 h    0.890 --   526 o    0.869
   529   8 o    1.808 --   531 h    0.882   530 h    0.865
   530   1 h    0.894 --   529 o    0.865
   531   1 h    0.903 --   529 o    0.882
 ---------------------------------------------------------------------------

Topologies differ in total number of bonds
Writing topology from bond orders to xtbtopo.mol

molecular dipole:
                 x           y           z       tot (Debye)
 q only:        1.785       2.509       1.039
   full:        3.023       3.455       1.857      12.586
molecular quadrupole (traceless):
                xx          xy          yy          xz          yz          zz
 q only:      118.480     -45.617     -22.038       8.383     -27.675     -96.442
  q+dip:      151.447     -52.193     -46.874      19.884     -40.951    -104.572
   full:      151.979     -52.563     -48.543      20.450     -41.406    -103.435


           -------------------------------------------------
          | TOTAL ENERGY             -901.388511864130 Eh   |
          | GRADIENT NORM               0.101989374490 Eh/α |
          | HOMO-LUMO GAP               7.449647691422 eV   |
           -------------------------------------------------

------------------------------------------------------------------------
 * finished run on 2022/11/17 at 06:54:58.303     
------------------------------------------------------------------------
 total:
 * wall-time:     0 d,  0 h,  0 min,  9.128 sec
 *  cpu-time:     0 d,  0 h,  0 min, 14.354 sec
 * ratio c/w:     1.572 speedup
 SCF:
 * wall-time:     0 d,  0 h,  0 min,  8.581 sec
 *  cpu-time:     0 d,  0 h,  0 min, 13.323 sec
 * ratio c/w:     1.553 speedup

