531
 energy: -901.174833752928 gnorm: 0.023906257181 xtb: 6.5.1 (579679a)
o            0.21598212566172       -2.09878925488032       -0.35544087412345
h            0.52218593155302       -2.47335499102961        0.47685972805821
h            0.25134283178119       -2.80105557112630       -1.03738078495462
o            1.38283512180468       -4.46418676532581        1.45936751290398
h            1.49160045621381       -5.23722420130580        2.03907443472051
h            1.45707454981713       -3.66566915151016        2.01900075998279
o            2.36891275851899        3.27607516505518        0.07538704400597
h            2.51948261134999        4.02289239906811        0.66949159348639
h            1.71782459132538        3.57720765031693       -0.57791960568220
o            3.30274602008087       -1.46452773562565        0.21563267789445
h            2.97039563851531       -1.67513706368578       -0.66911614662149
h            4.14263926835820       -0.96939545936210        0.11576454015946
o           -5.92459882853328       -1.88773303656185        2.62048903917896
h           -5.67163147670286       -2.42800318123695        3.39151992604499
h           -5.12860377158336       -1.70339152186433        2.09851494370620
o            2.66071565034637       -3.80839228926864       -1.07928214536731
h            2.58595875758215       -4.50365509956391       -1.75848320785291
h            2.17635967538368       -4.13038560599501       -0.30698596071879
o           -1.72826602665663       -2.74131265496924        2.86008917394925
h           -1.30871546848130       -3.32450168266253        2.18807335869715
h           -1.09114820796646       -2.07771564073583        3.17194339641621
o            3.85645925130910       -3.81776148019918        4.10578787457701
h            3.94383692930261       -3.67173679104724        3.13000161920766
h            3.30941310796247       -3.07492400131745        4.41443066774215
o           -1.15631220942076       -4.43053331434821        0.93788750948553
h           -0.18532965180568       -4.58662220146684        1.00786690699296
h           -1.60618281918320       -5.28358793010412        1.02770337395271
o            0.62981979346719        3.51255552721547        3.18800879882583
h            0.15150839084341        4.12846854517291        3.77534029903511
h            0.27799436390843        3.67758734510423        2.27668257467634
o           -2.19717825745250       -1.23342884646587       -1.08600308904403
h           -1.31279549740272       -1.41821309722238       -0.71641866093264
h           -2.55839354533984       -2.13550350557415       -1.25308992244187
o            3.84133630971208        2.01635970322807        4.74943653126121
h            4.78197194804249        1.95354934125520        4.51967583937777
h            3.53594135174593        2.90097751795599        4.45774855492300
o           -0.40066903752684        4.15266088262826        0.89557802531090
h           -1.37331801578774        4.10449608599706        0.94761931938242
h           -0.17240273820495        5.07940481094790        0.73399215330242
o           -4.63302607146129        2.56852584199994        2.34102237630681
h           -4.00427047009569        3.15609800248643        1.86243200210925
h           -5.34041596463191        2.29439515713255        1.72889639709787
o           -1.65814096186259        1.66313339819931       -3.27806777727075
h           -1.90064516466396        1.82210501105053       -2.34304577761887
h           -2.25626836276997        0.94812605713586       -3.56866654050968
o           -2.15276743317241        7.76591104850161       -2.91766675740720
h           -1.50564487491090        7.18944744748439       -3.37504365817350
h           -2.25190074727507        8.55387456919648       -3.45119447440826
o           -4.41533310365854        2.41966492701074       -3.12645643403680
h           -4.43618716232374        3.12805315388826       -2.45890237577009
h           -4.52574952891430        1.59536938108613       -2.62574651399108
o           -0.24334689652310       -0.79212673520861       -3.05480721998405
h           -1.04547436750382       -0.93579911307952       -2.53210214327914
h           -0.45491322249443       -1.09189520819713       -3.96246337557406
o            3.14735974469719        0.86139397088239        1.72893791609418
h            2.52004940119696        1.01008050928776        2.46648245696724
h            3.64676391496369        1.67783805763485        1.56249202193681
o            4.72929899812972       -0.84543934506271        3.02616924014088
h            4.24549171591593       -0.22745987429704        2.44122193401046
h            5.23992251565547       -1.44343640888220        2.44425570202917
o           -4.57251112327589        6.59064220613955       -2.19999978349034
h           -3.73857375774599        7.00580933592169       -2.46989336285038
h           -5.06127384112979        6.39195306067334       -3.02793562377685
o            1.09301629519297        1.52830839490780       -2.67154597164180
h            0.34570427822667        0.93310989422881       -2.86952058987445
h            0.74356426241407        2.38776549297020       -2.41674836278104
o            6.47648044893130        2.21718869949557        4.23490665829759
h            7.38193140562624        2.34044814945993        4.60780858390098
h            6.61599636038749        1.65461338368967        3.43408407779590
o            8.46327998710147       -1.28670776762288        0.38687864480671
h            8.82359886327236       -2.05330057240086       -0.10265995057562
h            7.64079209980977       -1.61318310643364        0.82176289455908
o           -4.39143826327522        0.44403759040350       -1.22640853681720
h           -3.66986043762131       -0.18190789472313       -1.37550935708426
h           -5.08386353773388       -0.05247799853109       -0.74413412446126
o            3.62071667608039        1.35011337994041       -1.30999655556237
h            3.27965412462339        2.06091786409432       -0.73986125655792
h            3.70308952283842        1.74817253540988       -2.18790140671281
o           -3.00253118473379       -1.17682624881776        5.57784947830370
h           -2.79591257780342       -0.72672534857655        4.74354777900764
h           -3.96370447695931       -1.04374551436450        5.68750370933023
o           -3.64888011296768        0.38086145576495       -6.48618281423076
h           -4.61784798136965        0.40590363614149       -6.48708213004741
h           -3.39935043131832        0.18415817531437       -5.55950090170562
o           -6.06753110057204        2.87080967135470       -5.08976311928686
h           -5.44722931592193        2.65868220003527       -4.33914563582697
h           -6.17515706568688        2.03194942068192       -5.57254273679585
o            6.22028651230028       -3.31227970659622        5.12468586164682
h            5.32098591963459       -3.50419155989128        4.74809667788563
h            6.06340035625555       -2.94246528670647        5.99442312795524
o            3.37268158079263       -3.13086924682716       -4.31445934731711
h            4.00456017896877       -2.54783164061991       -4.77157699620684
h            2.59585477996410       -3.16736832184093       -4.91755614916342
o           -8.14653377568831       -4.36338951587769       -1.00798906068179
h           -7.49189053542434       -5.01525822079884       -1.29815531886121
h           -7.92198483002126       -4.12253593662349       -0.09069662628569
o           -2.45235419587789        2.11752939934178       -0.72915259445162
h           -3.34640179703086        1.73981995108437       -0.81727589037549
h           -2.47705768308579        3.07777145555322       -0.87283223292121
o           -0.08673216235338       -4.05836904047638       -2.12405628523615
h            0.17223378742058       -4.78206748723394       -1.52675247915223
h            0.17649333362526       -4.36704989573796       -3.01197414315803
o            1.46363553180837        1.06912803900925        3.79621529389815
h            1.03643383374265        1.93680330320889        3.64873619148114
h            2.18710385598714        1.21458153831472        4.42329542821974
o            2.88431232670172       -5.63161141401563       -3.06695831635661
h            3.70969684362545       -6.02231507426708       -2.75656942295344
h            3.12405196025946       -4.92641736104160       -3.68162794572912
o            2.63214956189700       -1.45149781643408        4.54061756043481
h            2.46719867800073       -0.87221670597852        5.30063592862268
h            3.43151259653431       -1.12618364981616        4.08435566286530
o           -5.27544104956021       -3.58511842778316        0.19121562725952
h           -4.98395032470364       -3.69306859136783        1.11248214038701
h           -5.63748038797091       -4.46243328898877       -0.06615119536282
o            6.30041705366558        1.51835008293189       -2.39222415625650
h            5.85039481111771        2.28740566518135       -1.97442643601829
h            7.12800892708434        1.37051688154769       -1.90071404145743
o           -2.15875219811727        4.22464567134960       -4.05745149616167
h           -2.03386310180422        3.26717118198124       -3.89148688275929
h           -2.85766229637464        4.29315847959318       -4.74982315282530
o            4.04561197045977       -3.69660596073999        1.53772175653478
h            3.80423761685410       -4.51049350852944        1.06419566926711
h            3.69064136669319       -2.94151592009476        1.03503252187290
o            2.09586877955159        0.23301272128174        6.65951254735005
h            2.62438053971768        0.93209034312355        7.07269704141573
h            1.25376643627916        0.67018634012184        6.43262466390021
o            4.06672431370105       -1.70295753260456        7.14160084262351
h            4.70074653227870       -1.23802288353975        6.56433687528004
h            3.35091588211169       -1.06957020536823        7.27866754550673
o           -0.23371316241697       -1.07630281364371        4.43062477903971
h           -0.20989111052675       -1.23130891646288        5.39198622094754
h            0.35825543836199       -0.33006038017772        4.24779109770221
o            0.62374547783095        4.17333968670991       -1.86279206687585
h            0.92472903820652        5.10006507953092       -1.80842754711951
h           -0.33441798657355        4.21724190973689       -1.62212642720367
o            0.56659540923268        6.72996204921410        0.57533421742231
h            0.82377100647305        6.90430641763848       -0.34494728789704
h            1.37491269393964        6.37750011241425        1.00229016491023
o           -3.34740787083712       -6.14982967643696        0.82302267734240
h           -3.65015023164981       -5.46840290805769        1.46275557888961
h           -3.26981454753613       -6.96296658249664        1.32133693161041
o           -6.19371711576506       -1.02917111651649        0.05683153672735
h           -7.09712728474915       -1.03448381742389       -0.28686850568512
h           -5.85992698003325       -1.94370730906880        0.00624609752028
o            9.01458235195355        2.81565776467143       -3.37402436526809
h            9.36800704986375        1.95521738010058       -3.10222501598451
h            8.40961596078053        2.63524628500981       -4.10320547131686
o           -2.31375787693638        2.66501845584716       -7.21839972319789
h           -2.77319421131123        1.81078594300076       -7.12823980516308
h           -1.49285293619763        2.56134474896577       -6.71186953509232
o           -8.54821618762166       -0.40830205111917       -1.06176484059244
h           -8.09232887491753        0.41087197158051       -1.33605350174492
h           -9.45469803332090       -0.39186605714399       -1.42489405970235
o            1.48761934688321        3.96710374964401        6.49836008810140
h            2.19358363648573        3.64799337964999        7.07371440282168
h            0.89594364697692        3.19279838758162        6.38523542599676
o           -6.99409156040888        1.63719391760614       -1.76793230637643
h           -7.46092129369745        2.15379650017724       -2.45929617863353
h           -6.75886953513192        2.22875941722240       -1.04576139037710
o           -3.90724954819685        0.22740399630201        3.39368240044419
h           -4.07274253774305        1.12524795170258        3.06089563591909
h           -3.72021534744938       -0.29469144165949        2.59399391683680
o            7.67430243270085       -1.59569079885672        3.69229720713971
h            8.19347038683392       -2.23042090876824        3.15556006703655
h            7.09506137304103       -2.14525671556943        4.26302849428886
o            8.48089889186720        1.02645756836833       -0.90884664907988
h            8.34831258366801        0.15379882353078       -0.47517971771405
h            9.44735253620248        1.16976628867265       -0.88543709195166
o           -9.13469263850980        3.76829498708883        2.65410117516018
h           -8.58088680789072        4.51172380331540        2.37569688198956
h           -9.32737362223391        3.25255550583741        1.84861076929159
o            0.01529798188074        0.11060409383872       -7.36062472450276
h           -0.01000390997177        0.92245081101799       -6.82701290550992
h            0.94452448616992       -0.15749262708837       -7.42236981657447
o           -2.00141089311482       -3.63398174404998        5.47973492820653
h           -1.70909543303515       -3.55626705206016        4.55501533199892
h           -2.47154069619750       -2.78628179039677        5.62767063188113
o            4.76341578996427        6.44298259203909        0.08163831342597
h            5.61774906760167        6.05328637589406        0.41184596429037
h            4.93364334597089        7.37190516925625       -0.07003887480181
o           -4.55632539497775        4.20454096131516       -1.09445984975914
h           -4.49881843171299        5.09535893676762       -1.50492048517782
h           -5.47223189300250        4.12159165701082       -0.76573014865773
o           -6.79182786947442        1.42642811696029        1.19038567355935
h           -7.07425068957180        1.44150252926155        2.12707800525611
h           -6.55638824871754        0.51236559356424        0.96319525323734
o           -5.18441976040459        7.20425575161027        0.48038493613107
h           -5.99810737361301        6.72285751847280        0.67129432651930
h           -4.97109506989635        7.06836042071804       -0.45474663710997
o           -7.03890432495115        4.07296053912253       -0.22199229710404
h           -7.78949508601336        4.27108129444161       -0.80122236346503
h           -7.15113281253879        4.62772882305286        0.56281961248306
o            5.57421784294047       -0.04785585095997       -0.04056415513671
h            5.00495082845546        0.66661132865379       -0.37296930089674
h            5.99751777756812        0.24449887101593        0.77931161819800
o            4.99194901526153        2.83706713798532        1.33284657594226
h            5.01780697816280        3.54918810881663        1.99678623794382
h            5.91715518112388        2.54836057177082        1.24821166879448
o            4.96232123691019       -0.79578581996957       -2.60689451544015
h            4.03810370695685       -0.67359985870528       -2.35161277992417
h            5.39830067326130        0.06489804557876       -2.44009947761460
o           -0.30979815295806        5.38781195743483        4.86012134629229
h           -1.24142188752468        5.16344187905104        5.01639496899373
h            0.19032970464185        5.15700139984856        5.65257585837074
o           -1.62589686455392        0.10196564134007        7.50612944400344
h           -0.98389502461710       -0.57060408206114        7.76161049690044
h           -2.16340934858544       -0.34497574899428        6.81702523493634
o           -3.50688565884121       -1.40926625165215        1.32437461852822
h           -3.13377880695725       -1.19200570540900        0.45316246685694
h           -2.83099921324818       -1.91381756254145        1.81085477979426
o            5.24772668223117       -1.30603986712928       -5.17282266888086
h            5.16824260350566       -1.08258063326129       -4.21135545758275
h            4.93232310709369       -0.53751143163141       -5.65508068993830
o           -4.06709997626651       -4.18978188798457        2.53223101196695
h           -4.29103892028995       -4.66302462347812        3.35765512788655
h           -3.27718011725264       -3.66980567192609        2.72649663944391
o            2.29181140737253       -1.41488824923084       -2.46790482033513
h            2.54979403563773       -2.24923112442271       -2.89517907289391
h            1.32477428909114       -1.31103670026609       -2.59323458330730
o            2.58378134008424       -0.74135897601902       -6.91337494539746
h            2.52809431795074       -0.37468107933800       -6.00464979740602
h            3.31106877670898       -0.29193492391539       -7.34522072183182
o           -6.34316505789992        0.31553252422584       -5.93480475688646
h           -6.20127274826438        0.03561789229565       -4.99757990343912
h           -7.06142979976119       -0.23120847134913       -6.25634496675472
o            7.47902702001791       -1.90483526657494       -2.51561692100850
h            7.06635390640435       -1.31148421762428       -1.87918215525504
h            7.64125432736678       -1.39174527447794       -3.32688779464101
o            5.26323314119273       -3.08225606663712       -0.95651172815746
h            4.34729416547070       -3.43022946245344       -0.98815659312170
h            5.27159468871707       -2.31723736331344       -1.55091417451069
o          -10.59990246497243       -3.08223650183907       -0.96029479780648
h          -10.50718901267405       -2.76107915333498       -0.05574685802799
h           -9.83113154019633       -3.65216656346285       -1.11355408728747
o           -0.07135952257954        1.77808219433485        6.15383063596570
h           -0.64779476909961        1.28441608423576        6.77638029640726
h           -0.62934368541149        1.90265963047697        5.35794027820601
o            2.64531133127561        0.36601135214232       -4.45163446989053
h            2.64856896277353       -0.35957466233975       -3.79392360971092
h            2.05682393007383        1.02056467721499       -4.03334089599830
o            2.84887666788981        4.42758069622207        4.18564481486792
h            2.46334885425791        4.51672759545110        5.07828822855138
h            2.08038131138851        4.08431102926951        3.65705375900916
o            6.83207481674001        1.88551492986724       -4.92029120401007
h            6.01965559701399        1.67626031758133       -5.42237678972773
h            6.56169152442529        1.81213841207536       -3.96874713069143
o            1.43607974066458       -1.86061250457773        2.12656621480330
h            1.74086479118754       -1.65836178174202        3.02551929700097
h            2.15998027150354       -1.59513412700819        1.53818484189175
o           -7.59658278461137       -2.31381447583111       -2.64010771155851
h           -8.01670599813336       -1.62539454080042       -2.08170101646615
h           -7.73740166614662       -3.15493613739424       -2.16228630748951
o           -8.33908638902380        2.76346537481398       -3.75344063886700
h           -8.77883146372604        1.92673779624299       -4.01686477372727
h           -7.57342811905962        2.87930195906662       -4.36301665211197
o            1.31662249494738        6.76689031918762       -2.05678906947729
h            0.82956342183546        6.75913866320681       -2.89422789748199
h            2.25697741420422        6.58923670157018       -2.25677305592342
o            7.03757228317473        0.57571966238627        2.24987759866312
h            7.03947301769821       -0.27570981902028        2.73651327151424
h            7.96611757102719        0.72126523018290        2.02116245098223
o           11.10638742958191        1.09507822870187       -0.29573060746316
h           11.50321421276544        0.37419097068366       -0.79278875934729
h           10.90514354245283        0.72718863403342        0.58033127035870
o            6.92694476533852        5.46594182348601        1.14216561873299
h            7.19328695532813        4.57074874273957        0.85587063889475
h            6.60079014609823        5.35165839498899        2.04569784900628
o            7.63451665279208        2.90321720074804        0.76928237182835
h            7.90932647859597        2.25587879110643        0.08296651420242
h            8.38774214711015        2.98508104925311        1.37678603656579
o            1.01349679087052       -6.13155527853238       -0.68800848796867
h            0.98720771110983       -6.64913468231262       -1.51760975680062
h            0.42919237208085       -6.57423977856120       -0.05350244673646
o            6.29849262064451       -2.34889400277648        1.43201939824139
h            6.34800175555092       -3.19825577597544        1.90420026533409
h            5.82031754430826       -2.53624702419440        0.59725377458847
o            1.53349179442712       -6.75386851499579        2.98855465293064
h            2.47332465113207       -6.90410769725720        3.17912872854984
h            1.06880057543983       -6.64295097948672        3.82747938879755
o           -9.84875986536101       -1.61093730704202        1.46424789485131
h           -9.40077643502344       -1.16823593211446        2.20870106728314
h          -10.30283795713283       -0.90665135488357        0.97255397046921
o           -8.43876848037597       -3.32042270874109        4.28399810024325
h           -8.62213809366350       -2.36893738041704        4.28669716179272
h           -8.41974157174114       -3.55755693044054        3.34331774951674
o           -6.60553959795745       -5.70127868675202        2.49037092495096
h           -7.09323407971052       -4.91756825316235        2.19458687349257
h           -6.90691133089700       -5.89762162283622        3.37661176522795
o           -2.03863475546161       -4.60377589437539       -5.73255653815012
h           -2.22637002444417       -3.95643968543310       -6.42306893948663
h           -2.87569644560134       -5.11415480872347       -5.60524219786215
o            5.31941372528045       -6.11564948800782       -1.79073296366091
h            5.60226335293872       -5.38568486963220       -2.38992741736960
h            6.10302576147931       -6.30351954867775       -1.26481747755383
o           -5.89514782896572       -0.28431213312242       -3.41094430574254
h           -6.12627019482269       -1.15903071646846       -3.05549336192023
h           -6.21793451301843        0.37108894827119       -2.77161392355783
o           -1.75405313156411       -7.64741472729528       -1.46632182945905
h           -1.42899551792215       -7.66014637661396       -0.56016913802926
h           -0.99022981012915       -7.70498804015397       -2.05326138570442
o            9.26294559981110       -3.27345968189781        2.34849261091387
h           10.01171867364221       -2.82289890949963        1.91578488885904
h            8.93388243114062       -3.93657514197628        1.73906171895521
o            4.27478005879848       -6.35864708276364        3.04843249677519
h            3.99277065636244       -5.52919862161701        3.46723493942014
h            4.06314227083367       -6.30041681076584        2.09981975438478
o           -2.19958419042911       -6.57606513319173        3.30589739208838
h           -2.99766820688516       -6.43097292085325        3.82541126608967
h           -1.45899763963827       -6.40257652838776        3.91747394104842
o           -2.91596687976507       -3.72703223661663       -0.97022798758485
h           -2.25968096875344       -4.01688251322537       -0.31364824830056
h           -3.78885724278120       -3.65592236531452       -0.51697752483642
o           -4.14376616165361       -5.23404323460080        4.99495021478304
h           -3.35232122208154       -4.75311701661959        5.31027528572828
h           -4.88778930372527       -4.65564150946323        5.22469313116846
o            9.12054337502255       -3.44004379654258       -1.07901586079229
h            8.55051088170855       -4.14182519383388       -0.70668823643544
h            8.56933595476200       -3.03461817925696       -1.77439750657651
o            5.49736866937032        4.55696987251771        3.35153236625445
h            5.94570156187514        3.79558193715698        3.78049372445699
h            4.67263021858712        4.70358051331554        3.83156751631843
o           -7.52524760932978        1.95633369569707        3.74850126362506
h           -8.20592317307866        2.61254411991559        3.47841280608282
h           -6.87898096608840        2.45103861160004        4.27118463573189
o           -3.08587624180159        4.27270234539132        1.12784355236190
h           -3.20880745669637        5.14136341419922        1.56162686971676
h           -3.56475606317240        4.31847840614423        0.27228185263849
o          -10.95008097888376       -0.73673343454816       -2.18161799519603
h          -10.91958800261262       -1.67645469026329       -1.89005261844670
h          -11.44234667711283       -0.27592060960089       -1.49078640728896
o           -7.85191097652273       -3.39661928497190        1.54008826111538
h           -8.61184797821785       -2.79967086375474        1.40232114019658
h           -7.09805482886317       -2.80816110596707        1.77437327797883
o           -9.36510618293305        0.35713223676608       -4.22411419999885
h           -8.88771872872341       -0.39153229207466       -4.61428879669979
h          -10.01275103304635       -0.01507467410164       -3.60867551849753
o            5.98121842747992       -4.13439754982286       -3.46675438516459
h            6.49589276142996       -3.39317452209108       -3.11188795358806
h            5.13901329191740       -3.76878801264309       -3.75908563964304
o           -0.20940317447243       -5.92554010194578        5.02555564454373
h            0.10193701204279       -5.04042632516399        4.70631310676214
h           -0.67160448639028       -5.75927587627122        5.84777628756050
o           -2.27371360925172       -3.01580244580292       -3.53402406742372
h           -1.60267903170800       -3.35398885252700       -2.92189305221519
h           -2.19995591489429       -3.56597627165921       -4.33765520566500
o           -2.14367112391625        6.96873202056147       -0.22218813418602
h           -2.17887127575061        7.55375607228487       -0.98700252292889
h           -1.28225438833614        7.09427333571403        0.19088938078974
o            3.90439417406157        3.02058465725899       -3.50633217959288
h            4.12481842911158        3.61248790374381       -2.76840732225511
h            2.98723855715274        3.23472967649149       -3.78244311907614
o            1.36213821442460       -3.08780700752232       -6.02339274476731
h            1.79262168748575       -2.52223282649455       -6.67534279858130
h            0.52896692732381       -2.60513870700274       -5.79032209489075
o           -0.50447492189614       -7.35282064512699        1.25297028795301
h            0.30159892581867       -7.38386486824678        1.79200844614252
h           -1.20571201783784       -7.17592260053911        1.89845991626621
o            7.85637175190874       -0.57519651543491       -4.85661752781736
h            7.11174596139286       -1.09280191671308       -5.20957809217055
h            7.56550342239490        0.36177854423551       -4.94632082559499
o           11.08889797140466       -1.57811893638661       -1.51795123556920
h           10.58103096772297       -2.40196049575315       -1.53964274415658
h           10.63890490245358       -0.98018805586129       -2.14068510019330
o           -3.57785671225718       -5.86524699493966       -2.44701096247362
h           -3.03503181961882       -6.60717246130617       -2.13393824531952
h           -3.24318019240750       -5.08404100221756       -1.96003334255378
o           -7.45883680299127        5.89507568687210        1.77338870887024
h           -8.03815422654378        6.65409397685266        1.84483705134162
h           -6.86878688083392        5.92738188457483        2.58263383949103
o           -8.05800121080217       -1.95080275811049       -5.16963996157601
h           -7.89048493354396       -2.13966334718854       -4.20411635445465
h           -8.71920687395771       -2.58030887180669       -5.45556291114868
o           -5.89048005239849       -3.13872294199845        5.02903980182039
h           -6.84276660134824       -3.32571776524988        4.86988877958620
h           -5.87017738048210       -2.25262126710822        5.41543804067136
o           -9.26937533371471        2.23853078951568        0.40596451483576
h           -9.26798335754381        2.82078919159551       -0.36902225756342
h           -8.35300995513224        1.90832403505155        0.53872961751824
o            2.93469131742775        5.96657876933816       -5.10097548034646
h            3.70678932359521        5.64293597196516       -5.57742005104309
h            3.24455652617942        6.11418230564426       -4.19645899326486
o            8.99824724946922        2.34242998377614        4.92050626308964
h            9.31060526118933        1.42042088831742        4.93774905238989