 Entering Gaussian System
 *********************************************
 Gaussian 98:
 frequency output generated by the xtb code
 *********************************************
                         Standard orientation:
 --------------------------------------------------------------------
  Center     Atomic     Atomic              Coordinates (Angstroms)
  Number     Number      Type              X           Y           Z
 --------------------------------------------------------------------
    1          6             0        0.530323    0.022005    0.682151
    2          6             0       -1.838244    0.552229    0.556669
    3          6             0       -2.042485    1.387003   -0.697995
    4          6             0        1.074265    0.982695   -0.290867
    5          1             0        1.099494   -0.918154    0.682876
    6          1             0       -2.747869   -0.003387    0.790761
    7          1             0       -2.426737    0.773810   -1.505890
    8          1             0        1.164231    0.725375   -1.327922
    9          1             0        0.557399    0.459586    1.684115
   10          1             0       -1.588124    1.196847    1.402823
   11          1             0       -2.763909    2.172226   -0.494317
   12          1             0       -1.102375    1.839784   -1.000612
   13          8             0       -0.818295   -0.434566    0.414028
   14          7             0        1.721089    2.132880    0.159493
   15          1             0        2.447244    2.437780   -0.479423
   16          1             0        2.079670    2.030961    1.110826
   17          8             0        0.837069   -4.783796   -0.081839
   18          1             0       -0.134063   -4.632639    0.068721
   19          1             0        0.941287   -5.728998   -0.190287
   20          8             0       -4.322689   -1.237601    1.884634
   21          1             0       -5.185182   -1.349615    2.285242
   22          1             0       -3.682517   -1.196665    2.638621
   23          8             0       -0.439732   -1.368088   -2.143053
   24          1             0       -0.625763   -0.965821   -1.272944
   25          1             0       -1.311562   -1.733212   -2.455157
   26          8             0       -2.847251   -2.083173   -2.822216
   27          1             0       -3.229802   -1.224584   -3.090584
   28          1             0       -3.237756   -2.297391   -1.960172
   29          8             0       -1.638567    2.008636   -4.034512
   30          1             0       -0.853919    1.438374   -4.068629
   31          1             0       -1.428005    2.694121   -3.378863
   32          8             0        1.807595   -2.760152   -1.666160
   33          1             0        1.519979   -3.570064   -1.209973
   34          1             0        0.976814   -2.274088   -1.854225
   35          8             0       -0.842190   -2.485007    2.280138
   36          1             0       -0.918330   -1.771965    1.620205
   37          1             0        0.103681   -2.728531    2.302540
   38          8             0        4.443194    0.715398    0.649923
   39          1             0        4.055292    1.092486    1.450448
   40          1             0        4.046444   -0.164426    0.562234
   41          8             0        1.148645    3.353000    4.132664
   42          1             0        1.552029    4.219545    4.073294
   43          1             0        0.347766    3.380206    3.574229
   44          8             0       -1.138652    3.242658    2.606496
   45          1             0       -0.785565    3.577517    1.733502
   46          1             0       -1.890144    3.795919    2.820666
   47          8             0       -3.805734   -2.766765   -0.287818
   48          1             0       -3.921930   -2.162293    0.477626
   49          1             0       -4.604353   -3.293872   -0.336863
   50          8             0        3.432596   -1.886099    0.240897
   51          1             0        2.850984   -2.113766   -0.526103
   52          1             0        4.287198   -2.277742    0.053874
   53          8             0       -1.681651   -4.372011    0.546920
   54          1             0       -1.489024   -3.801915    1.318685
   55          1             0       -2.354132   -3.882913    0.047483
   56          8             0        1.768635   -3.164770    1.987701
   57          1             0        1.522011   -3.877854    1.374026
   58          1             0        2.437415   -2.645267    1.502360
   59          8             0       -0.068650    4.149264    0.411816
   60          1             0       -0.464160    4.148203   -0.474788
   61          1             0        0.659811    3.485216    0.342245
   62          8             0       -2.585323   -1.184808    3.899344
   63          1             0       -2.047017   -0.389803    4.027972
   64          1             0       -1.971912   -1.834124    3.513394
   65          8             0        3.856839    1.634793   -1.876833
   66          1             0        3.773896    0.791738   -2.354210
   67          1             0        4.214139    1.394461   -1.001757
   68          8             0        1.712633   -0.842846    3.782255
   69          1             0        1.778975   -1.712682    3.374056
   70          1             0        0.775952   -0.610420    3.818036
   71          8             0        1.709087    2.708030   -3.190928
   72          1             0        2.530830    2.472345   -2.721622
   73          1             0        1.408197    1.893203   -3.610058
   74          8             0        2.743853    1.504173    2.794352
   75          1             0        2.304094    2.149077    3.372639
   76          1             0        2.517051    0.631367    3.164718
   77          8             0       -0.490780    3.904076   -2.326309
   78          1             0        0.372263    3.479961   -2.562070
   79          1             0       -0.486304    4.752262   -2.771963
   80          8             0       -0.635819    0.845539    3.996973
   81          1             0       -0.879224    1.605271    3.444477
   82          1             0       -0.103737    1.212289    4.708186
   83          8             0       -3.716855    0.396544   -3.533253
   84          1             0       -2.975007    1.019472   -3.714740
   85          1             0       -4.333453    0.502277   -4.257388
   86          8             0        0.507487    0.183705   -4.022786
   87          1             0        0.124542   -0.375515   -3.290665
   88          1             0        0.342281   -0.294006   -4.837145
   89          8             0        3.089859   -0.701401   -3.184488
   90          1             0        2.276155   -0.348264   -3.572306
   91          1             0        2.832296   -1.513833   -2.732943
 --------------------------------------------------------------------
     1 basis functions        1 primitive gaussians
     1 alpha electrons        1 beta electrons
 
 Harmonic frequencies (cm**-1), IR intensities (km*mol⁻¹),
 Raman scattering activities (A**4/amu), Raman depolarization ratios,
 reduced masses (AMU), force constants (mDyne/A) and normal coordinates:
                      1                      2                      3
                        a                      a                      a 
 Frequencies --    29.0977                33.4111                35.7014
 Red. masses --    13.8220                13.3748                13.9689
 Frc consts  --     0.0000                 0.0000                 0.0000
 IR Inten    --     1.8358                 0.6083                 0.2819
 Raman Activ --     0.0000                 0.0000                 0.0000
 Depolar     --     0.0000                 0.0000                 0.0000
 Atom AN      X      Y      Z        X      Y      Z        X      Y      Z
   1   6     0.09   0.03  -0.02     0.03   0.23  -0.01    -0.07   0.13   0.04
   2   6     0.09   0.04  -0.04    -0.01   0.00   0.05    -0.08   0.09   0.04
   3   6     0.02  -0.07  -0.09    -0.07   0.10   0.13    -0.12   0.08   0.04
   4   6     0.07   0.06  -0.00    -0.05   0.27  -0.01    -0.07   0.13   0.03
   5   1     0.03   0.01  -0.02     0.04   0.08   0.00    -0.02   0.04   0.02
   6   1     0.03   0.02   0.02     0.01  -0.03  -0.00    -0.02   0.02   0.01
   7   1    -0.00  -0.04  -0.01     0.00   0.04   0.02    -0.02   0.02   0.01
   8   1     0.02   0.03  -0.00    -0.02   0.08  -0.01    -0.03   0.04   0.01
   9   1     0.03  -0.00  -0.00    -0.00   0.07  -0.00    -0.02   0.04   0.01
  10   1     0.04   0.03  -0.03    -0.03  -0.01   0.03    -0.03   0.03   0.01
  11   1     0.00  -0.02  -0.04    -0.04   0.00   0.05    -0.04   0.01   0.01
  12   1    -0.00  -0.02  -0.05    -0.03   0.06   0.05    -0.04   0.03   0.01
  13   8     0.10   0.03  -0.02     0.10   0.13  -0.01    -0.07   0.13   0.04
  14   7    -0.04   0.12   0.02     0.02   0.25  -0.00     0.03   0.08   0.03
  15   1    -0.01   0.05   0.01     0.00   0.07  -0.00     0.01   0.01   0.00
  16   1    -0.02   0.04   0.01     0.01   0.06  -0.00     0.01   0.01   0.01
  17   8    -0.13   0.00  -0.11    -0.03  -0.14   0.05    -0.08   0.02  -0.14
  18   1    -0.03   0.02  -0.02    -0.00  -0.04   0.03    -0.02  -0.00  -0.03
  19   1    -0.05  -0.00  -0.03    -0.01  -0.03   0.01    -0.02   0.01  -0.04
  20   8     0.10   0.28   0.20     0.02  -0.22  -0.05    -0.10  -0.00  -0.06
  21   1     0.02   0.10   0.05     0.01  -0.08  -0.01    -0.02  -0.01  -0.01
  22   1     0.03   0.03   0.05     0.01  -0.04  -0.02    -0.02   0.01  -0.02
  23   8     0.08   0.02  -0.01     0.05   0.07   0.01     0.07   0.10   0.07
  24   1     0.03   0.01  -0.00     0.02   0.03   0.00     0.00   0.03   0.01
  25   1     0.02  -0.00   0.01     0.01   0.02   0.01     0.03  -0.02   0.02
  26   8     0.06  -0.05   0.12     0.05   0.08   0.02     0.21  -0.33   0.06
  27   1     0.02  -0.02   0.00     0.01   0.02   0.02     0.05  -0.09  -0.01
  28   1     0.01   0.02   0.03     0.01  -0.00   0.00     0.04  -0.07   0.01
  29   8     0.05  -0.08  -0.13     0.08   0.01   0.07    -0.03  -0.10   0.02
  30   1     0.02  -0.01  -0.03     0.02  -0.00   0.00     0.00  -0.01  -0.01
  31   1     0.00  -0.02  -0.03     0.03  -0.00   0.02    -0.02  -0.03   0.01
  32   8     0.03  -0.05  -0.08    -0.11  -0.16  -0.04     0.04   0.07  -0.02
  33   1    -0.00  -0.01  -0.02    -0.03  -0.03  -0.00     0.00   0.01  -0.02
  34   1     0.01  -0.00  -0.02    -0.02  -0.03  -0.00     0.01   0.03   0.01
  35   8     0.09   0.06   0.01     0.14   0.06  -0.09    -0.11   0.02  -0.09
  36   1     0.02   0.02   0.01     0.04   0.02  -0.02    -0.02   0.01  -0.02
  37   1     0.02  -0.00  -0.01     0.03   0.00  -0.03    -0.03   0.00  -0.02
  38   8    -0.15   0.00   0.03    -0.15  -0.05  -0.01     0.04   0.00  -0.05
  39   1    -0.04  -0.00   0.01    -0.03  -0.01  -0.00     0.01  -0.00  -0.01
  40   1    -0.03  -0.00   0.01    -0.04  -0.01  -0.00     0.00   0.00  -0.01
  41   8    -0.24  -0.17   0.25    -0.11   0.01   0.05     0.24  -0.07   0.14
  42   1    -0.06  -0.04   0.13    -0.03   0.01   0.03     0.07  -0.02   0.05
  43   1    -0.04  -0.02   0.04    -0.03   0.01   0.01     0.06  -0.00   0.03
  44   8    -0.11   0.00   0.06    -0.09   0.05   0.02     0.25   0.11   0.12
  45   1    -0.04   0.00   0.01    -0.02   0.02   0.01     0.05   0.03   0.02
  46   1    -0.04  -0.01   0.01    -0.02   0.01   0.01     0.07   0.04   0.05
  47   8    -0.07   0.27   0.16     0.05  -0.17  -0.05    -0.10  -0.10   0.00
  48   1    -0.00   0.07   0.04     0.01  -0.05  -0.01    -0.02  -0.02  -0.01
  49   1    -0.03   0.08   0.05     0.01  -0.04  -0.03    -0.04  -0.01  -0.01
  50   8    -0.00  -0.04  -0.07    -0.14  -0.03  -0.10    -0.05   0.03   0.04
  51   1     0.00  -0.02  -0.02    -0.04  -0.02  -0.02    -0.01   0.01   0.00
  52   1     0.01   0.01  -0.02    -0.03   0.01  -0.03    -0.01  -0.00   0.03
  53   8    -0.09   0.15  -0.01     0.01  -0.10   0.15    -0.06  -0.06  -0.03
  54   1    -0.01   0.03  -0.00     0.01   0.00   0.02    -0.02  -0.01  -0.01
  55   1    -0.02   0.05   0.01     0.00  -0.03   0.03    -0.03  -0.03  -0.00
  56   8     0.03  -0.10  -0.09     0.05  -0.10  -0.00    -0.13  -0.01  -0.08
  57   1    -0.01  -0.02  -0.03     0.01  -0.03   0.01    -0.03   0.00  -0.03
  58   1     0.00  -0.03  -0.02    -0.01  -0.02  -0.02    -0.03   0.00  -0.01
  59   8    -0.23  -0.01  -0.03    -0.05   0.19   0.08     0.08   0.12   0.03
  60   1    -0.05  -0.01  -0.01    -0.00   0.04   0.02     0.00   0.01   0.02
  61   1    -0.05   0.01  -0.00     0.00   0.06   0.03     0.02   0.03   0.01
  62   8     0.13  -0.08   0.16     0.05  -0.10  -0.07    -0.06   0.09  -0.09
  63   1     0.03  -0.02   0.04    -0.00  -0.02  -0.01    -0.01   0.02  -0.02
  64   1     0.03  -0.01   0.02     0.02  -0.01  -0.02    -0.02   0.02  -0.02
  65   8    -0.01  -0.01  -0.01    -0.01  -0.20  -0.10    -0.04   0.04  -0.01
  66   1     0.01  -0.00  -0.00     0.00  -0.05  -0.02    -0.00   0.01  -0.01
  67   1    -0.02  -0.00   0.01    -0.03  -0.04  -0.01    -0.00   0.01  -0.01
  68   8     0.05  -0.10  -0.06    -0.03   0.03  -0.11    -0.03  -0.04  -0.05
  69   1     0.02  -0.02  -0.02     0.00  -0.00  -0.01    -0.02  -0.01  -0.01
  70   1     0.01  -0.04  -0.01    -0.01  -0.01  -0.02    -0.01   0.00  -0.01
  71   8     0.00  -0.02   0.00     0.11  -0.06  -0.07    -0.05   0.02  -0.01
  72   1    -0.00  -0.01   0.00     0.02  -0.03  -0.02    -0.01   0.01  -0.00
  73   1     0.01  -0.00  -0.01     0.02  -0.01  -0.03    -0.00   0.00  -0.01
  74   8    -0.12   0.03   0.06    -0.05   0.09   0.01     0.09  -0.07  -0.01
  75   1    -0.04  -0.01   0.03    -0.02   0.02   0.01     0.04  -0.02   0.01
  76   1    -0.01  -0.00   0.00    -0.01   0.02  -0.01     0.01  -0.02  -0.01
  77   8    -0.05  -0.07  -0.07     0.17  -0.03   0.05    -0.08  -0.07   0.06
  78   1    -0.01  -0.01  -0.01     0.04  -0.02   0.01    -0.02  -0.01   0.01
  79   1    -0.01  -0.02  -0.02     0.04  -0.01   0.00    -0.03  -0.02   0.01
  80   8     0.06  -0.05  -0.02    -0.07   0.02  -0.00     0.02   0.03   0.03
  81   1    -0.01  -0.02  -0.00    -0.02   0.01   0.01     0.03   0.02   0.01
  82   1     0.04  -0.00  -0.03    -0.00  -0.00  -0.01     0.01  -0.01   0.02
  83   8     0.08  -0.12  -0.15     0.02   0.10   0.15     0.17  -0.40  -0.09
  84   1     0.02  -0.03  -0.03     0.01   0.02   0.03     0.02  -0.07  -0.01
  85   1     0.03  -0.04  -0.05    -0.00   0.03   0.04     0.04  -0.10  -0.02
  86   8     0.08  -0.04  -0.06     0.05  -0.03  -0.06     0.03  -0.01  -0.04
  87   1     0.02  -0.00  -0.01     0.02   0.00  -0.01     0.01   0.01  -0.00
  88   1     0.02  -0.02  -0.01     0.00  -0.01  -0.01     0.00  -0.01  -0.00
  89   8     0.08  -0.03  -0.04    -0.01  -0.23  -0.06     0.04   0.05  -0.04
  90   1     0.02  -0.01  -0.01     0.01  -0.04  -0.01     0.01   0.01  -0.01
  91   1     0.02  -0.01  -0.02    -0.02  -0.05  -0.02     0.01   0.01  -0.01
                      4                      5                      6
                        a                      a                      a 
 Frequencies --    36.9760                39.2408                40.1809
 Red. masses --    13.6196                13.8734                14.1788
 Frc consts  --     0.0000                 0.0000                 0.0000
 IR Inten    --     1.4191                 2.7383                 3.1202
 Raman Activ --     0.0000                 0.0000                 0.0000
 Depolar     --     0.0000                 0.0000                 0.0000
 Atom AN      X      Y      Z        X      Y      Z        X      Y      Z
   1   6    -0.15   0.00  -0.02     0.04   0.02   0.01     0.01   0.10   0.05
   2   6    -0.16  -0.03   0.04     0.02  -0.12  -0.02    -0.02  -0.03   0.03
   3   6    -0.19   0.04   0.09     0.01  -0.08   0.01    -0.03  -0.04   0.02
   4   6    -0.16   0.01  -0.03     0.00   0.06   0.03    -0.01   0.05  -0.01
   5   1    -0.04   0.00  -0.01     0.03   0.02   0.01     0.02   0.04   0.04
   6   1    -0.04  -0.02   0.01     0.01  -0.05  -0.02     0.00  -0.02   0.00
   7   1    -0.05   0.02   0.02     0.02  -0.02  -0.01     0.01  -0.02   0.00
   8   1    -0.06   0.00  -0.01     0.00   0.02   0.01    -0.01  -0.00   0.00
   9   1    -0.04   0.00  -0.01    -0.00   0.01   0.00    -0.01   0.05   0.01
  10   1    -0.05  -0.02   0.02    -0.01  -0.04   0.01    -0.02  -0.00   0.01
  11   1    -0.06   0.00   0.04    -0.01  -0.04   0.00    -0.02  -0.02   0.00
  12   1    -0.06   0.03   0.03    -0.00  -0.00   0.02    -0.01   0.00   0.01
  13   8    -0.17  -0.00  -0.02     0.09  -0.06  -0.02     0.05   0.03   0.07
  14   7    -0.05  -0.06  -0.03     0.01   0.05   0.05     0.05   0.05  -0.07
  15   1    -0.01  -0.03  -0.01    -0.00   0.02   0.01     0.00   0.01  -0.03
  16   1    -0.01  -0.03  -0.01     0.01   0.00   0.01     0.03   0.02  -0.02
  17   8    -0.01   0.04  -0.14    -0.18   0.02  -0.02     0.06   0.02  -0.00
  18   1    -0.00   0.00  -0.04    -0.04   0.01   0.01     0.01   0.02  -0.03
  19   1    -0.00   0.01  -0.05    -0.05   0.00  -0.01     0.00   0.00   0.00
  20   8     0.05  -0.23   0.34    -0.05  -0.01   0.08    -0.11   0.08   0.01
  21   1     0.03  -0.11   0.11    -0.01  -0.01   0.03    -0.03   0.04  -0.00
  22   1     0.03  -0.04   0.07    -0.01  -0.00   0.02    -0.03  -0.00   0.01
  23   8    -0.10   0.03  -0.04     0.11   0.05  -0.05     0.03  -0.06   0.10
  24   1    -0.03   0.01  -0.01     0.03   0.00  -0.01     0.01  -0.01   0.02
  25   1    -0.02   0.01  -0.01     0.03  -0.00  -0.00     0.00  -0.01   0.02
  26   8    -0.12   0.01   0.03     0.13  -0.09   0.06     0.01   0.07   0.00
  27   1    -0.02   0.01   0.00     0.03  -0.03  -0.00     0.01   0.02  -0.01
  28   1    -0.03   0.02   0.01     0.03  -0.01   0.02    -0.01   0.02  -0.01
  29   8     0.16  -0.09  -0.03     0.02   0.10   0.07     0.07  -0.02   0.03
  30   1     0.04  -0.02  -0.01     0.01   0.03   0.01     0.01  -0.01   0.01
  31   1     0.04  -0.02  -0.01    -0.00   0.02   0.03     0.02  -0.01   0.01
  32   8    -0.04   0.12  -0.03     0.01  -0.10  -0.08     0.10   0.05   0.09
  33   1    -0.01   0.02  -0.01    -0.02  -0.01  -0.02     0.03   0.01   0.01
  34   1    -0.01   0.02  -0.01     0.01  -0.01  -0.02     0.02   0.00   0.02
  35   8    -0.07  -0.07  -0.09     0.05   0.03   0.07    -0.07  -0.03  -0.03
  36   1    -0.03  -0.02  -0.02     0.02  -0.00   0.01    -0.00   0.01   0.01
  37   1    -0.01  -0.01  -0.03     0.01  -0.01   0.01    -0.02  -0.01   0.01
  38   8     0.09   0.05   0.13    -0.01  -0.12  -0.05     0.08   0.07  -0.15
  39   1     0.01   0.02   0.02     0.00  -0.03  -0.01     0.04   0.04  -0.04
  40   1     0.01   0.02   0.03    -0.01  -0.03  -0.02     0.01   0.02  -0.01
  41   8    -0.01   0.11  -0.11     0.08   0.26  -0.52     0.02   0.02  -0.05
  42   1     0.00   0.02  -0.05     0.02   0.06  -0.24    -0.02   0.02  -0.04
  43   1    -0.01   0.02  -0.03    -0.01   0.01  -0.08    -0.00  -0.03  -0.00
  44   8    -0.02  -0.01  -0.09    -0.23  -0.13  -0.04    -0.05  -0.27   0.07
  45   1     0.00  -0.00  -0.02    -0.05  -0.02  -0.01    -0.01  -0.05   0.02
  46   1    -0.01  -0.00  -0.03    -0.06  -0.03  -0.00    -0.01  -0.07   0.03
  47   8    -0.07   0.06   0.09    -0.06   0.05   0.05    -0.14   0.14  -0.05
  48   1    -0.00  -0.01   0.04    -0.02   0.01   0.02    -0.04   0.03  -0.01
  49   1    -0.02   0.02   0.02    -0.02   0.02  -0.01    -0.03   0.02  -0.01
  50   8    -0.04   0.12  -0.02    -0.04  -0.11  -0.05    -0.01   0.07   0.17
  51   1    -0.01   0.04  -0.00    -0.01  -0.03  -0.01     0.01   0.02   0.03
  52   1    -0.01   0.03  -0.01    -0.01  -0.03  -0.01    -0.00   0.00   0.06
  53   8    -0.03  -0.02  -0.16    -0.14   0.02   0.16     0.01   0.18  -0.29
  54   1    -0.01  -0.02  -0.03    -0.02   0.01   0.03    -0.01   0.03  -0.06
  55   1    -0.01  -0.00  -0.03    -0.03   0.01   0.04    -0.00   0.05  -0.06
  56   8    -0.05   0.03  -0.11    -0.01  -0.10  -0.01    -0.06   0.01   0.08
  57   1    -0.01   0.01  -0.03    -0.02  -0.01  -0.01    -0.01   0.00   0.02
  58   1    -0.01   0.01  -0.02    -0.00  -0.03  -0.01    -0.01   0.01   0.03
  59   8     0.08   0.02  -0.03    -0.06  -0.01   0.12    -0.06  -0.08   0.15
  60   1     0.02   0.00  -0.01    -0.01   0.00   0.02    -0.01  -0.02   0.04
  61   1     0.02   0.00  -0.00    -0.01   0.00   0.03    -0.00  -0.00   0.03
  62   8     0.22  -0.07   0.20    -0.00  -0.01   0.04    -0.12  -0.17   0.03
  63   1     0.05  -0.01   0.03    -0.00  -0.00   0.01    -0.03  -0.05   0.03
  64   1     0.05  -0.01   0.03     0.00   0.00   0.01    -0.03  -0.03  -0.01
  65   8     0.07   0.01   0.15     0.00   0.06   0.03     0.00  -0.08  -0.18
  66   1     0.02   0.00   0.04     0.00   0.02  -0.00     0.01  -0.02  -0.04
  67   1     0.02   0.01   0.04    -0.00   0.00   0.01     0.00  -0.01  -0.04
  68   8     0.01   0.00  -0.05    -0.01  -0.03  -0.01     0.07   0.23  -0.12
  69   1    -0.01   0.00  -0.02     0.00  -0.01   0.00    -0.01   0.04  -0.00
  70   1     0.00   0.01  -0.00    -0.00  -0.01  -0.00     0.02   0.07   0.00
  71   8     0.15  -0.04  -0.05     0.00   0.14   0.11    -0.03  -0.10  -0.07
  72   1     0.03  -0.00   0.00     0.00   0.03   0.02    -0.00  -0.03  -0.03
  73   1     0.04  -0.01  -0.01     0.00   0.04   0.02    -0.01  -0.02  -0.02
  74   8    -0.05   0.03  -0.03     0.09  -0.07  -0.02     0.17   0.19  -0.11
  75   1    -0.01   0.01  -0.01     0.02   0.00  -0.03     0.03   0.04  -0.02
  76   1    -0.01   0.01  -0.01     0.01  -0.01   0.01     0.04   0.04  -0.04
  77   8     0.13  -0.10  -0.02    -0.02   0.08   0.13     0.05  -0.09   0.12
  78   1     0.04  -0.02  -0.00    -0.00   0.02   0.03     0.01  -0.03   0.02
  79   1     0.03  -0.03  -0.01    -0.01   0.02   0.04     0.01  -0.02   0.03
  80   8     0.09   0.06  -0.01    -0.01  -0.01   0.01    -0.08  -0.16   0.27
  81   1     0.01   0.01  -0.01    -0.02  -0.00   0.01    -0.01  -0.05   0.04
  82   1     0.02   0.03  -0.01    -0.01  -0.00   0.00    -0.05  -0.03   0.08
  83   8     0.05   0.05  -0.04     0.14  -0.13  -0.13     0.01   0.04  -0.08
  84   1     0.03  -0.00  -0.01     0.02  -0.01  -0.01     0.01   0.01  -0.01
  85   1     0.02   0.02  -0.01     0.05  -0.04  -0.04     0.02   0.01  -0.03
  86   8     0.17  -0.08  -0.01     0.05   0.16  -0.00    -0.02  -0.13   0.02
  87   1     0.02  -0.01  -0.01     0.01   0.03  -0.01     0.00  -0.02   0.01
  88   1     0.05  -0.02  -0.00     0.02   0.05  -0.01    -0.02  -0.04   0.01
  89   8     0.14   0.02   0.10     0.01   0.06   0.01     0.04  -0.11  -0.12
  90   1     0.04   0.01   0.01     0.00   0.02   0.01     0.00  -0.03  -0.02
  91   1     0.02   0.01   0.02     0.01   0.01  -0.01     0.01  -0.02  -0.01
                      7                      8                      9
                        a                      a                      a 
 Frequencies --    43.1910                44.9688                46.6140
 Red. masses --    14.0978                14.0572                13.9431
 Frc consts  --     0.0000                 0.0000                 0.0000
 IR Inten    --     0.3141                 0.1914                 0.1721
 Raman Activ --     0.0000                 0.0000                 0.0000
 Depolar     --     0.0000                 0.0000                 0.0000
 Atom AN      X      Y      Z        X      Y      Z        X      Y      Z
   1   6    -0.03  -0.08  -0.11    -0.06  -0.02  -0.00    -0.03   0.08   0.01
   2   6    -0.03  -0.04   0.00    -0.05   0.06  -0.03    -0.04  -0.03  -0.10
   3   6    -0.08   0.01   0.05    -0.07  -0.03  -0.09     0.06   0.00  -0.10
   4   6    -0.05  -0.06  -0.10    -0.05  -0.02   0.01    -0.01   0.02  -0.03
   5   1    -0.02  -0.03  -0.05    -0.03  -0.01  -0.01     0.00   0.03   0.03
   6   1    -0.01  -0.01   0.01    -0.02   0.03   0.02    -0.01  -0.02  -0.06
   7   1    -0.03   0.01   0.01    -0.03  -0.03  -0.01     0.05   0.00  -0.05
   8   1    -0.02  -0.00  -0.03    -0.02  -0.00   0.00     0.00  -0.01  -0.00
   9   1     0.00  -0.03  -0.03    -0.01  -0.01   0.00    -0.03   0.04  -0.01
  10   1     0.00  -0.02   0.01     0.00   0.03  -0.03    -0.04  -0.01  -0.02
  11   1    -0.02   0.00   0.03    -0.02  -0.00  -0.04     0.00  -0.01  -0.04
  12   1    -0.03   0.00   0.01    -0.02  -0.01  -0.04     0.02   0.01   0.01
  13   8    -0.06  -0.06  -0.09    -0.09   0.02   0.00     0.01   0.01  -0.03
  14   7    -0.01  -0.09  -0.08    -0.09  -0.01   0.02     0.07  -0.00  -0.09
  15   1    -0.00  -0.02  -0.02    -0.03   0.00   0.00     0.02  -0.02  -0.03
  16   1    -0.00  -0.03  -0.02    -0.02  -0.00   0.00     0.02   0.00  -0.02
  17   8    -0.16   0.20   0.15    -0.01  -0.08   0.18    -0.07  -0.15   0.09
  18   1    -0.04   0.03   0.06    -0.00  -0.02   0.03    -0.02  -0.04   0.02
  19   1    -0.02   0.05   0.05    -0.00  -0.02   0.05    -0.02  -0.04   0.03
  20   8    -0.09  -0.04  -0.02     0.21  -0.21   0.05     0.03   0.01   0.04
  21   1    -0.03  -0.01  -0.01     0.06  -0.10   0.01     0.01   0.01   0.02
  22   1    -0.03  -0.01  -0.00     0.05  -0.03   0.01     0.01  -0.00   0.00
  23   8    -0.05   0.10  -0.17    -0.01  -0.01   0.01    -0.03  -0.12   0.04
  24   1    -0.02   0.02  -0.04    -0.02  -0.01   0.00    -0.00  -0.03   0.01
  25   1    -0.01   0.01  -0.04     0.01   0.00  -0.02    -0.01  -0.03   0.02
  26   8    -0.03  -0.08  -0.07     0.07   0.03  -0.30    -0.06  -0.07   0.09
  27   1    -0.00  -0.02  -0.01     0.02   0.01  -0.09    -0.01  -0.02   0.01
  28   1     0.01  -0.01  -0.01     0.01   0.02  -0.08    -0.02  -0.01   0.02
  29   8     0.09   0.02  -0.02     0.05   0.14  -0.12    -0.02   0.15   0.09
  30   1     0.03   0.01  -0.02     0.01   0.03  -0.02    -0.01   0.03   0.04
  31   1     0.02  -0.00   0.01     0.00   0.03  -0.02    -0.01   0.05   0.01
  32   8    -0.11   0.07  -0.01    -0.09  -0.11   0.09    -0.05  -0.13   0.09
  33   1    -0.04   0.03   0.01    -0.02  -0.02   0.03    -0.01  -0.03   0.03
  34   1    -0.02   0.02  -0.02    -0.02  -0.02   0.02    -0.01  -0.04   0.02
  35   8     0.06   0.14   0.15    -0.03  -0.00   0.00    -0.01  -0.04  -0.07
  36   1    -0.00   0.02   0.02    -0.01   0.00   0.00     0.00  -0.01  -0.01
  37   1     0.02   0.04   0.03    -0.01   0.01   0.00    -0.00  -0.01  -0.01
  38   8     0.10   0.09  -0.04    -0.08  -0.03  -0.04     0.11   0.06  -0.05
  39   1     0.02   0.02  -0.01    -0.02  -0.00  -0.01     0.04   0.03  -0.02
  40   1     0.03   0.02  -0.02    -0.02  -0.01  -0.00     0.00   0.03  -0.01
  41   8    -0.02  -0.16   0.15     0.14   0.08   0.10    -0.20  -0.21   0.11
  42   1    -0.02  -0.03   0.06     0.04   0.02   0.02    -0.06  -0.04   0.09
  43   1    -0.00  -0.04   0.03     0.03   0.02   0.03    -0.02  -0.04  -0.01
  44   8     0.04  -0.17   0.07     0.07   0.04   0.19     0.03  -0.13  -0.23
  45   1     0.01  -0.04   0.02    -0.00   0.01   0.04     0.03  -0.01  -0.04
  46   1     0.00  -0.05   0.02     0.02   0.01   0.06    -0.00  -0.04  -0.07
  47   8     0.04  -0.03   0.00     0.18   0.14  -0.22    -0.08  -0.08   0.08
  48   1    -0.01  -0.00  -0.00     0.06   0.01  -0.03    -0.01  -0.02   0.02
  49   1     0.01  -0.01  -0.01     0.04   0.03  -0.06    -0.02  -0.02   0.03
  50   8     0.10   0.10  -0.17    -0.07  -0.04   0.04    -0.14   0.09   0.07
  51   1     0.01   0.02  -0.03    -0.02  -0.02   0.01    -0.03   0.00   0.02
  52   1     0.02   0.03  -0.07    -0.02  -0.01   0.01    -0.03   0.03   0.03
  53   8    -0.12   0.00   0.40    -0.03  -0.01   0.01    -0.08  -0.12   0.06
  54   1    -0.02   0.01   0.09    -0.01  -0.00   0.00    -0.01  -0.02   0.01
  55   1    -0.02   0.00   0.09     0.02   0.01  -0.02    -0.02  -0.04   0.01
  56   8     0.10   0.23  -0.04    -0.02   0.02   0.11    -0.03  -0.09   0.03
  57   1     0.00   0.06  -0.01    -0.00  -0.01   0.04    -0.01  -0.03   0.01
  58   1     0.03   0.04  -0.01    -0.01   0.00   0.02    -0.02  -0.01  -0.00
  59   8     0.03  -0.10   0.09    -0.11  -0.03   0.07     0.21   0.09  -0.05
  60   1     0.01  -0.02   0.02    -0.03  -0.00   0.02     0.05   0.04  -0.01
  61   1     0.01  -0.02   0.01    -0.03  -0.01   0.01     0.05   0.02  -0.02
  62   8    -0.18  -0.03   0.05     0.15   0.05   0.11     0.06  -0.07   0.01
  63   1    -0.05  -0.01   0.03     0.04   0.01   0.02     0.02  -0.02   0.01
  64   1    -0.03  -0.00   0.02     0.03   0.01   0.03     0.01  -0.02  -0.01
  65   8     0.05   0.01  -0.05    -0.11  -0.07  -0.04     0.08   0.15  -0.01
  66   1     0.01  -0.00  -0.00    -0.03  -0.02  -0.00    -0.00   0.03   0.01
  67   1     0.02   0.01  -0.01    -0.03  -0.01  -0.01     0.04   0.04  -0.01
  68   8     0.05   0.08  -0.00     0.13   0.04   0.04     0.11   0.08  -0.17
  69   1     0.02   0.03  -0.02     0.02   0.01   0.01     0.01   0.01  -0.02
  70   1     0.01   0.01   0.01     0.04   0.02   0.01     0.03   0.03  -0.02
  71   8     0.09   0.04  -0.07    -0.09   0.01   0.06     0.03   0.13  -0.03
  72   1     0.02   0.01  -0.02    -0.02  -0.00   0.01     0.01   0.04  -0.01
  73   1     0.03   0.01  -0.03    -0.02   0.01   0.01    -0.00   0.02   0.02
  74   8    -0.01   0.02  -0.09     0.01   0.05  -0.03     0.08   0.13  -0.08
  75   1     0.00   0.00  -0.01     0.01   0.01   0.00    -0.00   0.01  -0.01
  76   1     0.00   0.00  -0.02     0.01   0.01  -0.00     0.03   0.02  -0.04
  77   8     0.09  -0.06   0.07    -0.08   0.05   0.06     0.07   0.22  -0.01
  78   1     0.02  -0.01   0.01    -0.02   0.01   0.02     0.01   0.05  -0.01
  79   1     0.02  -0.01   0.02    -0.01   0.02   0.02     0.02   0.05  -0.01
  80   8    -0.06  -0.15   0.12     0.18   0.03   0.04     0.05  -0.06  -0.05
  81   1     0.00  -0.04   0.02     0.04   0.01   0.01     0.01  -0.03  -0.03
  82   1    -0.02  -0.04   0.03     0.04   0.01   0.01     0.01   0.01  -0.02
  83   8     0.11  -0.02  -0.04     0.10   0.01  -0.37     0.07  -0.07  -0.17
  84   1     0.03  -0.01  -0.01     0.02   0.02  -0.06     0.00   0.00  -0.02
  85   1     0.02   0.01  -0.01     0.05  -0.00  -0.11     0.04  -0.03  -0.06
  86   8     0.10   0.04  -0.15    -0.06   0.02   0.00    -0.10   0.08   0.18
  87   1     0.01   0.01  -0.04    -0.01   0.01   0.00    -0.02   0.00   0.03
  88   1     0.03   0.01  -0.04    -0.02   0.00   0.00    -0.02   0.04   0.03
  89   8     0.04  -0.01  -0.02    -0.11  -0.11   0.03    -0.14   0.09   0.24
  90   1     0.02   0.00  -0.02    -0.03  -0.02   0.01    -0.04   0.02   0.06
  91   1    -0.01   0.00  -0.00    -0.03  -0.03   0.01    -0.02   0.01   0.04
                     10                     11                     12
                        a                      a                      a 
 Frequencies --    48.6347                50.5668                51.9165
 Red. masses --    14.3322                14.2142                13.8417
 Frc consts  --     0.0000                 0.0000                 0.0000
 IR Inten    --     0.3137                 0.3274                 1.5884
 Raman Activ --     0.0000                 0.0000                 0.0000
 Depolar     --     0.0000                 0.0000                 0.0000
 Atom AN      X      Y      Z        X      Y      Z        X      Y      Z
   1   6     0.08  -0.03  -0.03    -0.02  -0.05  -0.06     0.02  -0.15  -0.05
   2   6     0.06  -0.08   0.02    -0.01   0.04  -0.01     0.06   0.05  -0.00
   3   6     0.02  -0.06   0.04    -0.01   0.04  -0.01     0.11   0.09   0.02
   4   6     0.04  -0.01  -0.02    -0.03  -0.02  -0.03     0.08  -0.17  -0.02
   5   1     0.03  -0.01  -0.01    -0.02  -0.02  -0.03    -0.02  -0.06  -0.02
   6   1     0.02  -0.03   0.00    -0.01   0.02   0.00     0.00   0.03  -0.00
   7   1    -0.01  -0.01   0.01    -0.00   0.01  -0.00     0.00   0.04   0.01
   8   1     0.02   0.00  -0.01    -0.01   0.01  -0.01     0.03  -0.05  -0.01
   9   1     0.02  -0.01  -0.01     0.00  -0.03  -0.01     0.02  -0.05  -0.01
  10   1     0.02  -0.03   0.01     0.01   0.01  -0.00     0.04  -0.00   0.00
  11   1     0.01  -0.02   0.02    -0.00   0.01  -0.00     0.06   0.05   0.02
  12   1     0.00  -0.02   0.00    -0.00   0.01  -0.00     0.05  -0.01  -0.00
  13   8     0.09  -0.07  -0.03    -0.06   0.00  -0.04    -0.04  -0.04  -0.05
  14   7    -0.05   0.05  -0.02    -0.07  -0.01   0.00    -0.04  -0.11  -0.02
  15   1    -0.01   0.02  -0.00    -0.02   0.01   0.00    -0.01  -0.02   0.00
  16   1    -0.01   0.02  -0.00    -0.02  -0.00   0.00    -0.02  -0.01   0.00
  17   8    -0.23  -0.03  -0.04     0.13  -0.12   0.08    -0.03   0.02  -0.11
  18   1    -0.06  -0.01   0.00     0.03  -0.02  -0.00    -0.01  -0.02  -0.02
  19   1    -0.06  -0.01  -0.02     0.03  -0.03   0.06     0.02   0.01  -0.05
  20   8    -0.09  -0.05  -0.10    -0.10   0.24  -0.11     0.12   0.09  -0.01
  21   1    -0.01  -0.03  -0.01    -0.03   0.09  -0.03     0.03   0.03  -0.01
  22   1    -0.01   0.01  -0.04    -0.02   0.04  -0.03     0.03   0.02  -0.00
  23   8     0.02   0.01  -0.07    -0.09  -0.22   0.03     0.01   0.08  -0.09
  24   1     0.01  -0.00  -0.02    -0.02  -0.04   0.01    -0.00   0.02  -0.02
  25   1     0.00   0.01  -0.02    -0.03  -0.04   0.01     0.01  -0.01  -0.01
  26   8    -0.02   0.10  -0.04    -0.14  -0.10   0.06     0.04  -0.18   0.06
  27   1    -0.01   0.03   0.01    -0.02  -0.02   0.01     0.02  -0.04   0.02
  28   1    -0.00   0.01  -0.01    -0.04  -0.01   0.02     0.02  -0.04   0.02
  29   8    -0.00  -0.18  -0.06     0.11  -0.01   0.11    -0.00   0.15   0.05
  30   1     0.00  -0.04  -0.01     0.02  -0.01   0.04     0.00   0.04  -0.00
  31   1    -0.01  -0.04  -0.02     0.02   0.00   0.02     0.01   0.04   0.01
  32   8    -0.02  -0.02   0.08    -0.05  -0.24  -0.19     0.00   0.13   0.04
  33   1    -0.02  -0.00   0.02     0.01  -0.05  -0.02    -0.01   0.03  -0.00
  34   1     0.00  -0.00   0.00    -0.02  -0.07  -0.03     0.00   0.03   0.00
  35   8     0.01  -0.06  -0.04    -0.00  -0.01  -0.08    -0.18  -0.12  -0.12
  36   1     0.02  -0.02  -0.02    -0.01  -0.00  -0.02    -0.04  -0.03  -0.03
  37   1    -0.00  -0.03   0.00     0.00   0.02  -0.02    -0.04  -0.02  -0.01
  38   8    -0.00   0.05   0.04    -0.04   0.06   0.08    -0.08  -0.02   0.02
  39   1    -0.00   0.03   0.00    -0.02   0.01   0.02    -0.01   0.01  -0.00
  40   1    -0.01   0.02   0.02    -0.02   0.02  -0.00    -0.02  -0.01   0.03
  41   8     0.10   0.16   0.10     0.09   0.20   0.01    -0.14   0.19   0.09
  42   1     0.02   0.04   0.01     0.02   0.05  -0.04    -0.04   0.05   0.01
  43   1     0.02   0.03   0.03     0.00   0.03   0.03    -0.04   0.04   0.02
  44   8     0.11  -0.07   0.10    -0.04   0.01   0.19    -0.10  -0.01   0.05
  45   1     0.00  -0.02   0.01    -0.02   0.00   0.04    -0.02  -0.01   0.01
  46   1     0.01  -0.04   0.03    -0.02  -0.01   0.05    -0.04  -0.02  -0.01
  47   8    -0.11  -0.03  -0.12    -0.07  -0.04   0.09     0.05  -0.09   0.09
  48   1    -0.03  -0.01  -0.03    -0.02   0.01   0.00     0.03  -0.01   0.01
  49   1    -0.04   0.01  -0.05    -0.01  -0.03   0.05    -0.01   0.00   0.03
  50   8    -0.05   0.01   0.11    -0.04   0.09  -0.33     0.03  -0.06   0.11
  51   1    -0.01  -0.00   0.02    -0.02  -0.01  -0.07     0.01   0.00   0.02
  52   1    -0.00   0.02   0.03     0.00   0.05  -0.10     0.01  -0.02   0.03
  53   8    -0.21  -0.07   0.07     0.09  -0.01  -0.12    -0.05  -0.27  -0.01
  54   1    -0.04  -0.01   0.01     0.02  -0.00  -0.03    -0.02  -0.06  -0.01
  55   1    -0.05  -0.01   0.01     0.01  -0.01  -0.03    -0.01  -0.07  -0.01
  56   8    -0.03  -0.18   0.00     0.08   0.20  -0.15    -0.14  -0.02  -0.01
  57   1    -0.02  -0.03  -0.01     0.03   0.03  -0.01    -0.03   0.00  -0.01
  58   1    -0.01  -0.04   0.00     0.01   0.04  -0.05    -0.02  -0.01   0.01
  59   8    -0.18  -0.07  -0.05    -0.09  -0.03   0.15    -0.01  -0.09   0.07
  60   1    -0.05  -0.03  -0.01    -0.02   0.00   0.04     0.01   0.00   0.01
  61   1    -0.04  -0.00  -0.02    -0.02  -0.01   0.03    -0.01  -0.04   0.01
  62   8     0.03   0.14  -0.19    -0.03   0.10  -0.17     0.09   0.06   0.01
  63   1     0.02   0.02  -0.04     0.01   0.01  -0.04     0.03   0.01   0.01
  64   1     0.00   0.02  -0.04    -0.02   0.01  -0.04     0.01   0.01  -0.01
  65   8     0.05   0.17   0.09     0.04   0.01   0.06    -0.01  -0.16  -0.07
  66   1     0.01   0.04   0.03     0.01  -0.00   0.03    -0.00  -0.04  -0.02
  67   1     0.01   0.04   0.02     0.00   0.01   0.02    -0.02  -0.04  -0.01
  68   8     0.20   0.06  -0.17     0.10   0.01  -0.01     0.02   0.16  -0.10
  69   1     0.03   0.01  -0.02     0.03   0.02  -0.03    -0.02   0.04  -0.02
  70   1     0.05   0.02  -0.02     0.02  -0.00  -0.01     0.01   0.06   0.01
  71   8     0.00   0.05   0.03     0.04  -0.03   0.09     0.03  -0.01   0.04
  72   1     0.00   0.02   0.01     0.01  -0.00   0.02     0.01  -0.02   0.00
  73   1     0.01   0.01   0.01     0.01  -0.01   0.03    -0.00   0.01  -0.00
  74   8     0.03   0.20  -0.03    -0.08   0.07  -0.00    -0.08   0.26   0.02
  75   1     0.01   0.04   0.01    -0.01   0.02   0.00    -0.03   0.06   0.01
  76   1     0.02   0.04  -0.02    -0.01   0.02   0.01    -0.01   0.06   0.00
  77   8    -0.14  -0.12  -0.08     0.07   0.04   0.11     0.10   0.12   0.04
  78   1    -0.02  -0.01  -0.01     0.02   0.01   0.03     0.02   0.02   0.01
  79   1    -0.05  -0.03  -0.02     0.02   0.01   0.03     0.04   0.03   0.01
  80   8     0.22  -0.03   0.02     0.08  -0.03  -0.03     0.08   0.07   0.10
  81   1     0.07  -0.00   0.01     0.02   0.01   0.01     0.01   0.01   0.01
  82   1     0.03  -0.01   0.03     0.00  -0.02   0.01    -0.00   0.04   0.03
  83   8    -0.15   0.10   0.18     0.09  -0.04  -0.06     0.19  -0.07   0.17
  84   1    -0.02  -0.00   0.02     0.02  -0.01   0.00     0.03  -0.00   0.03
  85   1    -0.05   0.03   0.06     0.04  -0.01  -0.03     0.01  -0.00   0.08
  86   8     0.15  -0.01  -0.01     0.02  -0.10   0.19    -0.05   0.10  -0.12
  87   1     0.03  -0.00  -0.01    -0.01  -0.04   0.03    -0.01   0.02  -0.03
  88   1     0.06  -0.01  -0.01     0.01  -0.01   0.04    -0.03   0.03  -0.03
  89   8     0.09   0.07   0.23     0.02  -0.06   0.13    -0.03  -0.06  -0.21
  90   1     0.03   0.01   0.04     0.00  -0.01   0.04    -0.01  -0.01  -0.05
  91   1     0.02   0.01   0.05     0.01  -0.04  -0.01    -0.02  -0.00  -0.03
                     13                     14                     15
                        a                      a                      a 
 Frequencies --    54.7473                57.5685                59.3389
 Red. masses --    13.8169                13.5923                14.2942
 Frc consts  --     0.0000                 0.0000                 0.0000
 IR Inten    --     0.6931                 0.6377                 0.1952
 Raman Activ --     0.0000                 0.0000                 0.0000
 Depolar     --     0.0000                 0.0000                 0.0000
 Atom AN      X      Y      Z        X      Y      Z        X      Y      Z
   1   6    -0.03  -0.01   0.14     0.04  -0.10  -0.17    -0.02   0.03  -0.04
   2   6    -0.05  -0.13   0.01     0.03  -0.09   0.09    -0.03   0.04  -0.02
   3   6     0.04  -0.11   0.01    -0.08  -0.01   0.15    -0.07   0.05  -0.01
   4   6    -0.00  -0.05   0.11    -0.06  -0.04  -0.16    -0.04   0.09   0.01
   5   1     0.00   0.00   0.07     0.01  -0.03  -0.08    -0.00   0.01  -0.03
   6   1    -0.01  -0.05  -0.03     0.01  -0.03   0.04    -0.00   0.01  -0.00
   7   1     0.04  -0.03  -0.01    -0.03   0.01   0.04    -0.02   0.02  -0.00
   8   1     0.01  -0.03   0.04    -0.04   0.01  -0.05    -0.03   0.05  -0.00
   9   1    -0.03   0.02   0.03     0.04  -0.05  -0.04    -0.00  -0.01  -0.00
  10   1    -0.05  -0.04   0.01     0.03  -0.04   0.03    -0.00   0.01  -0.01
  11   1    -0.01  -0.04  -0.01    -0.03  -0.02   0.07    -0.03   0.01   0.01
  12   1     0.01  -0.01   0.03    -0.03   0.01   0.03    -0.03   0.03  -0.00
  13   8     0.02  -0.09   0.10     0.01  -0.10  -0.06    -0.02   0.05  -0.07
  14   7     0.05  -0.07   0.09    -0.10  -0.03  -0.16    -0.01   0.06   0.07
  15   1     0.02  -0.03   0.02    -0.03   0.00  -0.04    -0.01   0.02   0.02
  16   1     0.01  -0.01   0.03    -0.02  -0.01  -0.05     0.00  -0.00   0.01
  17   8    -0.06   0.12  -0.11     0.01  -0.01  -0.01     0.00  -0.00   0.09
  18   1    -0.01   0.04  -0.02     0.00   0.03  -0.01    -0.00  -0.01   0.01
  19   1    -0.03   0.03  -0.03    -0.03  -0.01  -0.01     0.01   0.00   0.00
  20   8    -0.17  -0.18   0.00    -0.12  -0.11   0.08    -0.04   0.17  -0.07
  21   1    -0.03  -0.09   0.02    -0.02  -0.05   0.03    -0.01   0.06  -0.01
  22   1    -0.03   0.01  -0.02    -0.02  -0.01   0.01     0.00   0.03  -0.03
  23   8     0.02   0.01   0.06    -0.01  -0.19  -0.03    -0.11   0.08  -0.05
  24   1     0.01  -0.01   0.02    -0.01  -0.04  -0.01    -0.03   0.03  -0.02
  25   1     0.00   0.00   0.01     0.00  -0.05  -0.02    -0.02   0.01  -0.01
  26   8     0.04   0.02  -0.05    -0.01  -0.15  -0.10    -0.10  -0.04   0.03
  27   1     0.00  -0.00  -0.02     0.02  -0.03  -0.02    -0.02  -0.01   0.00
  28   1    -0.00   0.00  -0.02    -0.01  -0.03  -0.02    -0.02  -0.00   0.01
  29   8    -0.05   0.02   0.10     0.07   0.06   0.19    -0.01   0.03   0.00
  30   1    -0.01   0.00   0.02     0.01   0.01   0.05    -0.00   0.01  -0.01
  31   1    -0.01  -0.00   0.03     0.02   0.02   0.04     0.00  -0.00   0.01
  32   8     0.05   0.04  -0.12     0.12  -0.00   0.10    -0.09   0.24   0.37
  33   1     0.01   0.01  -0.03     0.03  -0.01   0.01    -0.02   0.05   0.07
  34   1     0.01   0.01  -0.02     0.03  -0.01   0.01    -0.02   0.05   0.06
  35   8     0.06  -0.02   0.18     0.11   0.06   0.10     0.11  -0.02  -0.15
  36   1     0.02  -0.01   0.04     0.04   0.01   0.02     0.02  -0.01  -0.04
  37   1     0.01  -0.01   0.04     0.02  -0.01   0.02     0.03   0.00  -0.03
  38   8     0.04   0.01   0.09    -0.14  -0.01  -0.11     0.10   0.09   0.05
  39   1     0.02   0.01   0.02    -0.04  -0.00  -0.03     0.02   0.02   0.01
  40   1    -0.00   0.01   0.03    -0.01  -0.02  -0.01     0.06   0.01   0.03
  41   8    -0.21   0.02   0.11    -0.00  -0.02   0.09    -0.04  -0.07  -0.14
  42   1    -0.05   0.01   0.07     0.01  -0.01   0.04    -0.00  -0.02  -0.05
  43   1    -0.04   0.02   0.01    -0.00   0.02   0.03    -0.02  -0.01  -0.02
  44   8    -0.06   0.02  -0.13    -0.01   0.17   0.08    -0.17  -0.01   0.03
  45   1     0.01   0.01  -0.02     0.00   0.03   0.02    -0.04   0.00   0.01
  46   1    -0.03  -0.01  -0.06    -0.00   0.05   0.01    -0.04  -0.00   0.01
  47   8    -0.11   0.00  -0.10    -0.10   0.09  -0.06    -0.08  -0.02   0.05
  48   1    -0.04  -0.01  -0.02    -0.03   0.01  -0.01    -0.02   0.01   0.00
  49   1    -0.02  -0.01  -0.04    -0.02   0.01  -0.01    -0.02  -0.00   0.02
  50   8    -0.01   0.08  -0.10     0.13  -0.15   0.17     0.27   0.02   0.18
  51   1    -0.00   0.02  -0.03     0.04  -0.03   0.03     0.04   0.03   0.06
  52   1     0.00   0.03  -0.03     0.03  -0.04   0.05     0.06  -0.00   0.01
  53   8    -0.03   0.17  -0.01     0.03   0.26  -0.09    -0.04  -0.06  -0.03
  54   1    -0.00   0.03   0.01     0.01   0.05  -0.01    -0.00  -0.01  -0.01
  55   1    -0.01   0.05   0.01    -0.00   0.07  -0.01    -0.01  -0.02  -0.00
  56   8     0.07   0.01  -0.07     0.05  -0.16   0.10     0.15  -0.03   0.04
  57   1     0.00   0.01  -0.02     0.01  -0.03   0.01     0.03  -0.00   0.01
  58   1     0.01   0.00  -0.02     0.02  -0.04   0.03     0.05  -0.01   0.02
  59   8     0.19   0.05   0.02     0.03   0.06   0.05    -0.05   0.03   0.11
  60   1     0.05   0.01   0.01     0.01   0.04   0.01    -0.00   0.00   0.02
  61   1     0.04   0.00   0.01    -0.01  -0.00   0.00    -0.01   0.01   0.04
  62   8    -0.02   0.28  -0.12    -0.01   0.09  -0.02     0.10   0.02  -0.21
  63   1     0.01   0.06  -0.04    -0.01   0.03  -0.02     0.04  -0.00  -0.05
  64   1    -0.01   0.04   0.01     0.00   0.02   0.00     0.02  -0.00  -0.05
  65   8    -0.03  -0.18   0.01    -0.00   0.09  -0.10    -0.09  -0.10   0.02
  66   1    -0.00  -0.04  -0.00    -0.00   0.02  -0.02    -0.02  -0.03   0.01
  67   1    -0.00  -0.04  -0.00    -0.02   0.02  -0.02    -0.01  -0.01   0.01
  68   8     0.21   0.01  -0.02    -0.07  -0.03  -0.07     0.17  -0.18   0.06
  69   1     0.06   0.01  -0.01    -0.00  -0.02   0.00     0.06  -0.04   0.01
  70   1     0.05  -0.00  -0.00    -0.02  -0.02  -0.02     0.04  -0.05  -0.01
  71   8    -0.05  -0.12   0.11     0.03   0.10  -0.12     0.00  -0.06  -0.04
  72   1    -0.01  -0.04   0.02     0.01   0.03  -0.03    -0.01  -0.02  -0.00
  73   1    -0.02  -0.02   0.02     0.00   0.02  -0.01     0.00  -0.01  -0.02
  74   8     0.04   0.16   0.13    -0.18  -0.01  -0.14     0.03  -0.13   0.02
  75   1    -0.02   0.03   0.03    -0.03  -0.00  -0.03    -0.01  -0.03  -0.00
  76   1     0.02   0.03   0.02    -0.04  -0.00  -0.03     0.02  -0.03   0.01
  77   8     0.02  -0.03   0.10     0.10   0.14   0.05     0.06  -0.06   0.09
  78   1    -0.00  -0.02   0.02     0.02   0.03   0.00     0.01  -0.02   0.01
  79   1     0.01  -0.01   0.02     0.02   0.03   0.01     0.02  -0.01   0.02
  80   8     0.18   0.07  -0.17    -0.01   0.08  -0.12     0.17  -0.08  -0.21
  81   1     0.02   0.02  -0.03    -0.01   0.03  -0.01     0.01  -0.01  -0.03
  82   1     0.04   0.03  -0.04     0.02   0.00  -0.04     0.05  -0.02  -0.06
  83   8    -0.06  -0.05  -0.13     0.14  -0.04   0.11    -0.00  -0.02  -0.09
  84   1    -0.02  -0.00  -0.01     0.03  -0.00   0.04    -0.00  -0.00  -0.01
  85   1     0.01  -0.02  -0.05     0.02   0.02   0.05     0.01  -0.01  -0.03
  86   8    -0.07  -0.01   0.00    -0.02  -0.01   0.11    -0.05  -0.02  -0.10
  87   1    -0.01   0.00   0.01    -0.01  -0.02   0.01    -0.02   0.00  -0.02
  88   1    -0.04  -0.01   0.01    -0.00   0.02   0.01    -0.02  -0.01  -0.02
  89   8     0.01  -0.07  -0.21     0.01   0.04   0.01    -0.11  -0.09   0.04
  90   1     0.00  -0.01  -0.04    -0.01   0.00   0.02    -0.02  -0.02  -0.00
  91   1     0.00  -0.02  -0.05     0.02   0.01   0.02    -0.05   0.00   0.05
                     16                     17                     18
                        a                      a                      a 
 Frequencies --    60.9132                61.9072                63.2888
 Red. masses --    14.0128                14.2607                14.1256
 Frc consts  --     0.0000                 0.0000                 0.0000
 IR Inten    --     1.1670                 2.4679                 0.5890
 Raman Activ --     0.0000                 0.0000                 0.0000
 Depolar     --     0.0000                 0.0000                 0.0000
 Atom AN      X      Y      Z        X      Y      Z        X      Y      Z
   1   6    -0.00   0.01  -0.10    -0.08   0.02   0.08    -0.05   0.01   0.04
   2   6    -0.03  -0.12  -0.05    -0.09  -0.03  -0.00    -0.04   0.02  -0.02
   3   6    -0.07  -0.01   0.03     0.01   0.02   0.01    -0.02  -0.05  -0.07
   4   6    -0.06   0.09  -0.05    -0.06  -0.02   0.05    -0.02  -0.05  -0.01
   5   1     0.01   0.01  -0.04    -0.02   0.01   0.04    -0.01   0.00   0.03
   6   1    -0.00  -0.05  -0.03    -0.03  -0.02  -0.03    -0.01   0.01   0.00
   7   1    -0.00   0.01  -0.01     0.01   0.02  -0.01    -0.01  -0.02  -0.01
   8   1    -0.03   0.05  -0.02    -0.00  -0.02   0.02    -0.00  -0.03   0.00
   9   1    -0.00  -0.02  -0.02    -0.04   0.02   0.02    -0.02   0.02   0.00
  10   1    -0.02  -0.05   0.00    -0.05  -0.02   0.01    -0.01   0.02  -0.01
  11   1    -0.04  -0.03   0.03     0.01   0.01  -0.00    -0.00  -0.01  -0.03
  12   1    -0.03   0.03   0.03     0.01  -0.00   0.02    -0.00  -0.02  -0.02
  13   8     0.03  -0.06  -0.14    -0.07  -0.01   0.06    -0.05   0.00   0.07
  14   7    -0.01   0.04   0.01    -0.08   0.00   0.02    -0.01  -0.04  -0.06
  15   1     0.01   0.01   0.01    -0.03  -0.00  -0.00    -0.01  -0.02  -0.02
  16   1    -0.01  -0.00   0.00    -0.02   0.01   0.00     0.01  -0.00  -0.02
  17   8     0.23   0.01   0.06     0.04  -0.02   0.01     0.09  -0.06  -0.27
  18   1     0.06   0.01   0.00     0.01  -0.01   0.00     0.03  -0.01  -0.02
  19   1     0.05   0.00  -0.01     0.02  -0.00   0.02     0.00  -0.01  -0.13
  20   8    -0.15   0.09   0.04    -0.19  -0.06   0.05    -0.05   0.08  -0.06
  21   1    -0.03   0.01   0.02    -0.03  -0.06   0.03    -0.02   0.04  -0.02
  22   1    -0.03   0.03   0.00    -0.04   0.02   0.00    -0.02   0.01  -0.01
  23   8     0.00   0.07  -0.21     0.10  -0.03   0.09    -0.14   0.05   0.03
  24   1     0.01   0.02  -0.05     0.03  -0.01   0.02    -0.03   0.01   0.01
  25   1    -0.00   0.01  -0.03     0.02  -0.00   0.03    -0.04   0.01   0.01
  26   8    -0.06  -0.02   0.08     0.04   0.12   0.17    -0.15   0.04   0.04
  27   1    -0.02  -0.01   0.01     0.03   0.04   0.05    -0.03   0.01   0.00
  28   1    -0.00   0.01   0.03     0.01   0.03   0.04    -0.03   0.02   0.02
  29   8    -0.06   0.02  -0.03     0.24   0.13  -0.26     0.07   0.05  -0.09
  30   1    -0.01   0.01  -0.03     0.05   0.02  -0.04     0.01   0.01  -0.02
  31   1    -0.01  -0.00   0.00     0.05   0.03  -0.06     0.01   0.01  -0.01
  32   8    -0.05  -0.00  -0.10     0.11  -0.05  -0.02    -0.07   0.17  -0.02
  33   1    -0.01   0.00  -0.01     0.03  -0.01  -0.00    -0.01   0.03  -0.03
  34   1    -0.01  -0.01  -0.03     0.03  -0.01   0.00    -0.02   0.03   0.00
  35   8     0.00   0.06  -0.00    -0.12  -0.04   0.05     0.15   0.04   0.20
  36   1     0.01   0.01  -0.01    -0.03  -0.01   0.01     0.03   0.01   0.05
  37   1     0.00   0.01   0.02    -0.03   0.00   0.02     0.03  -0.02   0.02
  38   8    -0.15  -0.13   0.07    -0.06   0.07  -0.17     0.07  -0.05   0.01
  39   1    -0.03  -0.03   0.02    -0.01   0.01  -0.03     0.02   0.01  -0.01
  40   1    -0.05  -0.03   0.02    -0.01   0.01  -0.04    -0.01  -0.00   0.01
  41   8     0.02   0.07   0.09    -0.01  -0.18  -0.05     0.08   0.02  -0.00
  42   1     0.00   0.02   0.00     0.00  -0.05   0.02     0.02   0.01  -0.01
  43   1     0.02  -0.00   0.00    -0.00  -0.02  -0.01     0.01   0.01   0.02
  44   8     0.18  -0.27  -0.12    -0.06  -0.05  -0.01    -0.05   0.13   0.17
  45   1     0.04  -0.03  -0.02    -0.03  -0.01  -0.01    -0.02   0.01   0.03
  46   1     0.01  -0.11  -0.03    -0.02  -0.02   0.01     0.00   0.05   0.04
  47   8     0.05   0.01   0.13     0.02  -0.07   0.11     0.20  -0.10   0.15
  48   1    -0.01   0.01   0.03    -0.01  -0.02   0.03     0.02  -0.01   0.02
  49   1     0.03  -0.02   0.03     0.01  -0.02   0.01     0.08  -0.07   0.06
  50   8    -0.25  -0.07   0.09    -0.03   0.04   0.04    -0.20   0.03   0.13
  51   1    -0.04  -0.02   0.01     0.00   0.00   0.00    -0.04   0.02   0.02
  52   1    -0.06  -0.03   0.05    -0.01   0.00   0.03    -0.05   0.00   0.04
  53   8     0.21   0.07  -0.09     0.03  -0.11   0.05     0.23   0.00   0.20
  54   1     0.04   0.01  -0.02     0.00  -0.03   0.01     0.06   0.00   0.05
  55   1     0.04   0.01  -0.02     0.01  -0.03   0.01     0.06   0.00   0.05
  56   8    -0.04  -0.06   0.26    -0.08   0.05  -0.01    -0.00  -0.32   0.02
  57   1     0.01  -0.03   0.07    -0.02   0.01  -0.00     0.00  -0.07  -0.01
  58   1    -0.03   0.00   0.05    -0.02   0.01  -0.00    -0.02  -0.05   0.00
  59   8     0.07   0.10  -0.03    -0.16  -0.03  -0.05    -0.08  -0.12   0.06
  60   1     0.01   0.01  -0.00    -0.03   0.00  -0.02    -0.02  -0.03   0.02
  61   1     0.02   0.03  -0.01    -0.04  -0.00  -0.01    -0.02  -0.03   0.01
  62   8    -0.02   0.12  -0.07    -0.07   0.19  -0.05    -0.10   0.05  -0.03
  63   1     0.01   0.02   0.00     0.00   0.03  -0.01    -0.03   0.01  -0.02
  64   1    -0.01   0.03  -0.02    -0.03   0.03   0.00    -0.02   0.01   0.02
  65   8    -0.03  -0.02   0.07    -0.11   0.07  -0.13     0.07  -0.00   0.04
  66   1    -0.01  -0.00   0.01    -0.01   0.02  -0.03     0.01   0.00   0.01
  67   1    -0.02  -0.02   0.02    -0.03   0.02  -0.03     0.02  -0.01   0.01
  68   8     0.10  -0.01   0.20     0.14  -0.12   0.08    -0.03   0.02  -0.23
  69   1     0.01  -0.01   0.06     0.03  -0.02   0.01     0.01  -0.02  -0.01
  70   1     0.03   0.01   0.05     0.04  -0.02   0.01    -0.01  -0.02  -0.05
  71   8     0.06   0.06  -0.04    -0.12   0.03  -0.04     0.05  -0.04   0.03
  72   1     0.01   0.01   0.00    -0.03   0.02  -0.01     0.02  -0.01   0.00
  73   1     0.02   0.02  -0.03    -0.02   0.00  -0.00     0.01  -0.01   0.01
  74   8    -0.11  -0.02   0.04     0.04  -0.14  -0.05     0.05   0.08  -0.08
  75   1    -0.01  -0.00   0.02     0.01  -0.04  -0.01     0.01   0.02  -0.02
  76   1    -0.01  -0.00   0.02     0.02  -0.04  -0.01     0.00   0.02  -0.04
  77   8     0.00  -0.05  -0.00    -0.06   0.14  -0.09     0.05  -0.05   0.03
  78   1     0.00  -0.01  -0.00    -0.02   0.03  -0.02     0.01  -0.01   0.01
  79   1    -0.01  -0.01  -0.00    -0.01   0.04  -0.02     0.02  -0.01   0.02
  80   8     0.18  -0.08   0.13     0.16  -0.04  -0.06    -0.09   0.01  -0.08
  81   1     0.07  -0.04  -0.00     0.02  -0.01  -0.01    -0.03   0.02   0.01
  82   1     0.01  -0.00   0.05     0.05  -0.00  -0.03    -0.01  -0.02  -0.02
  83   8    -0.03  -0.04  -0.06     0.31   0.22   0.15     0.03   0.05  -0.20
  84   1    -0.01  -0.01  -0.01     0.08   0.04  -0.01     0.01   0.01  -0.03
  85   1    -0.00  -0.02  -0.02     0.03   0.07   0.08     0.03   0.00  -0.07
  86   8     0.02   0.11  -0.19     0.06  -0.08   0.03    -0.01  -0.03   0.02
  87   1     0.00   0.02  -0.05     0.02  -0.01   0.01    -0.01   0.00   0.01
  88   1     0.01   0.03  -0.05     0.01  -0.02   0.01    -0.00  -0.01   0.01
  89   8    -0.04   0.06  -0.04     0.10  -0.03  -0.08     0.01   0.05  -0.01
  90   1    -0.01   0.02  -0.02     0.02  -0.01  -0.01     0.00   0.01  -0.00
  91   1    -0.01   0.02  -0.01     0.03  -0.01  -0.02    -0.00   0.02   0.01
                     19                     20                     21
                        a                      a                      a 
 Frequencies --    65.5891                66.6459                69.9160
 Red. masses --    14.3325                13.9833                14.2930
 Frc consts  --     0.0000                 0.0000                 0.0000
 IR Inten    --     0.6103                 3.7293                 0.2847
 Raman Activ --     0.0000                 0.0000                 0.0000
 Depolar     --     0.0000                 0.0000                 0.0000
 Atom AN      X      Y      Z        X      Y      Z        X      Y      Z
   1   6     0.06   0.01   0.06    -0.03   0.03   0.04    -0.03   0.03   0.03
   2   6     0.05  -0.04   0.00    -0.01   0.13   0.08    -0.02   0.04  -0.01
   3   6     0.08  -0.05  -0.02    -0.01   0.11   0.07     0.06   0.03  -0.03
   4   6     0.06  -0.01   0.04    -0.02  -0.00   0.02    -0.03   0.01  -0.00
   5   1     0.02   0.01   0.03    -0.02   0.00   0.01    -0.01   0.01   0.01
   6   1     0.01  -0.02  -0.01    -0.01   0.05   0.03    -0.01   0.01  -0.02
   7   1     0.02  -0.02  -0.00    -0.03   0.03   0.03     0.03   0.01  -0.02
   8   1     0.03  -0.01   0.02    -0.01  -0.00   0.01    -0.00  -0.01   0.00
   9   1     0.01   0.01   0.01     0.00   0.01   0.01    -0.01   0.02   0.00
  10   1     0.00  -0.01   0.00     0.01   0.04   0.02    -0.02   0.01  -0.00
  11   1     0.03  -0.01  -0.01     0.02   0.05   0.03     0.01   0.01  -0.02
  12   1     0.03  -0.02  -0.00     0.01   0.00   0.00     0.02   0.01   0.01
  13   8     0.08  -0.03   0.05    -0.07   0.09   0.10    -0.03   0.03   0.06
  14   7     0.02   0.02   0.02    -0.00   0.00  -0.00    -0.07   0.04  -0.04
  15   1     0.01   0.00   0.01    -0.00  -0.01  -0.01    -0.01   0.00  -0.01
  16   1    -0.01   0.02   0.01     0.00   0.00  -0.00    -0.03   0.02  -0.01
  17   8    -0.05   0.04   0.01     0.00  -0.03  -0.07    -0.12   0.03  -0.18
  18   1    -0.01   0.02  -0.00     0.00   0.01  -0.01    -0.03   0.00  -0.01
  19   1    -0.02   0.01  -0.01    -0.02  -0.01  -0.03    -0.03   0.01  -0.06
  20   8    -0.09  -0.14   0.04     0.15   0.05  -0.14     0.10   0.05  -0.09
  21   1    -0.02  -0.03   0.02     0.02   0.04  -0.05     0.01   0.04  -0.04
  22   1    -0.01  -0.05   0.00     0.02   0.01  -0.02     0.01   0.00  -0.01
  23   8    -0.07   0.01   0.03    -0.09   0.04   0.11    -0.03  -0.08   0.12
  24   1    -0.01   0.00   0.01    -0.04   0.01   0.02    -0.01  -0.02   0.03
  25   1    -0.02  -0.01   0.02    -0.01  -0.01   0.01    -0.01  -0.01   0.02
  26   8    -0.06  -0.08   0.08     0.10  -0.24  -0.24    -0.03   0.06  -0.04
  27   1     0.01  -0.01   0.01     0.04  -0.05  -0.04    -0.01   0.01  -0.01
  28   1    -0.04  -0.02   0.01     0.02  -0.07  -0.06    -0.01   0.01  -0.01
  29   8     0.05   0.22  -0.31    -0.03   0.01  -0.03     0.01  -0.04   0.23
  30   1     0.00   0.04  -0.07    -0.01  -0.00  -0.01     0.00  -0.01   0.07
  31   1     0.01   0.05  -0.07     0.00   0.00  -0.01     0.01   0.01   0.03
  32   8    -0.06   0.05   0.03    -0.10   0.01  -0.05     0.10   0.11   0.06
  33   1    -0.01   0.01   0.01    -0.02  -0.00  -0.02     0.02   0.02  -0.00
  34   1    -0.02   0.01   0.01    -0.03   0.01   0.01     0.02   0.02   0.02
  35   8     0.18  -0.05   0.01     0.04   0.09   0.11     0.03   0.01   0.07
  36   1     0.05  -0.01   0.01     0.01   0.03   0.04    -0.00   0.00   0.02
  37   1     0.04  -0.02  -0.00     0.01   0.01   0.01     0.01  -0.01  -0.00
  38   8    -0.04   0.06   0.14     0.07  -0.04   0.07    -0.20   0.17   0.04
  39   1    -0.02   0.01   0.03     0.01  -0.00   0.01    -0.06   0.02   0.01
  40   1    -0.00   0.01   0.03    -0.01   0.00   0.01    -0.02   0.03   0.01
  41   8     0.14   0.22   0.07    -0.12  -0.06  -0.13     0.08   0.19  -0.01
  42   1     0.03   0.05  -0.03    -0.03  -0.01  -0.04     0.03   0.04  -0.07
  43   1     0.04   0.02   0.02    -0.03  -0.02  -0.03     0.02   0.01  -0.01
  44   8     0.21  -0.01   0.01    -0.12  -0.15  -0.09     0.17  -0.23  -0.09
  45   1     0.03  -0.01  -0.01    -0.03  -0.03  -0.02     0.02  -0.03  -0.02
  46   1     0.05  -0.01   0.01    -0.03  -0.04  -0.02     0.03  -0.09  -0.01
  47   8    -0.27  -0.11   0.01     0.06   0.07  -0.19     0.07  -0.05  -0.02
  48   1    -0.06  -0.03   0.01     0.03   0.02  -0.05     0.02  -0.01  -0.01
  49   1    -0.06  -0.04   0.01     0.02   0.00  -0.02     0.02  -0.01   0.00
  50   8     0.06   0.05  -0.06    -0.17   0.05  -0.04     0.09   0.07   0.07
  51   1     0.00   0.01  -0.01    -0.04   0.01  -0.01     0.03   0.02   0.01
  52   1     0.02   0.03  -0.04    -0.04   0.01  -0.01     0.03   0.02   0.02
  53   8    -0.06   0.11  -0.06     0.07   0.21  -0.03    -0.04  -0.06   0.18
  54   1    -0.00   0.02  -0.01     0.02   0.05  -0.00     0.00  -0.01   0.04
  55   1    -0.03   0.02   0.00     0.02   0.05  -0.01    -0.00  -0.01   0.04
  56   8     0.18  -0.05  -0.00    -0.02  -0.06  -0.02    -0.03  -0.06  -0.13
  57   1     0.03  -0.00  -0.01    -0.01  -0.02  -0.00    -0.01  -0.00  -0.05
  58   1     0.04  -0.01  -0.00    -0.02  -0.00  -0.02     0.00  -0.01  -0.02
  59   8    -0.03  -0.01  -0.12    -0.10  -0.07  -0.06    -0.02   0.08  -0.07
  60   1    -0.01  -0.00  -0.03    -0.01  -0.01  -0.02     0.00   0.04  -0.02
  61   1    -0.00   0.00  -0.03    -0.02  -0.01  -0.01    -0.01   0.02  -0.03
  62   8     0.01  -0.22  -0.05    -0.04   0.05   0.05    -0.03  -0.02   0.03
  63   1    -0.01  -0.04  -0.01    -0.00   0.00   0.03    -0.00  -0.01   0.02
  64   1     0.02  -0.04  -0.01    -0.01   0.01   0.03    -0.01  -0.01   0.02
  65   8    -0.02  -0.04   0.07     0.01   0.03   0.12    -0.07  -0.04  -0.08
  66   1    -0.02  -0.01   0.02    -0.01   0.01   0.03     0.00  -0.01  -0.02
  67   1    -0.00  -0.01   0.02     0.01   0.01   0.03    -0.03   0.00  -0.01
  68   8    -0.07   0.00   0.05     0.19  -0.08   0.03     0.01  -0.18   0.11
  69   1     0.00   0.00   0.01     0.04  -0.02   0.01     0.00  -0.03   0.01
  70   1    -0.02  -0.02   0.00     0.05  -0.02   0.02     0.00  -0.04   0.03
  71   8    -0.01  -0.09  -0.01     0.08  -0.06  -0.12     0.02   0.01  -0.14
  72   1    -0.01  -0.02   0.00     0.01  -0.01  -0.02    -0.00  -0.00  -0.03
  73   1    -0.01  -0.02  -0.00     0.02  -0.02  -0.01    -0.01  -0.01  -0.01
  74   8    -0.08   0.05   0.09     0.04  -0.02  -0.00    -0.23  -0.08   0.04
  75   1     0.00   0.02   0.03    -0.01  -0.01  -0.01    -0.03  -0.01   0.02
  76   1    -0.02   0.02   0.03     0.02  -0.01   0.00    -0.04  -0.02   0.02
  77   8     0.02   0.07  -0.15     0.11  -0.01  -0.12     0.13   0.20  -0.12
  78   1     0.00   0.00  -0.03     0.02  -0.01  -0.03     0.02   0.04  -0.03
  79   1     0.03   0.02  -0.03     0.03  -0.00  -0.03     0.04   0.04  -0.04
  80   8    -0.13  -0.05   0.06     0.14  -0.09   0.11     0.09  -0.13   0.16
  81   1     0.01   0.00   0.01     0.01  -0.04   0.02     0.06  -0.04   0.02
  82   1    -0.06  -0.03   0.04     0.05  -0.00   0.01    -0.00  -0.03   0.06
  83   8     0.29   0.03  -0.01     0.15  -0.09   0.31    -0.13  -0.01  -0.17
  84   1     0.05   0.02  -0.03     0.03  -0.02   0.04    -0.03   0.00   0.00
  85   1     0.03   0.02   0.03    -0.04   0.03   0.15     0.03  -0.03  -0.10
  86   8    -0.19  -0.02  -0.07    -0.12  -0.05   0.03     0.02  -0.06   0.18
  87   1    -0.04   0.01  -0.01    -0.03   0.00   0.02     0.01  -0.02   0.04
  88   1    -0.06  -0.02  -0.01    -0.04  -0.03   0.02    -0.01  -0.01   0.04
  89   8    -0.20   0.06   0.01    -0.12   0.09   0.12     0.12  -0.08  -0.12
  90   1    -0.05   0.00  -0.01    -0.03   0.01   0.02     0.02  -0.01  -0.01
  91   1    -0.04   0.01   0.00    -0.03   0.01   0.02     0.03  -0.01  -0.01
                     22                     23                     24
                        a                      a                      a 
 Frequencies --    70.5783                72.0258                73.2587
 Red. masses --    14.2588                14.3169                14.4724
 Frc consts  --     0.0000                 0.0000                 0.0000
 IR Inten    --     1.0739                 0.6915                 3.5396
 Raman Activ --     0.0000                 0.0000                 0.0000
 Depolar     --     0.0000                 0.0000                 0.0000
 Atom AN      X      Y      Z        X      Y      Z        X      Y      Z
   1   6    -0.07   0.04  -0.02     0.05   0.05   0.03    -0.00  -0.01   0.03
   2   6    -0.08   0.04   0.01     0.04   0.03  -0.04    -0.01  -0.08   0.01
   3   6    -0.13   0.01  -0.00     0.04  -0.05  -0.09    -0.03  -0.09   0.01
   4   6    -0.10   0.07  -0.01     0.07   0.01   0.00    -0.03  -0.00   0.01
   5   1    -0.02   0.01  -0.02     0.01   0.02   0.02     0.01   0.00   0.01
   6   1    -0.02   0.01   0.01     0.01   0.01  -0.00     0.00  -0.03   0.00
   7   1    -0.03  -0.01   0.00     0.02  -0.03  -0.02     0.01  -0.03   0.00
   8   1    -0.04   0.03  -0.01     0.02  -0.01   0.00    -0.01  -0.00   0.00
   9   1    -0.01   0.01  -0.00     0.01   0.03   0.00    -0.01   0.00   0.01
  10   1    -0.02   0.02  -0.00     0.01   0.02  -0.02    -0.01  -0.02   0.00
  11   1    -0.04  -0.00  -0.00     0.01  -0.01  -0.04    -0.03  -0.04  -0.00
  12   1    -0.04   0.01  -0.01     0.01  -0.02  -0.03    -0.02  -0.01   0.01
  13   8    -0.08   0.05   0.00     0.06   0.04   0.03     0.02  -0.06   0.02
  14   7    -0.07   0.06  -0.02     0.02   0.06  -0.03     0.01  -0.03   0.01
  15   1    -0.02   0.00  -0.00    -0.00   0.02  -0.02     0.00  -0.01  -0.00
  16   1    -0.02   0.01  -0.00     0.01   0.02  -0.01     0.01  -0.01   0.00
  17   8     0.05  -0.09  -0.04     0.03   0.14   0.04    -0.04  -0.12  -0.02
  18   1     0.01  -0.02  -0.01     0.00   0.03  -0.00    -0.01  -0.03  -0.00
  19   1     0.01  -0.03   0.01     0.02   0.03   0.02    -0.01  -0.03   0.02
  20   8    -0.14   0.00   0.03     0.03  -0.21   0.01    -0.13   0.06   0.06
  21   1    -0.03  -0.03   0.01     0.01  -0.06   0.01    -0.02  -0.03   0.02
  22   1    -0.03   0.01   0.01     0.01  -0.02  -0.00    -0.03   0.02   0.01
  23   8     0.06  -0.02   0.06    -0.01   0.02   0.03     0.20  -0.03   0.03
  24   1     0.01  -0.00   0.01     0.01   0.00   0.01     0.05  -0.01   0.01
  25   1     0.02  -0.00   0.01    -0.01   0.01   0.02     0.05  -0.00   0.01
  26   8     0.05   0.05   0.04    -0.05   0.04   0.12     0.17   0.12   0.03
  27   1     0.01   0.01   0.01    -0.02   0.00   0.02     0.04   0.02  -0.00
  28   1     0.02   0.02   0.01    -0.03  -0.01   0.02     0.05   0.04   0.01
  29   8    -0.07   0.05  -0.06    -0.10   0.03   0.11    -0.09   0.09   0.01
  30   1    -0.02   0.01   0.00    -0.02   0.01   0.02    -0.03   0.01  -0.03
  31   1    -0.02   0.02  -0.02    -0.00   0.02   0.01     0.01   0.00   0.02
  32   8     0.09  -0.03   0.05     0.02   0.04  -0.08     0.13  -0.15   0.00
  33   1     0.02  -0.01   0.00     0.01   0.01  -0.01     0.03  -0.04  -0.00
  34   1     0.02  -0.00   0.02     0.01   0.01  -0.01     0.04  -0.03   0.00
  35   8    -0.02   0.07   0.02    -0.11   0.03  -0.02    -0.06  -0.08   0.00
  36   1    -0.01   0.02   0.00    -0.02   0.01  -0.00    -0.01  -0.02  -0.00
  37   1    -0.00   0.02  -0.01    -0.03   0.01   0.01    -0.01  -0.02  -0.00
  38   8     0.14  -0.26   0.13     0.04  -0.14  -0.01     0.03   0.11   0.07
  39   1    -0.00  -0.05   0.01     0.00  -0.03  -0.01     0.01   0.02   0.02
  40   1     0.06  -0.08   0.04     0.01  -0.03  -0.01     0.01   0.03   0.01
  41   8    -0.01  -0.00   0.03     0.02  -0.10   0.03     0.02   0.09   0.04
  42   1    -0.01   0.01   0.02     0.01  -0.02   0.04     0.01   0.02  -0.01
  43   1     0.01  -0.01  -0.01    -0.00  -0.00   0.02    -0.00   0.02   0.02
  44   8     0.08  -0.10  -0.08    -0.13   0.07   0.19    -0.01   0.03   0.08
  45   1     0.00  -0.01  -0.02    -0.05  -0.01   0.03     0.00  -0.00   0.02
  46   1     0.01  -0.04  -0.01    -0.02   0.03   0.06    -0.01   0.00   0.01
  47   8     0.11   0.05   0.05    -0.23  -0.24  -0.01     0.21   0.20   0.04
  48   1     0.01   0.01   0.01    -0.04  -0.06   0.00     0.03   0.04   0.02
  49   1     0.03   0.00  -0.00    -0.06  -0.05   0.01     0.05   0.06  -0.03
  50   8     0.40  -0.32  -0.05     0.01  -0.11  -0.01     0.03   0.08  -0.01
  51   1     0.08  -0.05  -0.00     0.00  -0.01  -0.01     0.02  -0.00  -0.00
  52   1     0.09  -0.09  -0.04    -0.00  -0.04   0.01     0.02   0.03   0.02
  53   8     0.09   0.00   0.03    -0.02   0.00  -0.06    -0.03  -0.13   0.05
  54   1     0.02   0.00   0.01    -0.02   0.01  -0.02    -0.00  -0.04   0.02
  55   1     0.02   0.00   0.01    -0.02  -0.02  -0.01     0.01  -0.01   0.01
  56   8    -0.01   0.08  -0.15    -0.07   0.12   0.08    -0.05  -0.00  -0.12
  57   1    -0.01   0.01  -0.03    -0.02   0.03   0.02    -0.01   0.00  -0.03
  58   1     0.04  -0.02  -0.02    -0.01   0.02   0.02    -0.01   0.00  -0.02
  59   8    -0.11   0.05  -0.11    -0.30  -0.19  -0.02     0.05  -0.04   0.09
  60   1    -0.03   0.01  -0.03    -0.04  -0.03  -0.02     0.02  -0.02   0.02
  61   1    -0.02   0.02  -0.03    -0.06  -0.03   0.00     0.01  -0.01   0.03
  62   8    -0.09   0.03  -0.00     0.02   0.11   0.03    -0.03   0.07  -0.04
  63   1    -0.02   0.00   0.01     0.01   0.02   0.01     0.00   0.01  -0.01
  64   1    -0.02   0.01   0.00     0.00   0.02   0.01    -0.01   0.01  -0.01
  65   8    -0.10  -0.15   0.26     0.09   0.02   0.05    -0.08   0.12   0.07
  66   1    -0.02  -0.03   0.05     0.02   0.01   0.00    -0.04   0.03   0.03
  67   1    -0.01  -0.06   0.06     0.01  -0.01   0.01     0.00   0.03   0.01
  68   8     0.05   0.10  -0.24     0.07   0.01   0.13    -0.07  -0.05  -0.03
  69   1     0.00   0.03  -0.06     0.01   0.01   0.02    -0.02  -0.01  -0.02
  70   1     0.01   0.02  -0.03     0.02   0.02   0.03    -0.02  -0.01  -0.01
  71   8     0.05   0.05   0.10     0.27   0.06  -0.22     0.07  -0.08  -0.42
  72   1     0.00  -0.00   0.04     0.05   0.01  -0.03    -0.00  -0.01  -0.07
  73   1     0.01   0.02   0.02     0.05   0.01  -0.03     0.02  -0.03  -0.08
  74   8     0.02   0.12  -0.10     0.04  -0.06  -0.04    -0.06  -0.00   0.06
  75   1     0.01   0.03  -0.01     0.01  -0.01  -0.01    -0.01   0.00   0.01
  76   1     0.00   0.03  -0.03     0.02  -0.01  -0.00    -0.02  -0.00   0.01
  77   8    -0.05   0.07  -0.13     0.26   0.02  -0.15     0.23  -0.18   0.06
  78   1    -0.01   0.02  -0.01     0.06   0.01  -0.04     0.05  -0.05  -0.03
  79   1    -0.00   0.02  -0.03     0.07   0.01  -0.03     0.05  -0.04   0.03
  80   8     0.01  -0.05   0.08     0.09   0.05   0.03    -0.01   0.02  -0.02
  81   1     0.02  -0.02   0.00    -0.01   0.01   0.02    -0.00   0.01   0.00
  82   1    -0.01  -0.01   0.02     0.03   0.02  -0.00    -0.01  -0.00   0.01
  83   8    -0.03   0.02   0.00    -0.14  -0.05  -0.15    -0.03   0.03  -0.01
  84   1    -0.01   0.01  -0.01    -0.04  -0.00  -0.00    -0.02   0.02   0.00
  85   1    -0.01  -0.01   0.00     0.02  -0.05  -0.09    -0.01  -0.00  -0.00
  86   8    -0.05   0.09   0.10    -0.06   0.08   0.06    -0.21  -0.06  -0.20
  87   1    -0.00   0.01   0.02    -0.01   0.02   0.01    -0.02  -0.01  -0.03
  88   1    -0.01   0.02   0.02    -0.01   0.02   0.01    -0.08  -0.03  -0.03
  89   8    -0.04  -0.01  -0.01    -0.02   0.12  -0.06    -0.22   0.19   0.07
  90   1    -0.01   0.01   0.01    -0.01   0.03  -0.00    -0.06   0.01  -0.01
  91   1    -0.01  -0.00   0.00     0.01   0.02  -0.02    -0.03   0.03   0.00
                     25                     26                     27
                        a                      a                      a 
 Frequencies --    75.9105                81.9312                83.3272
 Red. masses --    14.3638                13.7988                14.3284
 Frc consts  --     0.0000                 0.0000                 0.0000
 IR Inten    --     0.8788                 0.6364                 0.9224
 Raman Activ --     0.0000                 0.0000                 0.0000
 Depolar     --     0.0000                 0.0000                 0.0000
 Atom AN      X      Y      Z        X      Y      Z        X      Y      Z
   1   6     0.05   0.05  -0.08    -0.05   0.06  -0.10     0.04   0.07   0.03
   2   6     0.04   0.02  -0.06    -0.06  -0.01  -0.19     0.03   0.06   0.06
   3   6     0.02   0.04  -0.05    -0.01  -0.01  -0.20    -0.02  -0.00   0.03
   4   6     0.02   0.11  -0.03    -0.03   0.06  -0.09     0.07  -0.04  -0.06
   5   1     0.02   0.01  -0.04    -0.00   0.02  -0.01     0.01   0.02   0.04
   6   1     0.01   0.00  -0.02    -0.01  -0.01  -0.07     0.01   0.02   0.04
   7   1     0.02   0.01  -0.02     0.02  -0.01  -0.06    -0.03  -0.01   0.02
   8   1    -0.01   0.05  -0.02     0.00   0.01  -0.02     0.02  -0.04  -0.01
   9   1     0.02  -0.00  -0.02    -0.03   0.02  -0.03     0.01   0.05  -0.00
  10   1     0.01   0.00  -0.01    -0.03  -0.01  -0.05     0.01   0.03   0.01
  11   1    -0.01   0.00  -0.01    -0.01  -0.01  -0.07     0.01   0.01   0.01
  12   1    -0.00   0.03  -0.01     0.00   0.00  -0.04    -0.01  -0.02  -0.02
  13   8     0.06   0.05  -0.10    -0.02   0.02  -0.17     0.04   0.08   0.08
  14   7     0.05   0.08   0.02     0.02   0.03  -0.06     0.10  -0.02  -0.17
  15   1     0.01   0.03   0.01     0.01   0.01  -0.01     0.03  -0.01  -0.05
  16   1     0.01   0.00   0.00    -0.00  -0.00  -0.01     0.02   0.01  -0.04
  17   8    -0.05   0.06  -0.11    -0.02  -0.03   0.00     0.03  -0.15  -0.04
  18   1    -0.01   0.01  -0.01    -0.00   0.01   0.00     0.01  -0.03  -0.01
  19   1    -0.01   0.01  -0.02    -0.02  -0.01   0.02     0.00  -0.04  -0.01
  20   8     0.20  -0.06  -0.07     0.07  -0.07   0.05    -0.19  -0.12   0.08
  21   1     0.04   0.02  -0.03     0.02  -0.01   0.01    -0.03  -0.12   0.04
  22   1     0.04   0.00  -0.01     0.01  -0.01   0.02    -0.03   0.01   0.00
  23   8    -0.06  -0.21  -0.01     0.15  -0.15  -0.09    -0.02   0.13   0.07
  24   1    -0.01  -0.04  -0.01     0.04  -0.03  -0.03    -0.01   0.03   0.02
  25   1    -0.02  -0.04   0.00     0.03  -0.03  -0.02     0.00   0.02   0.02
  26   8    -0.15   0.02  -0.02     0.07  -0.02   0.04     0.05   0.01   0.02
  27   1    -0.02   0.02   0.01     0.01  -0.00   0.02     0.01  -0.00  -0.00
  28   1    -0.04  -0.01  -0.01     0.02  -0.01   0.01     0.01   0.01   0.01
  29   8     0.10   0.01  -0.15    -0.15   0.09  -0.01    -0.09   0.03  -0.09
  30   1     0.01  -0.02  -0.03    -0.04   0.02  -0.00    -0.02   0.01  -0.02
  31   1     0.02  -0.02  -0.01    -0.03   0.02  -0.00    -0.03   0.00  -0.01
  32   8     0.13   0.02  -0.04     0.17  -0.08   0.05    -0.10   0.04   0.13
  33   1     0.03   0.00  -0.02     0.04  -0.02   0.01    -0.02   0.00   0.02
  34   1     0.03  -0.00  -0.01     0.04  -0.03  -0.00    -0.03   0.01   0.04
  35   8    -0.06   0.16  -0.01    -0.05   0.18   0.01    -0.01   0.01  -0.03
  36   1    -0.01   0.03  -0.01    -0.01   0.04  -0.00    -0.00   0.01  -0.00
  37   1    -0.02   0.03  -0.01    -0.01   0.04  -0.01    -0.00  -0.00  -0.01
  38   8    -0.06  -0.09  -0.01     0.14   0.15   0.16    -0.12   0.09  -0.09
  39   1    -0.02  -0.03   0.00     0.02   0.05   0.03    -0.03  -0.00  -0.01
  40   1     0.01  -0.03  -0.00     0.02   0.05   0.04    -0.01   0.01  -0.03
  41   8    -0.08   0.00   0.01     0.13   0.03   0.00    -0.08   0.02  -0.01
  42   1    -0.02   0.00  -0.00     0.04   0.00  -0.03    -0.01   0.00  -0.01
  43   1    -0.02  -0.00  -0.00     0.02   0.00   0.02    -0.02   0.01  -0.00
  44   8    -0.05  -0.09  -0.03     0.05  -0.04   0.10    -0.04  -0.07  -0.04
  45   1     0.01   0.00   0.01     0.00  -0.01   0.02    -0.00  -0.02  -0.01
  46   1    -0.03  -0.04  -0.02     0.01  -0.01   0.03    -0.02  -0.02  -0.02
  47   8    -0.08  -0.22  -0.03    -0.05  -0.03  -0.00     0.09   0.07   0.03
  48   1     0.00  -0.05  -0.01    -0.00  -0.01   0.01     0.00   0.01   0.01
  49   1    -0.02  -0.06   0.02    -0.02   0.00  -0.00     0.03   0.01  -0.02
  50   8     0.15  -0.17   0.04    -0.11   0.24   0.14     0.11   0.01  -0.04
  51   1     0.04  -0.03   0.00     0.00   0.03   0.02     0.01   0.00   0.00
  52   1     0.03  -0.06   0.02    -0.02   0.05   0.08     0.02   0.00  -0.04
  53   8     0.01   0.01   0.11     0.02   0.13   0.05     0.05  -0.01  -0.05
  54   1    -0.00   0.02   0.01     0.00   0.04   0.00     0.01  -0.00  -0.01
  55   1    -0.01  -0.02   0.02    -0.00   0.02   0.01     0.02   0.00  -0.01
  56   8    -0.12   0.03  -0.06    -0.12   0.03  -0.04    -0.02   0.02  -0.13
  57   1    -0.03   0.02  -0.02    -0.02   0.01  -0.01     0.01  -0.00  -0.03
  58   1    -0.01  -0.01   0.00    -0.04   0.02  -0.01     0.01  -0.00  -0.02
  59   8     0.13   0.12   0.16    -0.08  -0.06   0.04     0.01  -0.12  -0.03
  60   1     0.02   0.01   0.05    -0.02  -0.01   0.01    -0.01  -0.03  -0.00
  61   1     0.03   0.03   0.04    -0.01  -0.01   0.00     0.01  -0.02  -0.02
  62   8     0.03   0.14   0.09    -0.04  -0.00   0.15    -0.00   0.16  -0.09
  63   1     0.01   0.03   0.03    -0.01   0.00   0.01     0.01   0.03   0.00
  64   1     0.01   0.04   0.02    -0.01  -0.00   0.03    -0.00   0.04  -0.02
  65   8     0.08   0.16   0.03     0.14  -0.18   0.02     0.42   0.03  -0.26
  66   1     0.01   0.05  -0.00     0.03  -0.05   0.01     0.07  -0.00  -0.04
  67   1     0.00   0.02   0.01     0.03  -0.03   0.01     0.06   0.01  -0.04
  68   8    -0.04   0.01   0.01    -0.01  -0.09  -0.05    -0.07  -0.10   0.07
  69   1    -0.03   0.00  -0.00     0.01  -0.02  -0.01    -0.02  -0.02  -0.00
  70   1    -0.01   0.02   0.02    -0.00  -0.02  -0.04    -0.02  -0.02   0.03
  71   8    -0.14  -0.20   0.07     0.05  -0.08   0.24     0.10  -0.05   0.27
  72   1    -0.02  -0.03   0.01     0.02  -0.04   0.04     0.05  -0.01   0.02
  73   1    -0.02  -0.05   0.01     0.00  -0.01   0.04     0.02   0.00   0.05
  74   8    -0.03  -0.01   0.03    -0.09  -0.07  -0.06    -0.20  -0.08  -0.05
  75   1    -0.01  -0.00   0.00    -0.01  -0.02  -0.00    -0.04  -0.02  -0.01
  76   1    -0.01  -0.00   0.01    -0.02  -0.02  -0.02    -0.04  -0.02  -0.00
  77   8    -0.05  -0.16   0.21    -0.00   0.01   0.02    -0.05  -0.12   0.01
  78   1    -0.02  -0.05   0.04    -0.00  -0.01   0.03    -0.00  -0.03   0.03
  79   1    -0.01  -0.04   0.05     0.03   0.00   0.01     0.00  -0.03   0.00
  80   8     0.09   0.05   0.13     0.03  -0.11  -0.22     0.07   0.06   0.19
  81   1     0.01  -0.01   0.01     0.01  -0.01  -0.04     0.01   0.00   0.04
  82   1     0.03   0.04   0.02    -0.00  -0.05  -0.04     0.03   0.03   0.03
  83   8     0.06   0.11  -0.05    -0.06   0.02   0.23    -0.02  -0.05  -0.05
  84   1     0.02   0.02  -0.03    -0.03   0.01   0.02    -0.01  -0.01  -0.01
  85   1     0.01   0.03  -0.01    -0.07   0.02   0.10    -0.00  -0.02  -0.01
  86   8    -0.14  -0.24  -0.06    -0.09   0.10  -0.01    -0.05   0.11   0.04
  87   1    -0.03  -0.06  -0.01    -0.00   0.00  -0.01    -0.01   0.03   0.01
  88   1    -0.04  -0.07  -0.01    -0.02   0.04  -0.01    -0.00   0.02   0.01
  89   8    -0.06   0.24   0.02    -0.02  -0.08  -0.11    -0.11  -0.02   0.13
  90   1    -0.03   0.02  -0.00    -0.01  -0.01  -0.01    -0.02   0.01   0.03
  91   1     0.02   0.05   0.01     0.00  -0.02  -0.03    -0.04  -0.00   0.03
                     28                     29                     30
                        a                      a                      a 
 Frequencies --    85.8923                88.3917                90.8453
 Red. masses --    14.1609                14.2574                13.2608
 Frc consts  --     0.0000                 0.0000                 0.0000
 IR Inten    --     0.4088                 3.0760                 3.4336
 Raman Activ --     0.0000                 0.0000                 0.0000
 Depolar     --     0.0000                 0.0000                 0.0000
 Atom AN      X      Y      Z        X      Y      Z        X      Y      Z
   1   6    -0.08   0.06   0.04    -0.05  -0.02   0.06     0.02   0.01  -0.01
   2   6    -0.08   0.07   0.05    -0.03   0.08  -0.03    -0.00  -0.10   0.04
   3   6    -0.13  -0.04  -0.02     0.06   0.04  -0.07    -0.20  -0.26  -0.03
   4   6    -0.08  -0.01  -0.04     0.02  -0.09   0.03    -0.09   0.07  -0.01
   5   1    -0.02   0.02   0.03    -0.03  -0.01   0.03     0.02   0.01  -0.01
   6   1    -0.02   0.03   0.04    -0.02   0.03  -0.01     0.02  -0.04   0.06
   7   1    -0.04  -0.03   0.01     0.01   0.01  -0.02    -0.05  -0.12   0.02
   8   1    -0.04  -0.02  -0.01     0.02  -0.04   0.01    -0.05   0.03  -0.01
   9   1    -0.01   0.04   0.00    -0.02   0.01   0.01     0.01  -0.00  -0.00
  10   1    -0.01   0.04  -0.01    -0.01   0.03  -0.01     0.01   0.00  -0.02
  11   1    -0.04  -0.01  -0.02     0.03   0.03  -0.04    -0.09  -0.10  -0.02
  12   1    -0.04  -0.01  -0.02     0.03  -0.01  -0.02    -0.09  -0.04  -0.04
  13   8    -0.10   0.07   0.11    -0.08   0.03   0.05     0.05  -0.07   0.06
  14   7    -0.02  -0.01  -0.14     0.01  -0.08   0.01     0.03   0.00  -0.01
  15   1    -0.01  -0.02  -0.05     0.01  -0.03   0.00     0.01  -0.01  -0.01
  16   1    -0.00   0.01  -0.04    -0.00  -0.01   0.00     0.01  -0.01  -0.01
  17   8    -0.04   0.26   0.11     0.07  -0.16   0.02    -0.02  -0.00  -0.04
  18   1    -0.02   0.03   0.02     0.02  -0.02  -0.00    -0.01  -0.00  -0.01
  19   1     0.02   0.07   0.03    -0.00  -0.04   0.01    -0.00  -0.00  -0.01
  20   8     0.01   0.11  -0.04     0.12  -0.04  -0.04     0.18   0.16  -0.11
  21   1    -0.00   0.05  -0.02     0.01   0.06  -0.03     0.02   0.14  -0.05
  22   1     0.00  -0.01  -0.01     0.01  -0.02   0.01     0.03   0.02  -0.01
  23   8     0.03   0.00   0.17     0.07   0.21   0.02    -0.04  -0.07   0.06
  24   1    -0.01  -0.00   0.04     0.01   0.05   0.01    -0.01  -0.03   0.02
  25   1     0.01   0.00   0.03     0.02   0.04   0.01    -0.01  -0.01   0.00
  26   8     0.08   0.04  -0.00     0.08   0.07   0.13    -0.04  -0.02  -0.04
  27   1     0.02   0.01  -0.00     0.01   0.01   0.03    -0.00   0.00  -0.00
  28   1     0.02   0.01  -0.00     0.01  -0.00   0.02    -0.02  -0.02  -0.02
[...]
  35   8     0.00  -0.00   0.00    -0.00  -0.00   0.00    -0.00  -0.00   0.00
  36   1     0.00   0.00  -0.00    -0.00   0.00  -0.00    -0.00   0.00  -0.00
  37   1    -0.00   0.00  -0.00     0.00  -0.00  -0.00     0.00  -0.00   0.00
  38   8    -0.00  -0.01  -0.00     0.00   0.00   0.00    -0.00  -0.00  -0.00
  39   1     0.00  -0.00  -0.00     0.00   0.00  -0.00     0.00  -0.00  -0.00
  40   1     0.01   0.04   0.01    -0.00  -0.00  -0.00     0.00   0.00   0.00
  41   8     0.00   0.00  -0.00    -0.00  -0.00   0.00     0.00   0.00  -0.00
  42   1    -0.00  -0.00   0.00     0.00   0.00  -0.00    -0.00  -0.01   0.00
  43   1    -0.00   0.00  -0.00    -0.00  -0.00  -0.00     0.00   0.00   0.00
  44   8    -0.00   0.00   0.00     0.00  -0.00  -0.00    -0.00   0.00   0.00
  45   1    -0.00   0.00   0.00     0.00  -0.00  -0.00     0.00   0.00  -0.00
  46   1     0.00  -0.00  -0.00    -0.00   0.00   0.00     0.00  -0.00  -0.00
  47   8    -0.00  -0.00  -0.00     0.00   0.00   0.00     0.19   0.13   0.01
  48   1    -0.00  -0.00  -0.00     0.00   0.00  -0.00     0.02   0.03   0.02
  49   1     0.01   0.01   0.00    -0.00  -0.00  -0.00    -0.79  -0.54  -0.07
  50   8    -0.21   0.10   0.05     0.02  -0.01  -0.00    -0.00   0.00   0.00
  51   1    -0.04   0.00  -0.01     0.00  -0.00   0.00    -0.00   0.00  -0.00
  52   1     0.87  -0.39  -0.17    -0.07   0.03   0.01     0.01  -0.00  -0.00
  53   8     0.00  -0.00   0.00    -0.00  -0.00   0.00    -0.00   0.00  -0.00
  54   1     0.00   0.00   0.00     0.00   0.00  -0.00    -0.00   0.00  -0.00
  55   1    -0.00   0.00  -0.00     0.00   0.00   0.00     0.02  -0.01   0.01
  56   8     0.00   0.00  -0.00    -0.00  -0.00   0.00    -0.00  -0.00  -0.00
  57   1    -0.00   0.00  -0.00     0.00   0.00  -0.00     0.00   0.00   0.00
  58   1    -0.02  -0.01   0.01     0.00   0.00  -0.00    -0.00  -0.00   0.00
  59   8     0.00  -0.00   0.00    -0.00  -0.00  -0.00     0.00  -0.00   0.00
  60   1    -0.00   0.00  -0.00     0.00  -0.00   0.00    -0.00   0.00  -0.00
  61   1    -0.00   0.00   0.00    -0.00   0.00  -0.00     0.00   0.00   0.00
  62   8     0.00  -0.00  -0.00    -0.00   0.00   0.00    -0.00  -0.00  -0.00
  63   1    -0.00  -0.00  -0.00     0.00   0.00  -0.00     0.00   0.00   0.00
  64   1    -0.00   0.00   0.00     0.00  -0.00  -0.00     0.00   0.00   0.00
  65   8    -0.00  -0.00   0.00     0.00   0.00   0.00    -0.00  -0.00  -0.00
  66   1     0.00   0.00  -0.00    -0.00  -0.00  -0.00     0.00   0.00   0.00
  67   1    -0.00   0.00  -0.00    -0.00   0.00  -0.00     0.00   0.00   0.00
  68   8     0.00  -0.00  -0.00    -0.00   0.00   0.00    -0.00  -0.00  -0.00
  69   1    -0.00   0.00   0.00     0.00  -0.00  -0.00    -0.00   0.00   0.00
  70   1    -0.00   0.00  -0.00     0.00  -0.00  -0.00     0.00  -0.00  -0.00
  71   8     0.00   0.00   0.00     0.00   0.01   0.00    -0.00  -0.00  -0.00
  72   1    -0.00   0.00  -0.00     0.00   0.00   0.00     0.00  -0.00   0.00
  73   1    -0.00  -0.00  -0.00    -0.01  -0.03  -0.02     0.00   0.00   0.00
  74   8     0.00  -0.00  -0.00    -0.00   0.00   0.00     0.00  -0.00  -0.00
  75   1    -0.00   0.00   0.00     0.00  -0.00  -0.00    -0.00   0.00   0.00
  76   1    -0.00   0.00   0.00     0.00   0.00  -0.00     0.00   0.00  -0.00
  77   8     0.00   0.00  -0.00     0.00  -0.01   0.00     0.00   0.01  -0.00
  78   1    -0.00   0.00   0.00    -0.00  -0.00   0.00    -0.00   0.00  -0.00
  79   1     0.00  -0.00   0.00    -0.00   0.04  -0.02     0.00  -0.02   0.01
  80   8    -0.00  -0.00  -0.00     0.00   0.00   0.00    -0.00  -0.00  -0.00
  81   1    -0.00   0.00  -0.00     0.00  -0.00   0.00    -0.00   0.00  -0.00
  82   1     0.00   0.00   0.00    -0.00  -0.00  -0.00     0.00   0.00   0.00
  83   8    -0.00   0.00  -0.00    -0.00  -0.00   0.00    -0.00   0.00  -0.00
  84   1    -0.00  -0.00  -0.00     0.00   0.00  -0.00     0.00   0.00  -0.00
  85   1     0.00  -0.00   0.00    -0.00   0.00  -0.00     0.00  -0.00   0.00
  86   8    -0.00  -0.01  -0.02    -0.04  -0.12  -0.20     0.00   0.00   0.00
  87   1     0.00   0.00  -0.00     0.00   0.00  -0.04    -0.00  -0.00   0.00
  88   1     0.01   0.04   0.07     0.16   0.47   0.83    -0.00  -0.00  -0.00
  89   8     0.00  -0.00   0.00     0.01  -0.00   0.00    -0.00  -0.00   0.00
  90   1    -0.00   0.00  -0.00    -0.04   0.01  -0.02     0.00  -0.00   0.00
  91   1     0.00   0.00  -0.00     0.00  -0.00  -0.00     0.00   0.00  -0.00
                    262                    263                    264
                        a                      a                      a 
 Frequencies --  3670.0732              3675.6140              3676.2537
 Red. masses --     1.8343                 1.8356                 1.8393
 Frc consts  --     0.0000                 0.0000                 0.0000
 IR Inten    --    11.9286                13.9065                 6.5152
 Raman Activ --     0.0000                 0.0000                 0.0000
 Depolar     --     0.0000                 0.0000                 0.0000
 Atom AN      X      Y      Z        X      Y      Z        X      Y      Z
   1   6    -0.00  -0.00   0.00     0.00   0.00   0.00    -0.00  -0.00   0.00
   2   6     0.00  -0.00  -0.00    -0.00  -0.00   0.00    -0.00  -0.00   0.00
   3   6    -0.00  -0.00   0.00     0.00   0.00  -0.00     0.00   0.00  -0.00
   4   6    -0.00   0.00   0.00     0.00   0.00   0.00     0.00  -0.00   0.00
   5   1    -0.00   0.00  -0.00    -0.00   0.00   0.00     0.00  -0.00  -0.00
   6   1     0.00   0.00  -0.00     0.00   0.00  -0.00     0.00   0.00  -0.00
   7   1    -0.00  -0.00  -0.00     0.00   0.00   0.00     0.00   0.00   0.00
   8   1     0.00  -0.00  -0.00    -0.00  -0.00  -0.00     0.00   0.00  -0.00
   9   1     0.00   0.00  -0.00     0.00  -0.00  -0.00     0.00   0.00   0.00
  10   1    -0.00   0.00   0.00     0.00  -0.00  -0.00     0.00   0.00  -0.00
  11   1    -0.00   0.00  -0.00    -0.00   0.00  -0.00     0.00   0.00  -0.00
  12   1     0.00   0.00  -0.00     0.00   0.00   0.00    -0.00   0.00  -0.00
  13   8    -0.00  -0.00  -0.00    -0.00   0.00   0.00    -0.00  -0.00  -0.00
  14   7    -0.00  -0.00   0.00     0.00  -0.00  -0.00    -0.00   0.00   0.00
  15   1     0.00   0.00  -0.00    -0.00  -0.00   0.00     0.00   0.00  -0.00
  16   1    -0.00   0.00  -0.00    -0.00   0.00   0.00    -0.00  -0.00  -0.00
  17   8    -0.00   0.00   0.00    -0.00   0.00   0.00     0.00  -0.00  -0.00
  18   1    -0.00   0.00   0.00    -0.00   0.00   0.00     0.00  -0.00  -0.00
  19   1     0.00  -0.00  -0.00     0.00  -0.00  -0.00    -0.00   0.01   0.00
  20   8     0.00   0.00  -0.00     0.02   0.00  -0.01     0.21   0.03  -0.10
  21   1    -0.01  -0.00   0.01    -0.08  -0.01   0.04    -0.87  -0.11   0.38
  22   1     0.00   0.00   0.00     0.00   0.00   0.00     0.03   0.00   0.00
  23   8    -0.00  -0.00   0.00    -0.00  -0.00  -0.00    -0.00  -0.00  -0.00
  24   1     0.00  -0.00  -0.00     0.00   0.00   0.00    -0.00   0.00   0.00
  25   1     0.00   0.00  -0.00     0.00   0.00   0.00     0.00   0.00   0.00
  26   8     0.00  -0.00  -0.00    -0.00  -0.00   0.00    -0.00  -0.00   0.00
  27   1    -0.00   0.00  -0.00     0.00  -0.00   0.00     0.00  -0.00   0.00
  28   1    -0.00  -0.00   0.00     0.00   0.00  -0.00     0.00   0.00  -0.00
  29   8    -0.00  -0.00  -0.00    -0.00  -0.00  -0.00    -0.00   0.00   0.00
  30   1     0.00  -0.00  -0.00     0.00  -0.00   0.00     0.00   0.00   0.00
  31   1     0.01   0.02   0.02     0.00  -0.00   0.00     0.00  -0.00  -0.00
  32   8    -0.00  -0.00   0.00    -0.00  -0.00   0.00     0.00  -0.00  -0.00
  33   1     0.00   0.00  -0.00     0.00   0.00  -0.00     0.00  -0.00   0.00
  34   1     0.00   0.00  -0.00     0.00  -0.00   0.00    -0.00   0.00  -0.00
  35   8     0.00  -0.00   0.00    -0.00  -0.00   0.00    -0.00  -0.00   0.00
  36   1     0.00   0.00  -0.00    -0.00   0.00  -0.00    -0.00   0.00  -0.00
  37   1    -0.00   0.00  -0.00     0.00  -0.00   0.00     0.00  -0.00   0.00
  38   8     0.00   0.00   0.00     0.00  -0.00  -0.00    -0.00  -0.00   0.00
  39   1    -0.00   0.00  -0.00    -0.00   0.00   0.00     0.00  -0.00  -0.00
  40   1    -0.00  -0.00  -0.00     0.00   0.00   0.00     0.00   0.00   0.00
  41   8     0.00   0.00   0.00     0.10   0.21  -0.01    -0.01  -0.02   0.00
  42   1    -0.00  -0.00  -0.00    -0.41  -0.84   0.04     0.04   0.07  -0.00
  43   1    -0.00   0.00  -0.00     0.03   0.02   0.01    -0.00  -0.00  -0.00
  44   8     0.00  -0.00  -0.00     0.04  -0.03  -0.01    -0.01   0.01   0.00
  45   1     0.00   0.00  -0.00     0.01  -0.00  -0.00    -0.00   0.00   0.00
  46   1    -0.00   0.00   0.00    -0.18   0.13   0.05     0.04  -0.03  -0.01
  47   8    -0.00  -0.00  -0.00     0.00   0.00   0.00     0.03   0.02   0.00
  48   1    -0.00  -0.00  -0.00     0.00  -0.00  -0.00     0.01   0.00  -0.00
  49   1     0.02   0.01   0.00    -0.01  -0.00  -0.00    -0.11  -0.07  -0.01
  50   8     0.00  -0.00  -0.00     0.00  -0.00  -0.00    -0.00   0.00   0.00
  51   1     0.00  -0.00   0.00     0.00   0.00   0.00    -0.00   0.00  -0.00
  52   1    -0.01   0.00   0.00    -0.00   0.00   0.00     0.01  -0.00  -0.00
  53   8     0.00  -0.00   0.00    -0.00   0.00  -0.00    -0.00   0.00  -0.00
  54   1     0.00   0.00   0.00     0.00   0.00   0.00     0.00   0.00  -0.00
  55   1    -0.00   0.00  -0.00     0.00  -0.00   0.00     0.00  -0.00   0.00
  56   8    -0.00  -0.00  -0.00    -0.00  -0.00  -0.00    -0.00   0.00   0.00
  57   1     0.00   0.00   0.00     0.00   0.00   0.00    -0.00  -0.00  -0.00
  58   1     0.00   0.00  -0.00     0.00   0.00  -0.00     0.00   0.00  -0.00
  59   8     0.00  -0.00   0.01    -0.00  -0.00   0.00    -0.00   0.00  -0.00
  60   1    -0.01   0.00  -0.03    -0.00  -0.00  -0.00     0.00  -0.00   0.00
  61   1     0.00  -0.00   0.00    -0.00   0.00   0.00     0.00  -0.00  -0.00
  62   8    -0.00  -0.00  -0.00     0.00   0.00   0.00    -0.00  -0.00  -0.00
  63   1     0.00   0.00   0.00    -0.00  -0.00  -0.00    -0.00  -0.00  -0.00
  64   1    -0.00   0.00   0.00    -0.00   0.00   0.00    -0.00   0.00   0.00
  65   8     0.00  -0.00   0.00     0.00   0.00  -0.00     0.00  -0.00  -0.00
  66   1     0.00  -0.00  -0.00    -0.00  -0.00  -0.00     0.00   0.00   0.00
  67   1    -0.00   0.00  -0.00     0.00  -0.00   0.00     0.00   0.00  -0.00
  68   8     0.00  -0.00  -0.00    -0.00  -0.00  -0.00    -0.00   0.00   0.00
  69   1    -0.00   0.00   0.00    -0.00   0.00   0.00     0.00  -0.00  -0.00
  70   1    -0.00   0.00  -0.00     0.00  -0.00  -0.00     0.00  -0.00  -0.00
  71   8     0.00   0.00   0.00     0.00   0.00  -0.00    -0.00  -0.00  -0.00
  72   1     0.00   0.00   0.00    -0.00  -0.00   0.00     0.00  -0.00   0.00
  73   1    -0.00  -0.00  -0.00    -0.00  -0.00  -0.00     0.00   0.00   0.00
  74   8     0.00  -0.00   0.00     0.00  -0.00  -0.00    -0.00   0.00   0.00
  75   1    -0.00   0.00  -0.00    -0.01   0.02   0.01     0.00  -0.00  -0.00
  76   1     0.00   0.00  -0.00     0.00  -0.00   0.00     0.00   0.00  -0.00
  77   8     0.00   0.21  -0.11     0.00  -0.00   0.00    -0.00  -0.00   0.00
  78   1    -0.02   0.03  -0.01     0.00  -0.00   0.00     0.00  -0.00   0.00
  79   1     0.02  -0.86   0.44    -0.00   0.00  -0.00    -0.00   0.01  -0.00
  80   8     0.00  -0.00   0.00    -0.00  -0.00  -0.00    -0.00  -0.00  -0.00
  81   1    -0.00   0.00  -0.00    -0.00   0.00  -0.00    -0.00   0.00  -0.00
  82   1    -0.00  -0.00  -0.00     0.01   0.01   0.02     0.00   0.00   0.00
  83   8     0.00  -0.00   0.00     0.00  -0.00   0.00    -0.00   0.00  -0.00
  84   1     0.00   0.00  -0.00     0.00   0.00   0.00     0.00   0.00  -0.00
  85   1    -0.01   0.00  -0.01    -0.00   0.00  -0.00     0.00  -0.00   0.00
  86   8    -0.00  -0.00  -0.01     0.00   0.00   0.00     0.00   0.00   0.00
  87   1     0.00   0.00  -0.00    -0.00  -0.00   0.00     0.00   0.00   0.00
  88   1     0.01   0.02   0.03    -0.00  -0.00  -0.00    -0.00  -0.00  -0.00
  89   8     0.00  -0.00   0.00    -0.00  -0.00  -0.00    -0.00  -0.00   0.00
  90   1    -0.00   0.00  -0.00     0.00  -0.00   0.00     0.00  -0.00   0.00
  91   1     0.00   0.00  -0.00     0.00   0.00  -0.00     0.00   0.00  -0.00
                    265                    266                    267
                        a                      a                      a 
 Frequencies --  3677.0277              3682.3277              3685.4392
 Red. masses --     1.8417                 1.8375                 1.8414
 Frc consts  --     0.0000                 0.0000                 0.0000
 IR Inten    --    12.8843                10.0508                 7.2314
 Raman Activ --     0.0000                 0.0000                 0.0000
 Depolar     --     0.0000                 0.0000                 0.0000
 Atom AN      X      Y      Z        X      Y      Z        X      Y      Z
   1   6     0.00   0.00   0.00    -0.00   0.00  -0.00    -0.00  -0.00  -0.00
   2   6     0.00   0.00   0.00     0.00   0.00  -0.00    -0.00   0.00   0.00
   3   6     0.00  -0.00  -0.00    -0.00  -0.00   0.00    -0.00  -0.00  -0.00
   4   6     0.00   0.00   0.00     0.00   0.00   0.00     0.00  -0.00  -0.00
   5   1    -0.00  -0.00  -0.00     0.00   0.00   0.00     0.00  -0.00   0.00
   6   1    -0.00  -0.00  -0.00    -0.00  -0.00   0.00     0.00   0.00  -0.00
   7   1    -0.00   0.00   0.00     0.00   0.00  -0.00     0.00   0.00   0.00
   8   1     0.00  -0.00  -0.00    -0.00  -0.00  -0.00    -0.00   0.00   0.00
   9   1    -0.00   0.00  -0.00     0.00  -0.00  -0.00     0.00   0.00   0.00
  10   1     0.00  -0.00  -0.00     0.00  -0.00  -0.00     0.00   0.00   0.00
  11   1    -0.00   0.00  -0.00     0.00  -0.00   0.00     0.00  -0.00   0.00
  12   1     0.00  -0.00   0.00    -0.00  -0.00   0.00    -0.00  -0.00   0.00
  13   8    -0.00   0.00   0.00    -0.00   0.00   0.00    -0.00  -0.00   0.00
  14   7    -0.00  -0.00   0.00    -0.00  -0.00  -0.00    -0.00   0.00  -0.00
  15   1     0.00   0.00  -0.00    -0.00  -0.00  -0.00     0.00   0.00  -0.00
  16   1    -0.00  -0.00  -0.00     0.00  -0.00   0.00     0.00  -0.00   0.00
  17   8     0.00  -0.00  -0.00     0.03  -0.23  -0.03    -0.00   0.00   0.00
  18   1     0.00  -0.00  -0.00     0.03  -0.03  -0.01    -0.00   0.00   0.00
  19   1    -0.00   0.01   0.00    -0.13   0.96   0.11     0.00  -0.01  -0.00
  20   8     0.01   0.00  -0.00    -0.00  -0.00   0.00     0.00   0.00  -0.00
  21   1    -0.03  -0.00   0.01     0.01   0.00  -0.00    -0.00  -0.00   0.00
  22   1     0.00   0.00   0.00    -0.00  -0.00  -0.00     0.00   0.00   0.00
  23   8    -0.00   0.00   0.00     0.00   0.00   0.00    -0.00  -0.00  -0.00
  24   1     0.00  -0.00  -0.00    -0.00  -0.00  -0.00    -0.00  -0.00  -0.00
  25   1    -0.00  -0.00  -0.00    -0.00  -0.00  -0.00     0.00   0.00   0.00
  26   8    -0.00  -0.00   0.00    -0.00   0.00  -0.00    -0.00   0.00  -0.00
  27   1    -0.00   0.00  -0.00     0.00  -0.00   0.00     0.01  -0.01   0.01
  28   1     0.00   0.00  -0.00    -0.00  -0.00   0.00     0.00   0.00  -0.00
  29   8     0.00   0.00   0.00    -0.00   0.00   0.00    -0.00  -0.00  -0.00
  30   1     0.00   0.00  -0.00     0.00  -0.00  -0.00    -0.00   0.00   0.00
  31   1    -0.00  -0.00  -0.00    -0.00  -0.00  -0.00     0.00  -0.00  -0.00
  32   8    -0.00   0.00  -0.00     0.00   0.00  -0.00     0.00  -0.00   0.00
  33   1    -0.00  -0.00   0.00    -0.01  -0.02   0.01     0.00   0.00  -0.00
  34   1     0.00  -0.00   0.00    -0.00   0.00  -0.00    -0.00   0.00  -0.00
  35   8    -0.00   0.00  -0.00    -0.00   0.00   0.00    -0.00  -0.00   0.00
  36   1     0.00  -0.00   0.00    -0.00   0.00  -0.00    -0.00   0.00  -0.00
  37   1     0.00  -0.00   0.00     0.00  -0.00   0.00     0.00  -0.00   0.00
  38   8    -0.00  -0.00   0.00     0.00   0.00   0.00     0.00  -0.00  -0.00
  39   1     0.00  -0.00  -0.00     0.00  -0.00  -0.00    -0.00   0.00   0.00
  40   1     0.00   0.00   0.00    -0.00  -0.00  -0.00     0.00   0.00   0.00
  41   8    -0.03  -0.05   0.00     0.00   0.00  -0.00    -0.00  -0.00   0.00
  42   1     0.10   0.21  -0.01    -0.00  -0.01   0.00     0.00   0.00  -0.00
  43   1     0.01  -0.01   0.01     0.00   0.00  -0.00    -0.00  -0.00  -0.00
  44   8     0.18  -0.13  -0.05    -0.00   0.00   0.00    -0.00   0.00   0.00
  45   1     0.02  -0.01  -0.02    -0.00   0.00   0.00    -0.00  -0.00   0.00
  46   1    -0.74   0.53   0.23     0.01  -0.00  -0.00     0.00  -0.00  -0.00
  47   8     0.00   0.00   0.00    -0.00  -0.00  -0.00     0.00   0.00   0.00
  48   1     0.00  -0.00  -0.00    -0.00  -0.00  -0.00     0.00   0.00   0.00
  49   1    -0.00  -0.00  -0.00     0.01   0.00   0.00    -0.01  -0.00  -0.00
  50   8    -0.00   0.00   0.00     0.00  -0.00  -0.00    -0.00   0.00   0.00
  51   1    -0.00   0.00  -0.00     0.00  -0.00   0.00    -0.00   0.00   0.00
  52   1     0.01  -0.00  -0.00    -0.01   0.00   0.00     0.00  -0.00  -0.00
  53   8    -0.00   0.00   0.00    -0.00   0.00   0.00    -0.00   0.00  -0.00
  54   1    -0.00  -0.00  -0.00     0.00  -0.00   0.00     0.00   0.00   0.00
  55   1     0.00  -0.00   0.00    -0.00   0.00  -0.00     0.00  -0.00   0.00
  56   8     0.00   0.00   0.00     0.00   0.00   0.00    -0.00  -0.00  -0.00
  57   1    -0.00  -0.00  -0.00    -0.01  -0.02  -0.02     0.00   0.00   0.00
  58   1    -0.00  -0.00   0.00     0.00   0.00  -0.00    -0.00  -0.00   0.00
  59   8    -0.00  -0.00   0.00     0.00  -0.00   0.00    -0.00   0.00  -0.00
  60   1    -0.00   0.00  -0.00    -0.00   0.00  -0.00     0.00  -0.00   0.00
  61   1    -0.00   0.00   0.00    -0.00   0.00   0.00     0.00  -0.00  -0.00
  62   8    -0.00   0.00   0.00     0.00   0.00   0.00    -0.00  -0.00  -0.00
  63   1     0.00  -0.00   0.00    -0.00  -0.00  -0.00     0.00   0.00   0.00
  64   1     0.00  -0.00  -0.00     0.00  -0.00  -0.00     0.00  -0.00  -0.00
  65   8    -0.00   0.00   0.00    -0.00   0.00   0.00    -0.00  -0.00  -0.00
  66   1     0.00  -0.00  -0.00    -0.00  -0.00  -0.00     0.00   0.00   0.00
  67   1     0.00  -0.00  -0.00     0.00  -0.00   0.00     0.00  -0.00   0.00
  68   8    -0.00   0.00   0.00    -0.00   0.00   0.00     0.00  -0.00  -0.00
  69   1     0.00  -0.00  -0.00     0.00  -0.00  -0.00    -0.00   0.00   0.00
  70   1     0.00   0.00  -0.00    -0.00   0.00   0.00    -0.00   0.00  -0.00
  71   8    -0.00  -0.00   0.00     0.00   0.00   0.00    -0.00  -0.00  -0.00
  72   1     0.00  -0.00   0.00     0.00  -0.00   0.00     0.00  -0.00   0.00
  73   1     0.00   0.00   0.00    -0.00  -0.00  -0.00     0.00   0.00   0.00
  74   8    -0.00   0.00   0.00     0.00   0.00  -0.00     0.00   0.00   0.00
  75   1     0.00  -0.01  -0.00     0.00  -0.00  -0.00    -0.00  -0.00   0.00
  76   1    -0.00   0.00  -0.00    -0.00  -0.00   0.00    -0.00   0.00   0.00
  77   8    -0.00  -0.00   0.00    -0.00   0.00  -0.00    -0.00  -0.00   0.00
  78   1     0.00  -0.00  -0.00    -0.00   0.00  -0.00     0.00  -0.00   0.00
  79   1    -0.00   0.00  -0.00     0.00  -0.00   0.00    -0.00   0.01  -0.00
  80   8    -0.00   0.00  -0.00     0.00   0.00   0.00    -0.00  -0.00  -0.00
  81   1     0.01  -0.02   0.01    -0.00   0.00   0.00    -0.00   0.00  -0.00
  82   1    -0.01  -0.00  -0.01    -0.00  -0.00  -0.00     0.00   0.00   0.00
  83   8     0.00   0.00   0.00     0.00  -0.00   0.00     0.15  -0.02   0.18
  84   1    -0.00  -0.00  -0.00     0.00   0.00   0.00     0.03   0.01   0.02
  85   1     0.00   0.00   0.00    -0.01   0.00  -0.01    -0.64   0.09  -0.72
  86   8     0.00   0.00   0.00    -0.00  -0.00  -0.00     0.00   0.00   0.00
  87   1     0.00   0.00  -0.00    -0.00  -0.00   0.00    -0.00  -0.00   0.00
  88   1    -0.00  -0.00  -0.00     0.00   0.00   0.00     0.00  -0.00  -0.00
  89   8    -0.00   0.00  -0.00    -0.00  -0.00   0.00    -0.00   0.00  -0.00
  90   1     0.00  -0.00   0.00     0.00  -0.00  -0.00     0.00  -0.00   0.00
  91   1    -0.00  -0.00  -0.00     0.00   0.00  -0.00    -0.00  -0.00   0.00
