      -----------------------------------------------------------      
     |                   =====================                   |     
     |                           x T B                           |     
     |                   =====================                   |     
     |                         S. Grimme                         |     
     |          Mulliken Center for Theoretical Chemistry        |     
     |                    University of Bonn                     |     
      -----------------------------------------------------------      

   * xtb version 6.5.1 (579679a) compiled by 'ehlert@majestix' on 2022-07-11

   xtb is free software: you can redistribute it and/or modify it under
   the terms of the GNU Lesser General Public License as published by
   the Free Software Foundation, either version 3 of the License, or
   (at your option) any later version.
   
   xtb is distributed in the hope that it will be useful,
   but WITHOUT ANY WARRANTY; without even the implied warranty of
   MERCHANTABILITY or FITNESS FOR A PARTICULAR PURPOSE.  See the
   GNU Lesser General Public License for more details.
   
   Cite this work as:
   * C. Bannwarth, E. Caldeweyher, S. Ehlert, A. Hansen, P. Pracht,
     J. Seibert, S. Spicher, S. Grimme, WIREs Comput. Mol. Sci., 2020, 11,
     e01493. DOI: 10.1002/wcms.1493
   
   for GFN2-xTB:
   * C. Bannwarth, S. Ehlert and S. Grimme., J. Chem. Theory Comput., 2019,
     15, 1652-1671. DOI: 10.1021/acs.jctc.8b01176
   for GFN1-xTB:
   * S. Grimme, C. Bannwarth, P. Shushkov, J. Chem. Theory Comput., 2017,
     13, 1989-2009. DOI: 10.1021/acs.jctc.7b00118
   for GFN0-xTB:
   * P. Pracht, E. Caldeweyher, S. Ehlert, S. Grimme, ChemRxiv, 2019, preprint.
     DOI: 10.26434/chemrxiv.8326202.v1
   for GFN-FF:
   * S. Spicher and S. Grimme, Angew. Chem. Int. Ed., 2020, 59, 15665-15673.
     DOI: 10.1002/anie.202004239
   
   for ALPB and GBSA implicit solvation:
   * S. Ehlert, M. Stahn, S. Spicher, S. Grimme, J. Chem. Theory Comput.,
     2021, 17, 4250-4261. DOI: 10.1021/acs.jctc.1c00471
   
   for DFT-D4:
   * E. Caldeweyher, C. Bannwarth and S. Grimme, J. Chem. Phys., 2017,
     147, 034112. DOI: 10.1063/1.4993215
   * E. Caldeweyher, S. Ehlert, A. Hansen, H. Neugebauer, S. Spicher,
     C. Bannwarth and S. Grimme, J. Chem. Phys., 2019, 150, 154122.
     DOI: 10.1063/1.5090222
   * E. Caldeweyher, J.-M. Mewes, S. Ehlert and S. Grimme, Phys. Chem. Chem. Phys.
     2020, 22, 8499-8512. DOI: 10.1039/D0CP00502A
   
   for sTDA-xTB:
   * S. Grimme and C. Bannwarth, J. Chem. Phys., 2016, 145, 054103.
     DOI: 10.1063/1.4959605
   
   in the mass-spec context:
   * V. Asgeirsson, C. Bauer and S. Grimme, Chem. Sci., 2017, 8, 4879.
     DOI: 10.1039/c7sc00601b
   * J. Koopman and S. Grimme, ACS Omega 2019, 4, 12, 15120-15133.
     DOI: 10.1021/acsomega.9b02011
   
   for metadynamics refer to:
   * S. Grimme, J. Chem. Theory Comput., 2019, 155, 2847-2862
     DOI: 10.1021/acs.jctc.9b00143
   
   for SPH calculations refer to:
   * S. Spicher and S. Grimme, J. Chem. Theory Comput., 2021, 17, 1701-1714
     DOI: 10.1021/acs.jctc.0c01306
   
   with help from (in alphabetical order)
   P. Atkinson, C. Bannwarth, F. Bohle, G. Brandenburg, E. Caldeweyher
   M. Checinski, S. Dohm, S. Ehlert, S. Ehrlich, I. Gerasimov, C. Hölzer
   A. Katbashev, J. Koopman, C. Lavigne, S. Lehtola, F. März, M. Müller,
   F. Musil, H. Neugebauer, J. Pisarek, C. Plett, P. Pracht, F. Pultar,
   J. Seibert, P. Shushkov, S. Spicher, M. Stahn, M. Steiner, T. Strunk,
   J. Stückrath, T. Rose, and J. Unsleber
   
 * started run on 2022/10/12 at 03:15:58.515     

           -------------------------------------------------
          |                Calculation Setup                |
           -------------------------------------------------

          program call               : xtb cluster.xyz --gfn2 --ohess
          hostname                   : cn1257
          coordinate file            : cluster.xyz
          omp threads                :                    10

   ID    Z sym.   atoms
    1    6 C      1-4
    2    1 H      5-12, 15, 16, 18, 19, 21, 22, 24, 25, 27, 28, 30, 31, 33,
                  34, 36, 37, 39, 40, 42, 43, 45, 46, 48, 49, 51, 52, 54, 55,
                  57, 58, 60, 61, 63, 64, 66, 67, 69, 70, 72, 73, 75, 76, 78,
                  79, 81, 82, 84, 85, 87, 88, 90, 91
    3    8 O      13, 17, 20, 23, 26, 29, 32, 35, 38, 41, 44, 47, 50, 53, 56,
                  59, 62, 65, 68, 71, 74, 77, 80, 83, 86, 89
    4    7 N      14

molecular fragmentation (1/2 indicates fragments):
111111111111111122222222222222222222222222222222222222222222222222222222
2222222222222222222
# atoms in fragment 1/2:    16    75
 fragment masses (1/2) :       88.13      450.38
CMA distance (Bohr)    :   1.982
constraining FC (au)   :  0.0500

           -------------------------------------------------
          |                 G F N 2 - x T B                 |
           -------------------------------------------------

        Reference                      10.1021/acs.jctc.8b01176
      * Hamiltonian:
        H0-scaling (s, p, d)           1.850000    2.230000    2.230000
        zeta-weighting                 0.500000
      * Dispersion:
        s8                             2.700000
        a1                             0.520000
        a2                             5.000000
        s9                             5.000000
      * Repulsion:
        kExp                           1.500000    1.000000
        rExp                           1.000000
      * Coulomb:
        alpha                          2.000000
        third order                    shell-resolved
        anisotropic                    true
        a3                             3.000000
        a5                             4.000000
        cn-shift                       1.200000
        cn-exp                         4.000000
        max-rad                        5.000000


          ...................................................
          :                      SETUP                      :
          :.................................................:
          :  # basis functions                 184          :
          :  # atomic orbitals                 184          :
          :  # shells                          122          :
          :  # electrons                       237          :
          :  max. iterations                   250          :
          :  Hamiltonian                  GFN2-xTB          :
          :  restarted?                      false          :
          :  GBSA solvation                  false          :
          :  PC potential                    false          :
          :  electronic temp.          300.0000000     K    :
          :  accuracy                    1.0000000          :
          :  -> integral cutoff          0.2500000E+02      :
          :  -> integral neglect         0.1000000E-07      :
          :  -> SCF convergence          0.1000000E-05 Eh   :
          :  -> wf. convergence          0.1000000E-03 e    :
          :  Broyden damping             0.4000000          :
          ...................................................

 iter      E             dE          RMSdq      gap      omega  full diag
   1   -148.6751414 -0.148675E+03  0.396E+00    6.45       0.0  T
   2   -148.7331115 -0.579701E-01  0.236E+00    6.07       1.0  T
   3   -148.7286951  0.441640E-02  0.680E-01    6.68       1.0  T
   4   -148.7436732 -0.149781E-01  0.140E-01    6.13       1.0  T
   5   -148.7439361 -0.262860E-03  0.494E-02    6.12       1.0  T
   6   -148.7439472 -0.111799E-04  0.198E-02    6.13       1.0  T
   7   -148.7439489 -0.168423E-05  0.581E-03    6.14       1.8  T
   8   -148.7439493 -0.361470E-06  0.138E-03    6.14       7.6  T
   9   -148.7439493 -0.115054E-07  0.436E-04    6.14      24.1  T
  10   -148.7439493 -0.190482E-08  0.782E-05    6.14     134.1  T

   *** convergence criteria satisfied after 10 iterations ***

         #    Occupation            Energy/Eh            Energy/eV
      -------------------------------------------------------------
         1        2.0000           -0.7005730             -19.0636
       ...           ...                  ...                  ...
       113        2.0000           -0.4240719             -11.5396
       114        2.0000           -0.4192214             -11.4076
       115        2.0000           -0.4168776             -11.3438
       116        2.0000           -0.4113991             -11.1947
       117        2.0000           -0.4065417             -11.0626
       118        2.0000           -0.4010276             -10.9125
       119        1.0000           -0.2631164              -7.1598 (HOMO)
       120                         -0.0374220              -1.0183 (LUMO)
       121                         -0.0203599              -0.5540
       122                         -0.0172732              -0.4700
       123                         -0.0071595              -0.1948
       124                          0.0124575               0.3390
       ...                                ...                  ...
       184                          0.4107130              11.1761
      -------------------------------------------------------------
                  HL-Gap            0.2256944 Eh            6.1415 eV
             Fermi-level           -0.2411706 Eh           -6.5626 eV

 SCC (total)                   0 d,  0 h,  0 min,  0.104 sec
 SCC setup                      ...        0 min,  0.001 sec (  0.560%)
 Dispersion                     ...        0 min,  0.002 sec (  1.646%)
 classical contributions        ...        0 min,  0.000 sec (  0.270%)
 integral evaluation            ...        0 min,  0.006 sec (  5.739%)
 iterations                     ...        0 min,  0.074 sec ( 71.056%)
 molecular gradient             ...        0 min,  0.021 sec ( 19.761%)
 printout                       ...        0 min,  0.001 sec (  0.886%)

         :::::::::::::::::::::::::::::::::::::::::::::::::::::
         ::                     SUMMARY                     ::
         :::::::::::::::::::::::::::::::::::::::::::::::::::::
         :: total energy            -147.740481507886 Eh    ::
         :: gradient norm              0.000272987422 Eh/a0 ::
         :: HOMO-LUMO gap              6.141457586425 eV    ::
         ::.................................................::
         :: SCC energy              -148.743949293377 Eh    ::
         :: -> isotropic ES            0.790465896558 Eh    ::
         :: -> anisotropic ES         -0.140186950964 Eh    ::
         :: -> anisotropic XC         -0.008411499126 Eh    ::
         :: -> dispersion             -0.070042636664 Eh    ::
         :: repulsion energy           0.997160853362 Eh    ::
         :: add. restraining           0.000000000000 Eh    ::
         :: total charge               0.000000000000 e     ::
         :::::::::::::::::::::::::::::::::::::::::::::::::::::

      ----------------------------------------------------------- 
     |                   =====================                   |
     |                        A N C O P T                        |
     |                   =====================                   |
     |               Approximate Normal Coordinate               |
     |                Rational Function Optimizer                |
      ----------------------------------------------------------- 

          ...................................................
          :                      SETUP                      :
          :.................................................:
          :   optimization level            normal          :
          :   max. optcycles                   273          :
          :   ANC micro-cycles                  20          :
          :   degrees of freedom               267          :
          :.................................................:
          :   RF solver                   davidson          :
          :   write xtbopt.log                true          :
          :   linear?                        false          :
          :   energy convergence         0.5000000E-05 Eh   :
          :   grad. convergence          0.1000000E-02 Eh/α :
          :   maximium RF displ.         1.0000000          :
          :   Hlow (freq-cutoff)         0.1000000E-01      :
          :   Hmax (freq-cutoff)         5.0000000          :
          :   S6 in model hess.         20.0000000          :
          ...................................................

generating ANC from model Hessian ...
Using Lindh-Hessian (1995)
 Shifting diagonal of input Hessian by   1.007984303025700E-002
 Lowest  eigenvalues of input Hessian
    0.010000    0.010079    0.000000    0.000000    0.000000    0.000000
    0.000000    0.000000    0.010133    0.010192    0.010227    0.010342
    0.010399    0.010423    0.010443    0.010491    0.010512    0.010541
 Highest eigenvalues
    1.411073    1.418730    1.433373    1.473639    1.533895    1.711639
 

........................................................................
.............................. CYCLE    1 ..............................
........................................................................
   1   -148.7439493 -0.148744E+03  0.256E-05    6.14       0.0  T
   2   -148.7439493 -0.511591E-11  0.148E-05    6.14     710.3  T
   3   -148.7439493 -0.133582E-11  0.483E-06    6.14    2170.2  T
     SCC iter.                  ...        0 min,  0.019 sec
     gradient                   ...        0 min,  0.020 sec
 * total energy  :  -147.7404815 Eh     change       -0.6980372E-10 Eh
   gradient norm :     0.0002736 Eh/α   predicted     0.0000000E+00 (-100.00%)
   displ. norm   :     0.0103278 α      lambda       -0.7728869E-07
   maximum displ.:     0.0035977 α      in ANC's #2, #4, #37, ...

   *** GEOMETRY OPTIMIZATION CONVERGED AFTER 1 ITERATIONS ***

------------------------------------------------------------------------
 total energy gain   :        -0.0000000 Eh       -0.0000 kcal/mol
 total RMSD          :         0.0000000 a0        0.0000 Å
 total power (kW/mol):        -0.0000002 (step)   -0.0000 (real)
------------------------------------------------------------------------

 ANCopt (total)                0 d,  0 h,  0 min,  0.239 sec
 optimizer setup                ...        0 min,  0.001 sec (  0.263%)
 model hessian                  ...        0 min,  0.180 sec ( 75.150%)
 ANC generation                 ...        0 min,  0.009 sec (  3.698%)
 coordinate transformation      ...        0 min,  0.000 sec (  0.031%)
 single point calculation       ...        0 min,  0.048 sec ( 19.931%)
 optimization log               ...        0 min,  0.002 sec (  0.723%)
 hessian update                 ...        0 min,  0.000 sec (  0.001%)
 rational function              ...        0 min,  0.000 sec (  0.084%)

================
 final structure:
================
91
 xtb: 6.5.1 (579679a)
C            0.53032039000000        0.02200687850000        0.68215277100000
C           -1.83824870330000        0.55221798290000        0.55666330360000
C           -2.04248964770000        1.38699333600000       -0.69799998930000
C            1.07426124380000        0.98270114710000       -0.29086154750000
H            1.09949680400000       -0.91814943890000        0.68287814230000
H           -2.74787186350000       -0.00340297630000        0.79075095480000
H           -2.42673551210000        0.77379961740000       -1.50589740650000
H            1.16423152840000        0.72538296220000       -1.32791612590000
H            0.55739058410000        0.45958561050000        1.68411728980000
H           -1.58813470280000        1.19683612430000        1.40281923980000
H           -2.76391827030000        2.17221173430000       -0.49432315940000
H           -1.10238114270000        1.83977978380000       -1.00061271870000
O           -0.81829443970000       -0.43457111660000        0.41402415560000
N            1.72107694450000        2.13288832910000        0.15950250950000
H            2.44723297500000        2.43779364140000       -0.47941061080000
H            2.07965569290000        2.03096940140000        1.11083626120000
O            0.83709460320000       -4.78379059100000       -0.08184422910000
H           -0.13403872390000       -4.63263972740000        0.06871212370000
H            0.94131763140000       -5.72899232690000       -0.19029368670000
O           -4.32268876360000       -1.23762634280000        1.88461676040000
H           -5.18518257680000       -1.34964638510000        2.28522169530000
H           -3.68251978320000       -1.19668833510000        2.63860550420000
O           -0.43971752760000       -1.36808684910000       -2.14305622430000
H           -0.62575360870000       -0.96582244020000       -1.27294753540000
H           -1.31154394110000       -1.73321394880000       -2.45516429430000
O           -2.84723002510000       -2.08318306530000       -2.82222919680000
H           -3.22978402410000       -1.22459510650000       -3.09059708630000
H           -3.23773644550000       -2.29740408250000       -1.96018750120000
O           -1.63856311400000        2.00863385090000       -4.03451380160000
H           -0.85391263180000        1.43837601920000       -4.06862895370000
H           -1.42800754540000        2.69411890860000       -3.37886302180000
O            1.80761484140000       -2.76013928890000       -1.66615848010000
H            1.52000219900000       -3.57005362060000       -1.20997380220000
H            0.97683182810000       -2.27407899890000       -1.85422519100000
O           -0.84218437330000       -2.48501512400000        2.28013022080000
H           -0.91832615010000       -1.77197225130000        1.62019874810000
H            0.10368707920000       -2.72853413700000        2.30253558920000
O            4.44318799860000        0.71542002570000        0.64993952760000
H            4.05528106820000        1.09250448430000        1.45046436910000
H            4.04644289580000       -0.16440539200000        0.56224774710000
O            1.14861285210000        3.35299803630000        4.13267319600000
H            1.55199223880000        4.21954561700000        4.07330636800000
H            0.34773617180000        3.38020115680000        3.57423558350000
O           -1.13867828430000        3.24264763360000        2.60649746080000
H           -0.78559010700000        3.57750993520000        1.73350502600000
H           -1.89017359070000        3.79590376460000        2.82066543340000
O           -3.80571845340000       -2.76678425820000       -0.28783611250000
H           -3.92191961950000       -2.16231419920000        0.47760841420000
H           -4.60433412950000       -3.29389493590000       -0.33688441450000
O            3.43260474580000       -1.88608156180000        0.24090594830000
H            2.85099696350000       -2.11375031480000       -0.52609643790000
H            4.28720951290000       -2.27771959970000        0.05388482850000
O           -1.68163009960000       -4.37202063800000        0.54690659470000
H           -1.48900885490000       -3.80192517370000        1.31867326830000
H           -2.35411187870000       -3.88292479650000        0.04746834150000
O            1.76864490960000       -3.16476377260000        1.98770118640000
H            1.52202608060000       -3.87784805060000        1.37402469490000
H            2.43742338680000       -2.64525631800000        1.50236391820000
O           -0.06867317700000        4.14926224420000        0.41182316110000
H           -0.46418004500000        4.14820066970000       -0.47478188810000
H            0.65979180920000        3.48521821700000        0.34225295350000
O           -2.58533020470000       -1.18482842450000        3.89933251470000
H           -2.04702891220000       -0.38982027910000        4.02796419470000
H           -1.97191494940000       -1.83414074740000        3.51338402440000
O            3.85683635580000        1.63481610770000       -1.87681651950000
H            3.77390018370000        0.79176147870000       -2.35419485390000
H            4.21413462950000        1.39448448740000       -1.00173980370000
O            1.71262363620000       -0.84284325470000        3.78225869750000
H            1.77897215410000       -1.71267817280000        3.37405863550000
H            0.77594167360000       -0.61042275420000        3.81803704680000
O            1.70908373810000        2.70804460140000       -3.19091697640000
H            2.53082643430000        2.47236259830000       -2.72160904630000
H            1.40819922400000        1.89321695490000       -3.61004955110000
O            2.74383489550000        1.50418200830000        2.79436379140000
H            2.30407058920000        2.14908280260000        3.37265069070000
H            2.51703591420000        0.63137489680000        3.16472731850000
O           -0.49079221930000        3.90407724250000       -2.32630368860000
H            0.37225369550000        3.47996716800000       -2.56206275690000
H           -0.48631922180000        4.75226352560000       -2.77195653580000
O           -0.63583686100000        0.84552819670000        3.99697227520000
H           -0.87924422010000        1.60526057890000        3.44447595490000
H           -0.10375959500000        1.21228018300000        4.70818709570000
O           -3.71684460850000        0.39653090960000       -3.53326500490000
H           -2.97499917440000        1.01946254180000       -3.71474873630000
H           -4.33344002060000        0.50226166240000       -4.25740228140000
O            0.50749998780000        0.18371515100000       -4.02278379110000
H            0.12455520050000       -0.37550818430000       -3.29066529090000
H            0.34229974960000       -0.29399538080000       -4.83714398310000
O            3.08987323750000       -0.70137928360000       -3.18447828300000
H            2.27616920780000       -0.34824557860000       -3.57229786650000
H            2.83231335250000       -1.51381302640000       -2.73293597610000
 
 Bond Distances (Angstroems)
 ---------------------------
C1-C4=1.4716         C1-H5=1.0990         C1-H9=1.0937         C1-O13=1.4488        C2-C3=1.5208         C2-H6=1.0913         
C2-H10=1.0927        C2-O13=1.4263        C3-C2=1.5208         C3-H7=1.0846         C3-H11=1.0856        C3-H12=1.0865        
C4-C1=1.4716         C4-H8=1.0723         C4-N14=1.3943        H5-C1=1.0990         H6-C2=1.0913         H7-C3=1.0846         
H8-C4=1.0723         H9-C1=1.0937         H10-C2=1.0927        H11-C3=1.0856        H12-C3=1.0865        O13-C1=1.4488        
O13-C2=1.4263        N14-C4=1.3943        N14-H15=1.0141       N14-H16=1.0218       H15-N14=1.0141       H16-N14=1.0218       
O17-H18=0.9943       O17-H19=0.9571       H18-O17=0.9943       H19-O17=0.9571       O20-H21=0.9576       O20-H22=0.9899       
H21-O20=0.9576       H22-O20=0.9899       O23-H24=0.9765       O23-H25=0.9954       H24-O23=0.9765       H25-O23=0.9954       
O26-H27=0.9775       O26-H28=0.9703       H27-O26=0.9775       H28-O26=0.9703       O29-H30=0.9706       O29-H31=0.9716       
H30-O29=0.9706       H31-O29=0.9716       O32-H33=0.9730       O32-H34=0.9807       H33-O32=0.9730       H34-O32=0.9807       
O35-H36=0.9745       O35-H37=0.9770       H36-O35=0.9745       H37-O35=0.9770       O38-H39=0.9662       O38-H40=0.9691       
H39-O38=0.9662       H40-O38=0.9691       O41-H42=0.9577       O41-H43=0.9767       H42-O41=0.9577       H43-O41=0.9767       
O44-H45=0.9995       O44-H46=0.9574       H45-O44=0.9995       H46-O44=0.9574       O47-H48=0.9822       O47-H49=0.9581       
H48-O47=0.9822       H49-O47=0.9581       O50-H51=0.9891       O50-H52=0.9585       H51-O50=0.9891       H52-O50=0.9585       
O53-H54=0.9786       O53-H55=0.9700       H54-O53=0.9786       H55-O53=0.9700       O56-H57=0.9726       O56-H58=0.9761       
H57-O56=0.9726       H58-O56=0.9761       O59-H60=0.9708       O59-H61=0.9882       H60-O59=0.9708       H61-O59=0.9882       
O62-H63=0.9687       O62-H64=0.9731       H63-O62=0.9687       H64-O62=0.9731       O65-H66=0.9724       O65-H67=0.9753       
H66-O65=0.9724       H67-O65=0.9753       O68-H69=0.9631       O68-H70=0.9657       H69-O68=0.9631       H70-O68=0.9657       
O71-H72=0.9752       O71-H73=0.9644       H72-O71=0.9752       H73-O71=0.9644       O74-H75=0.9714       O74-H76=0.9749       
H75-O74=0.9714       H76-O74=0.9749       O77-H78=0.9901       O77-H79=0.9581       H78-O77=0.9901       H79-O77=0.9581       
O80-H81=0.9704       O80-H82=0.9610       H81-O80=0.9704       H82-O80=0.9610       O83-H84=0.9856       O83-H85=0.9569       
H84-O83=0.9856       H85-O83=0.9569       O86-H87=0.9977       O86-H88=0.9585       H87-O86=0.9977       H88-O86=0.9585       
O89-H90=0.9681       O89-H91=0.9645       H90-O89=0.9681       H91-O89=0.9645       
 C  H  Rav=1.0882 sigma=0.0075  Rmin=1.0723  Rmax=1.0990     8
 C  C  Rav=1.4962 sigma=0.0246  Rmin=1.4716  Rmax=1.5208     2
 N  H  Rav=1.0180 sigma=0.0038  Rmin=1.0141  Rmax=1.0218     2
 N  C  Rav=1.3943 sigma=0.0000  Rmin=1.3943  Rmax=1.3943     1
 O  H  Rav=0.9730 sigma=0.0113  Rmin=0.9569  Rmax=0.9995    50
 O  C  Rav=1.4376 sigma=0.0113  Rmin=1.4263  Rmax=1.4488     2
 
 selected bond angles (degree)
 --------------------
H5-C1-C4=111.56                H9-C1-C4=109.60                H9-C1-H5=109.20                O13-C1-C4=115.30               
O13-C1-H5=102.28               O13-C1-H9=108.58               H6-C2-C3=110.15                H10-C2-C3=110.23               
H10-C2-H6=108.97               O13-C2-C3=113.16               O13-C2-H6=105.38               O13-C2-H10=108.78              
H7-C3-C2=110.60                H11-C3-C2=109.36               H11-C3-H7=108.26               H12-C3-C2=110.02               
H12-C3-H7=109.55               H12-C3-H11=109.02              H8-C4-C1=120.92                N14-C4-C1=119.76               
N14-C4-H8=118.13               
 
 selected dihedral angles (degree)
 ---------------------------------
H7-C3-C2-H6=308.29            H7-C3-C2-H10=188.01           H7-C3-C2-O13= 65.96           H11-C3-C2-H6= 67.42           
H11-C3-C2-H10=307.14          H11-C3-C2-O13=185.08          H12-C3-C2-H6=187.13           H12-C3-C2-H10= 66.85          
H12-C3-C2-O13=304.79          H8-C4-C1-H5= 56.80            H8-C4-C1-H9=177.86            H8-C4-C1-O13=300.71           
N14-C4-C1-H5=249.50           N14-C4-C1-H9= 10.56           N14-C4-C1-O13=133.41          
 
 CMA Distance (Angstroems)
 ---------------------------
R(CMA):  1.0488
           -------------------------------------------------
          |                Final Singlepoint                |
           -------------------------------------------------

          ...................................................
          :                      SETUP                      :
          :.................................................:
          :  # basis functions                 184          :
          :  # atomic orbitals                 184          :
          :  # shells                          122          :
          :  # electrons                       237          :
          :  max. iterations                   250          :
          :  Hamiltonian                  GFN2-xTB          :
          :  restarted?                      false          :
          :  GBSA solvation                  false          :
          :  PC potential                    false          :
          :  electronic temp.          300.0000000     K    :
          :  accuracy                    1.0000000          :
          :  -> integral cutoff          0.2500000E+02      :
          :  -> integral neglect         0.1000000E-07      :
          :  -> SCF convergence          0.1000000E-05 Eh   :
          :  -> wf. convergence          0.1000000E-03 e    :
          :  Broyden damping             0.4000000          :
          ...................................................

 iter      E             dE          RMSdq      gap      omega  full diag
   1   -148.7439493 -0.148744E+03  0.174E-06    6.14       0.0  T
   2   -148.7439493 -0.284217E-12  0.103E-06    6.14   10199.1  T
   3   -148.7439493  0.227374E-12  0.296E-07    6.14   35463.7  T

   *** convergence criteria satisfied after 3 iterations ***

         #    Occupation            Energy/Eh            Energy/eV
      -------------------------------------------------------------
         1        2.0000           -0.7005759             -19.0636
       ...           ...                  ...                  ...
       113        2.0000           -0.4240716             -11.5396
       114        2.0000           -0.4192215             -11.4076
       115        2.0000           -0.4168780             -11.3438
       116        2.0000           -0.4113981             -11.1947
       117        2.0000           -0.4065410             -11.0625
       118        2.0000           -0.4010293             -10.9126
       119        1.0000           -0.2631172              -7.1598 (HOMO)
       120                         -0.0374228              -1.0183 (LUMO)
       121                         -0.0203608              -0.5540
       122                         -0.0172745              -0.4701
       123                         -0.0071604              -0.1948
       124                          0.0124569               0.3390
       ...                                ...                  ...
       184                          0.4107120              11.1760
      -------------------------------------------------------------
                  HL-Gap            0.2256944 Eh            6.1415 eV
             Fermi-level           -0.2411716 Eh           -6.5626 eV

 SCC (total)                   0 d,  0 h,  0 min,  0.047 sec
 SCC setup                      ...        0 min,  0.000 sec (  0.823%)
 Dispersion                     ...        0 min,  0.001 sec (  1.651%)
 classical contributions        ...        0 min,  0.000 sec (  0.204%)
 integral evaluation            ...        0 min,  0.005 sec ( 10.563%)
 iterations                     ...        0 min,  0.020 sec ( 42.554%)
 molecular gradient             ...        0 min,  0.020 sec ( 42.934%)
 printout                       ...        0 min,  0.001 sec (  1.135%)

         :::::::::::::::::::::::::::::::::::::::::::::::::::::
         ::                     SUMMARY                     ::
         :::::::::::::::::::::::::::::::::::::::::::::::::::::
         :: total energy            -147.740481507956 Eh    ::
         :: gradient norm              0.000273615147 Eh/a0 ::
         :: HOMO-LUMO gap              6.141456734111 eV    ::
         ::.................................................::
         :: SCC energy              -148.743949293447 Eh    ::
         :: -> isotropic ES            0.790466580024 Eh    ::
         :: -> anisotropic ES         -0.140186935230 Eh    ::
         :: -> anisotropic XC         -0.008411447208 Eh    ::
         :: -> dispersion             -0.070042623463 Eh    ::
         :: repulsion energy           0.997160853362 Eh    ::
         :: add. restraining           0.000000000000 Eh    ::
         :: total charge               0.000000000000 e     ::
         :::::::::::::::::::::::::::::::::::::::::::::::::::::

           ------------------------------------------------- 
          |                Numerical Hessian                |
           ------------------------------------------------- 
step length          :   0.00500
SCC accuracy         :   0.30000
Hessian scale factor :   1.00000
frozen atoms in %    :   0.00000    0
RMS gradient         :   0.00027
estimated CPU  time     15.57 min
estimated wall time      1.57 min

writing file <hessian>.

 projected vibrational frequencies (cm⁻¹)
eigval :       -0.00    -0.00    -0.00     0.00     0.00     0.00
eigval :       29.10    33.41    35.70    36.98    39.24    40.18
eigval :       43.19    44.97    46.61    48.63    50.57    51.92
eigval :       54.75    57.57    59.34    60.91    61.91    63.29
eigval :       65.59    66.65    69.92    70.58    72.03    73.26
eigval :       75.91    81.93    83.33    85.89    88.39    90.85
eigval :       92.50    97.14   100.71   104.37   108.99   112.63
eigval :      116.21   121.95   125.21   133.23   140.99   147.26
eigval :      152.33   156.40   160.82   164.28   172.34   172.41
eigval :      174.64   177.76   182.89   184.98   188.64   191.68
eigval :      196.61   199.43   211.60   213.88   215.07   222.38
eigval :      224.44   228.66   236.08   236.96   242.19   243.69
eigval :      248.62   255.98   262.03   267.19   270.09   273.52
eigval :      278.38   285.82   291.27   296.36   302.23   310.34
eigval :      317.00   319.99   322.05   326.49   329.76   338.55
eigval :      340.21   342.33   351.90   356.53   368.93   374.23
eigval :      382.94   394.42   409.35   415.97   417.96   423.97
eigval :      426.75   432.92   435.98   437.90   446.21   447.92
eigval :      453.72   461.19   469.39   470.95   481.63   482.56
eigval :      487.77   493.13   496.40   499.33   502.25   516.36
eigval :      521.15   525.65   536.45   540.11   544.03   548.41
eigval :      553.19   564.01   566.21   574.46   576.83   585.43
eigval :      588.45   590.09   597.21   599.93   606.08   622.35
eigval :      630.74   640.12   646.18   659.39   662.54   668.31
eigval :      679.04   684.31   695.92   699.47   710.33   719.81
eigval :      733.60   741.45   752.49   772.98   782.75   785.57
eigval :      797.89   821.98   831.07   834.50   843.43   847.18
eigval :      855.36   861.23   875.35   889.01   923.80   947.06
eigval :      957.80   977.50  1006.57  1015.24  1080.43  1098.09
eigval :     1141.20  1168.49  1228.77  1251.62  1277.42  1309.59
eigval :     1339.24  1392.56  1398.32  1424.47  1448.50  1469.99
eigval :     1479.49  1484.16  1508.80  1514.71  1519.53  1520.53
eigval :     1521.05  1525.58  1530.10  1532.42  1533.94  1535.57
eigval :     1537.48  1541.33  1541.77  1544.32  1547.74  1548.92
eigval :     1553.98  1557.08  1558.27  1560.67  1564.81  1568.02
eigval :     1568.98  1571.88  1580.92  2860.67  2860.81  2867.82
eigval :     2954.69  2965.85  2970.89  2977.11  3000.37  3034.89
eigval :     3045.44  3049.33  3055.21  3057.97  3077.05  3083.03
eigval :     3138.64  3152.68  3212.80  3215.47  3246.50  3250.02
eigval :     3274.18  3299.79  3301.83  3306.52  3315.61  3331.78
eigval :     3336.59  3340.03  3352.92  3377.32  3383.43  3389.80
eigval :     3409.56  3420.58  3421.07  3423.61  3429.01  3435.31
eigval :     3436.98  3443.21  3457.04  3458.48  3469.64  3482.73
eigval :     3522.50  3525.86  3555.88  3559.02  3573.79  3627.56
eigval :     3662.36  3663.56  3667.75  3670.07  3675.61  3676.25
eigval :     3677.03  3682.33  3685.44
           -------------------------------------------------
          |                Property Printout                |
           -------------------------------------------------

    * Orbital Energies and Occupations

         #    Occupation            Energy/Eh            Energy/eV
      -------------------------------------------------------------
         1        2.0000           -0.7005759             -19.0636
       ...           ...                  ...                  ...
       107        2.0000           -0.4286965             -11.6654
       108        2.0000           -0.4282930             -11.6544
       109        2.0000           -0.4276967             -11.6382
       110        2.0000           -0.4274901             -11.6326
       111        2.0000           -0.4262998             -11.6002
       112        2.0000           -0.4257641             -11.5856
       113        2.0000           -0.4240717             -11.5396
       114        2.0000           -0.4192215             -11.4076
       115        2.0000           -0.4168780             -11.3438
       116        2.0000           -0.4113981             -11.1947
       117        2.0000           -0.4065410             -11.0625
       118        2.0000           -0.4010293             -10.9126
       119        1.0000           -0.2631172              -7.1598 (HOMO)
       120                         -0.0374228              -1.0183 (LUMO)
       121                         -0.0203608              -0.5540
       122                         -0.0172745              -0.4701
       123                         -0.0071604              -0.1948
       124                          0.0124569               0.3390
       125                          0.0363402               0.9889
       126                          0.0433582               1.1798
       127                          0.0476650               1.2970
       128                          0.0520210               1.4156
       129                          0.0637721               1.7353
       130                          0.0786301               2.1396
       ...                                ...                  ...
       184                          0.4107120              11.1760
      -------------------------------------------------------------
                  HL-Gap            0.2256944 Eh            6.1415 eV
             Fermi-level           -0.2411716 Eh           -6.5626 eV

     #   Z          covCN         q      C6AA      α(0)
     1   6 C        3.684     0.040    20.092     6.418
     2   6 C        3.683     0.050    19.928     6.392
     3   6 C        3.751    -0.152    23.497     6.913
     4   6 C        2.814    -0.076    29.881     8.956
     5   1 H        0.923     0.071     2.076     2.253
     6   1 H        0.924     0.069     2.099     2.266
     7   1 H        0.925     0.071     2.079     2.255
     8   1 H        0.926     0.048     2.346     2.395
     9   1 H        0.924     0.063     2.159     2.298
    10   1 H        0.924     0.048     2.343     2.394
    11   1 H        0.925     0.042     2.417     2.431
    12   1 H        0.925     0.074     2.040     2.233
    13   8 O        1.694    -0.368    20.216     6.070
    14   7 N        2.633    -0.308    27.923     7.848
    15   1 H        0.860     0.199     1.113     1.653
    16   1 H        0.860     0.208     1.066     1.617
    17   8 O        1.606    -0.629    25.891     6.867
    18   1 H        0.801     0.344     0.602     1.219
    19   1 H        0.806     0.280     0.784     1.391
    20   8 O        1.607    -0.627    25.833     6.860
    21   1 H        0.806     0.276     0.798     1.403
    22   1 H        0.801     0.337     0.620     1.237
    23   8 O        1.605    -0.667    26.840     6.992
    24   1 H        0.803     0.332     0.633     1.250
    25   1 H        0.801     0.338     0.618     1.235
    26   8 O        1.609    -0.631    25.930     6.873
    27   1 H        0.803     0.323     0.655     1.271
    28   1 H        0.804     0.315     0.677     1.293
    29   8 O        1.608    -0.636    26.058     6.890
    30   1 H        0.804     0.312     0.686     1.301
    31   1 H        0.804     0.317     0.673     1.289
    32   8 O        1.607    -0.656    26.575     6.958
    33   1 H        0.804     0.320     0.663     1.279
    34   1 H        0.803     0.331     0.636     1.253
    35   8 O        1.607    -0.652    26.463     6.943
    36   1 H        0.804     0.325     0.650     1.266
    37   1 H        0.803     0.327     0.644     1.261
    38   8 O        1.609    -0.629    25.890     6.867
    39   1 H        0.805     0.312     0.685     1.300
    40   1 H        0.804     0.310     0.693     1.308
    41   8 O        1.609    -0.613    25.496     6.815
    42   1 H        0.806     0.281     0.780     1.387
    43   1 H        0.803     0.325     0.650     1.266
    44   8 O        1.605    -0.637    26.102     6.895
    45   1 H        0.801     0.347     0.596     1.213
    46   1 H        0.806     0.281     0.782     1.389
    47   8 O        1.608    -0.613    25.493     6.814
    48   1 H        0.803     0.339     0.614     1.231
    49   1 H        0.806     0.284     0.772     1.380
    50   8 O        1.607    -0.626    25.830     6.859
    51   1 H        0.802     0.340     0.613     1.230
    52   1 H        0.806     0.290     0.752     1.362
    53   8 O        1.608    -0.642    26.217     6.910
    54   1 H        0.803     0.322     0.659     1.275
    55   1 H        0.804     0.314     0.681     1.296
    56   8 O        1.607    -0.651    26.440     6.940
    57   1 H        0.804     0.318     0.670     1.286
    58   1 H        0.803     0.321     0.661     1.277
    59   8 O        1.607    -0.641    26.184     6.906
    60   1 H        0.804     0.313     0.682     1.297
    61   1 H        0.804     0.313     0.684     1.300
    62   8 O        1.609    -0.627    25.849     6.862
    63   1 H        0.804     0.314     0.682     1.297
    64   1 H        0.804     0.321     0.660     1.276
    65   8 O        1.608    -0.649    26.380     6.932
    66   1 H        0.804     0.314     0.682     1.297
    67   1 H        0.804     0.319     0.668     1.284
    68   8 O        1.610    -0.618    25.625     6.832
    69   1 H        0.805     0.314     0.681     1.297
    70   1 H        0.805     0.312     0.685     1.300
    71   8 O        1.609    -0.631    25.947     6.875
    72   1 H        0.804     0.332     0.633     1.250
    73   1 H        0.805     0.309     0.695     1.309
    74   8 O        1.608    -0.645    26.301     6.922
    75   1 H        0.804     0.309     0.694     1.308
    76   1 H        0.804     0.320     0.664     1.280
    77   8 O        1.607    -0.623    25.740     6.847
    78   1 H        0.802     0.344     0.603     1.220
    79   1 H        0.806     0.281     0.780     1.387
    80   8 O        1.609    -0.617    25.594     6.828
    81   1 H        0.804     0.324     0.654     1.270
    82   1 H        0.805     0.304     0.708     1.322
    83   8 O        1.608    -0.620    25.668     6.838
    84   1 H        0.802     0.333     0.631     1.248
    85   1 H        0.806     0.275     0.802     1.407
    86   8 O        1.605    -0.639    26.140     6.900
    87   1 H        0.801     0.348     0.595     1.212
    88   1 H        0.806     0.288     0.757     1.367
    89   8 O        1.609    -0.626    25.821     6.858
    90   1 H        0.804     0.306     0.704     1.318
    91   1 H        0.805     0.311     0.690     1.304

 Mol. C6AA /au·bohr⁶  :      44480.550971
 Mol. C8AA /au·bohr⁸  :     828238.122290
 Mol. α(0) /au        :        301.175236


Wiberg/Mayer (AO) data.
largest (>0.10) Wiberg bond orders for each atom

 ---------------------------------------------------------------------------
     #   Z sym  total        # sym  WBO       # sym  WBO       # sym  WBO
 ---------------------------------------------------------------------------
     1   6 C    3.926 --     4 C    1.057     9 H    0.956     5 H    0.931
                            13 O    0.922
     2   6 C    3.936 --     3 C    1.015    10 H    0.962     6 H    0.961
                            13 O    0.957
     3   6 C    3.981 --     2 C    1.015    11 H    0.983     7 H    0.977
                            12 H    0.968
     4   6 C    3.226 --    14 N    1.157     1 C    1.057     8 H    0.961
     5   1 H    0.960 --     1 C    0.931
     6   1 H    0.994 --     2 C    0.961
     7   1 H    0.995 --     3 C    0.977
     8   1 H    0.994 --     4 C    0.961
     9   1 H    0.995 --     1 C    0.956
    10   1 H    0.997 --     2 C    0.962
    11   1 H    0.997 --     3 C    0.983
    12   1 H    0.994 --     3 C    0.968
    13   8 O    2.095 --     2 C    0.957     1 C    0.922
    14   7 N    3.147 --     4 C    1.157    15 H    0.921    16 H    0.891
    15   1 H    0.951 --    14 N    0.921
    16   1 H    0.944 --    14 N    0.891
    17   8 O    1.863 --    19 H    0.915    18 H    0.795
    18   1 H    0.881 --    17 O    0.795
    19   1 H    0.921 --    17 O    0.915
    20   8 O    1.847 --    21 H    0.918    22 H    0.804
    21   1 H    0.924 --    20 O    0.918
    22   1 H    0.886 --    20 O    0.804
    23   8 O    1.904 --    24 H    0.833    25 H    0.784
    24   1 H    0.890 --    23 O    0.833
    25   1 H    0.886 --    23 O    0.784
    26   8 O    1.892 --    28 H    0.863    27 H    0.842
    27   1 H    0.895 --    26 O    0.842
    28   1 H    0.901 --    26 O    0.863
    29   8 O    1.861 --    30 H    0.860    31 H    0.857
    30   1 H    0.903 --    29 O    0.860
    31   1 H    0.900 --    29 O    0.857
    32   8 O    1.863 --    33 H    0.848    34 H    0.825
    33   1 H    0.897 --    32 O    0.848
    34   1 H    0.891 --    32 O    0.825
    35   8 O    1.875 --    36 H    0.849    37 H    0.831
    36   1 H    0.894 --    35 O    0.849
    37   1 H    0.893 --    35 O    0.831
    38   8 O    1.843 --    39 H    0.874    40 H    0.869
    39   1 H    0.902 --    38 O    0.874
    40   1 H    0.904 --    38 O    0.869
    41   8 O    1.850 --    42 H    0.919    43 H    0.841
    42   1 H    0.921 --    41 O    0.919
    43   1 H    0.894 --    41 O    0.841
    44   8 O    1.859 --    46 H    0.915    45 H    0.778
    45   1 H    0.880 --    44 O    0.778
    46   1 H    0.921 --    44 O    0.915
    47   8 O    1.872 --    49 H    0.917    48 H    0.823
    48   1 H    0.885 --    47 O    0.823
    49   1 H    0.920 --    47 O    0.917
    50   8 O    1.875 --    52 H    0.912    51 H    0.803
    51   1 H    0.884 --    50 O    0.803
    52   1 H    0.916 --    50 O    0.912
    53   8 O    1.866 --    55 H    0.860    54 H    0.839
    54   1 H    0.896 --    53 O    0.839
    55   1 H    0.901 --    53 O    0.860
    56   8 O    1.842 --    57 H    0.855    58 H    0.841
    57   1 H    0.899 --    56 O    0.855
    58   1 H    0.897 --    56 O    0.841
    59   8 O    1.868 --    60 H    0.858    61 H    0.818
    60   1 H    0.902 --    59 O    0.858
    61   1 H    0.899 --    59 O    0.818
    62   8 O    1.875 --    63 H    0.868    64 H    0.855
    63   1 H    0.902 --    62 O    0.868
    64   1 H    0.897 --    62 O    0.855
    65   8 O    1.834 --    66 H    0.862    67 H    0.844
    66   1 H    0.902 --    65 O    0.862
    67   1 H    0.898 --    65 O    0.844
    68   8 O    1.850 --    69 H    0.880    70 H    0.879
    69   1 H    0.902 --    68 O    0.880
    70   1 H    0.902 --    68 O    0.879
    71   8 O    1.862 --    73 H    0.882    72 H    0.838
    72   1 H    0.890 --    71 O    0.838
    73   1 H    0.905 --    71 O    0.882
    74   8 O    1.842 --    75 H    0.857    76 H    0.849
    75   1 H    0.904 --    74 O    0.857
    76   1 H    0.897 --    74 O    0.849
    77   8 O    1.872 --    79 H    0.917    78 H    0.807
    78   1 H    0.882 --    77 O    0.807
    79   1 H    0.921 --    77 O    0.917
    80   8 O    1.851 --    82 H    0.899    81 H    0.854
    81   1 H    0.895 --    80 O    0.854
    82   1 H    0.907 --    80 O    0.899
    83   8 O    1.849 --    85 H    0.920    84 H    0.816
    84   1 H    0.889 --    83 O    0.816
    85   1 H    0.925 --    83 O    0.920
    86   8 O    1.870 --    88 H    0.912    87 H    0.782
    87   1 H    0.879 --    86 O    0.782
    88   1 H    0.917 --    86 O    0.912
    89   8 O    1.838 --    91 H    0.879    90 H    0.871
    90   1 H    0.906 --    89 O    0.871
    91   1 H    0.903 --    89 O    0.879
 ---------------------------------------------------------------------------

Topologies differ in total number of bonds
Writing topology from bond orders to xtbtopo.mol

molecular dipole:
                 x           y           z       tot (Debye)
 q only:       -1.785       0.165       0.024
   full:       -2.444      -0.088      -0.046       6.217
molecular quadrupole (traceless):
                xx          xy          yy          xz          yz          zz
 q only:       -6.985     -10.700      16.844       1.344      12.263      -9.859
  q+dip:       -9.386     -15.604      21.880       1.573      18.376     -12.495
   full:       -8.470     -15.967      22.285       2.188      18.491     -13.815

           -------------------------------------------------
          |                Geometry Summary                 |
           -------------------------------------------------

      molecular mass/u    :      538.5106197
   center of mass at/Å    :        0.0510980      -0.0406535       0.0238668
  moments of inertia/u·Å² :        0.5773200E+04   0.5904660E+04   0.6648476E+04
rotational constants/cm⁻¹ :        0.2919981E-02   0.2854971E-02   0.2535563E-02

 * 64 selected distances

     #   Z          #   Z                                           value/Å
     2   6 C        3   6 C                                       1.5207711 (max)
     1   6 C        4   6 C                                       1.4715850
     1   6 C        5   1 H                                       1.0990252
     2   6 C        6   1 H                                       1.0912956
     3   6 C        7   1 H                                       1.0845966
     4   6 C        8   1 H                                       1.0722825
     1   6 C        9   1 H                                       1.0936823
     2   6 C       10   1 H                                       1.0927349
     3   6 C       11   1 H                                       1.0855928
     3   6 C       12   1 H                                       1.0864595
     2   6 C       13   8 O                                       1.4263260
     4   6 C       14   7 N                                       1.3943204
    14   7 N       15   1 H                                       1.0141400
    14   7 N       16   1 H                                       1.0217643
    17   8 O       18   1 H                                       0.9942907
    17   8 O       19   1 H                                       0.9570947
    20   8 O       21   1 H                                       0.9575639
    20   8 O       22   1 H                                       0.9899452
    23   8 O       24   1 H                                       0.9764811
    23   8 O       25   1 H                                       0.9953948
    26   8 O       27   1 H                                       0.9775185
    26   8 O       28   1 H                                       0.9703102
    29   8 O       30   1 H                                       0.9705846
    29   8 O       31   1 H                                       0.9716489
    32   8 O       33   1 H                                       0.9730297
    32   8 O       34   1 H                                       0.9807264
    35   8 O       36   1 H                                       0.9745447
    35   8 O       37   1 H                                       0.9769731
    38   8 O       39   1 H                                       0.9661805
    38   8 O       40   1 H                                       0.9691179
    41   8 O       42   1 H                                       0.9576765
    41   8 O       43   1 H                                       0.9767273
    44   8 O       45   1 H                                       0.9994599
    44   8 O       46   1 H                                       0.9574475
    47   8 O       48   1 H                                       0.9822384
    47   8 O       49   1 H                                       0.9581433
    50   8 O       51   1 H                                       0.9891378
    50   8 O       52   1 H                                       0.9584919
    53   8 O       54   1 H                                       0.9786397
    53   8 O       55   1 H                                       0.9699924
    56   8 O       57   1 H                                       0.9725786
    56   8 O       58   1 H                                       0.9760661
    59   8 O       60   1 H                                       0.9708221
    59   8 O       61   1 H                                       0.9881578
    62   8 O       63   1 H                                       0.9686860
    62   8 O       64   1 H                                       0.9730576
    65   8 O       66   1 H                                       0.9723733
    65   8 O       67   1 H                                       0.9752850
    68   8 O       69   1 H                                       0.9631419
    68   8 O       70   1 H                                       0.9657498
    71   8 O       72   1 H                                       0.9752216
    71   8 O       73   1 H                                       0.9644417
    74   8 O       75   1 H                                       0.9714451
    74   8 O       76   1 H                                       0.9748843
    77   8 O       78   1 H                                       0.9901011
    77   8 O       79   1 H                                       0.9581475
    80   8 O       81   1 H                                       0.9704086
    80   8 O       82   1 H                                       0.9609578
    83   8 O       84   1 H                                       0.9855531
    83   8 O       85   1 H                                       0.9569451 (min)
    86   8 O       87   1 H                                       0.9976849
    86   8 O       88   1 H                                       0.9584786
    89   8 O       90   1 H                                       0.9681022
    89   8 O       91   1 H                                       0.9645083

 * 6 distinct bonds (by element types)

   Z      Z             #   av. dist./Å        max./Å        min./Å
   1 H    6 C           8     1.0882087     1.0990252     1.0722825
   6 C    6 C           2     1.4961780     1.5207711     1.4715850
   1 H    7 N           2     1.0179522     1.0217643     1.0141400
   6 C    7 N           1     1.3943204     1.3943204     1.3943204
   1 H    8 O          50     0.9730431     0.9994599     0.9569451
   6 C    8 O           1     1.4263260     1.4263260     1.4263260

           -------------------------------------------------
          |               Frequency Printout                |
           -------------------------------------------------
 projected vibrational frequencies (cm⁻¹)
eigval :       -0.00    -0.00    -0.00     0.00     0.00     0.00
eigval :       29.10    33.41    35.70    36.98    39.24    40.18
eigval :       43.19    44.97    46.61    48.63    50.57    51.92
eigval :       54.75    57.57    59.34    60.91    61.91    63.29
eigval :       65.59    66.65    69.92    70.58    72.03    73.26
eigval :       75.91    81.93    83.33    85.89    88.39    90.85
eigval :       92.50    97.14   100.71   104.37   108.99   112.63
eigval :      116.21   121.95   125.21   133.23   140.99   147.26
eigval :      152.33   156.40   160.82   164.28   172.34   172.41
eigval :      174.64   177.76   182.89   184.98   188.64   191.68
eigval :      196.61   199.43   211.60   213.88   215.07   222.38
eigval :      224.44   228.66   236.08   236.96   242.19   243.69
eigval :      248.62   255.98   262.03   267.19   270.09   273.52
eigval :      278.38   285.82   291.27   296.36   302.23   310.34
eigval :      317.00   319.99   322.05   326.49   329.76   338.55
eigval :      340.21   342.33   351.90   356.53   368.93   374.23
eigval :      382.94   394.42   409.35   415.97   417.96   423.97
eigval :      426.75   432.92   435.98   437.90   446.21   447.92
eigval :      453.72   461.19   469.39   470.95   481.63   482.56
eigval :      487.77   493.13   496.40   499.33   502.25   516.36
eigval :      521.15   525.65   536.45   540.11   544.03   548.41
eigval :      553.19   564.01   566.21   574.46   576.83   585.43
eigval :      588.45   590.09   597.21   599.93   606.08   622.35
eigval :      630.74   640.12   646.18   659.39   662.54   668.31
eigval :      679.04   684.31   695.92   699.47   710.33   719.81
eigval :      733.60   741.45   752.49   772.98   782.75   785.57
eigval :      797.89   821.98   831.07   834.50   843.43   847.18
eigval :      855.36   861.23   875.35   889.01   923.80   947.06
eigval :      957.80   977.50  1006.57  1015.24  1080.43  1098.09
eigval :     1141.20  1168.49  1228.77  1251.62  1277.42  1309.59
eigval :     1339.24  1392.56  1398.32  1424.47  1448.50  1469.99
eigval :     1479.49  1484.16  1508.80  1514.71  1519.53  1520.53
eigval :     1521.05  1525.58  1530.10  1532.42  1533.94  1535.57
eigval :     1537.48  1541.33  1541.77  1544.32  1547.74  1548.92
eigval :     1553.98  1557.08  1558.27  1560.67  1564.81  1568.02
eigval :     1568.98  1571.88  1580.92  2860.67  2860.81  2867.82
eigval :     2954.69  2965.85  2970.89  2977.11  3000.37  3034.89
eigval :     3045.44  3049.33  3055.21  3057.97  3077.05  3083.03
eigval :     3138.64  3152.68  3212.80  3215.47  3246.50  3250.02
eigval :     3274.18  3299.79  3301.83  3306.52  3315.61  3331.78
eigval :     3336.59  3340.03  3352.92  3377.32  3383.43  3389.80
eigval :     3409.56  3420.58  3421.07  3423.61  3429.01  3435.31
eigval :     3436.98  3443.21  3457.04  3458.48  3469.64  3482.73
eigval :     3522.50  3525.86  3555.88  3559.02  3573.79  3627.56
eigval :     3662.36  3663.56  3667.75  3670.07  3675.61  3676.25
eigval :     3677.03  3682.33  3685.44
 reduced masses (amu)
   1: 14.15   2: 13.91   3: 13.88   4: 13.98   5: 14.12   6: 14.09   7: 13.82   8: 13.37
   9: 13.97  10: 13.62  11: 13.87  12: 14.18  13: 14.10  14: 14.06  15: 13.94  16: 14.33
  17: 14.21  18: 13.84  19: 13.82  20: 13.59  21: 14.29  22: 14.01  23: 14.26  24: 14.13
  25: 14.33  26: 13.98  27: 14.29  28: 14.26  29: 14.32  30: 14.47  31: 14.36  32: 13.80
  33: 14.33  34: 14.16  35: 14.26  36: 13.26  37: 13.70  38: 12.86  39: 10.81  40: 13.67
  41: 11.54  42: 12.02  43: 13.23  44: 13.83  45: 13.46  46: 13.94  47: 13.80  48: 13.81
  49: 13.08  50: 13.69  51: 12.54  52: 12.70  53: 11.55  54: 12.85  55: 10.56  56: 12.17
  57: 11.71  58:  9.45  59: 13.17  60: 11.13  61: 12.34  62:  9.27  63: 12.30  64: 12.52
  65:  7.99  66:  5.36  67:  9.01  68: 13.26  69: 11.85  70:  9.32  71:  9.15  72: 10.98
  73: 11.53  74: 10.93  75: 10.72  76: 12.02  77: 12.00  78: 10.70  79:  9.76  80: 10.61
  81:  9.72  82:  9.09  83: 10.14  84:  7.61  85:  9.70  86:  9.87  87: 12.23  88: 10.91
  89:  8.81  90: 12.53  91: 12.13  92: 12.26  93:  6.27  94: 12.52  95:  5.16  96:  7.65
  97: 10.41  98:  2.17  99:  9.97 100:  2.19 101:  4.25 102:  4.11 103:  8.54 104:  2.11
 105:  2.49 106:  2.70 107:  1.86 108:  2.32 109:  2.31 110:  2.51 111:  1.95 112:  2.04
 113:  2.41 114:  2.17 115:  1.62 116:  1.84 117:  1.66 118:  1.85 119:  1.72 120:  1.65
 121:  1.67 122:  1.97 123:  6.81 124:  1.81 125:  3.36 126:  1.80 127:  3.56 128:  1.72
 129:  2.56 130:  1.79 131:  1.78 132:  1.95 133:  1.82 134:  1.99 135:  1.84 136:  1.82
 137:  1.83 138:  1.81 139:  1.80 140:  1.50 141:  1.76 142:  1.97 143:  1.90 144:  1.93
 145:  2.07 146:  2.06 147:  1.80 148:  2.11 149:  1.99 150:  2.12 151:  2.21 152:  1.99
 153:  2.18 154:  2.25 155:  2.22 156:  1.77 157:  2.84 158:  3.83 159:  1.90 160:  2.03
 161:  2.00 162:  2.31 163:  5.63 164:  2.32 165:  2.07 166:  2.16 167:  2.08 168:  9.51
 169:  6.65 170:  2.30 171:  4.27 172:  5.97 173:  8.64 174:  8.79 175:  4.91 176:  5.53
 177:  3.44 178:  5.03 179:  2.63 180:  2.88 181:  3.19 182:  6.41 183:  3.16 184:  3.61
 185:  1.88 186:  3.76 187:  1.58 188:  1.57 189:  2.00 190:  2.03 191:  2.04 192:  2.07
 193:  2.00 194:  2.06 195:  2.09 196:  2.04 197:  2.10 198:  2.04 199:  2.02 200:  2.07
 201:  2.03 202:  2.03 203:  2.06 204:  2.04 205:  2.09 206:  2.03 207:  2.05 208:  2.11
 209:  2.06 210:  2.04 211:  2.04 212:  2.06 213:  1.97 214:  1.87 215:  1.74 216:  1.91
 217:  1.71 218:  1.91 219:  1.76 220:  1.90 221:  1.70 222:  1.94 223:  1.88 224:  1.59
 225:  1.88 226:  1.85 227:  1.88 228:  1.75 229:  1.87 230:  1.81 231:  2.02 232:  1.88
 233:  1.77 234:  1.91 235:  2.04 236:  1.92 237:  1.96 238:  1.98 239:  2.03 240:  2.01
 241:  1.86 242:  1.91 243:  1.85 244:  2.07 245:  1.89 246:  1.70 247:  1.84 248:  1.69
 249:  1.68 250:  1.70 251:  1.79 252:  1.84 253:  1.72 254:  1.62 255:  1.75 256:  1.97
 257:  1.93 258:  1.68 259:  1.93 260:  1.69 261:  1.75 262:  1.78 263:  1.77 264:  1.80
 265:  1.83 266:  1.83 267:  1.83 268:  1.83 269:  1.84 270:  1.84 271:  1.84 272:  1.84
 273:  1.84
 IR intensities (km·mol⁻¹)
   1:  0.05   2:  0.11   3:  0.19   4:  0.04   5:  0.05   6:  0.10   7:  1.84   8:  0.61
   9:  0.28  10:  1.42  11:  2.74  12:  3.12  13:  0.31  14:  0.19  15:  0.17  16:  0.31
  17:  0.33  18:  1.59  19:  0.69  20:  0.64  21:  0.20  22:  1.17  23:  2.47  24:  0.59
  25:  0.61  26:  3.73  27:  0.28  28:  1.07  29:  0.69  30:  3.54  31:  0.88  32:  0.64
  33:  0.92  34:  0.41  35:  3.08  36:  3.43  37:  1.77  38:  0.83  39:  1.33  40:  1.86
  41:  3.26  42:  0.84  43:  5.91  44:  1.63  45:  1.62  46:  3.47  47:  5.97  48:  4.63
  49: 11.10  50:  1.99  51: 10.21  52:  1.30  53:  4.85  54:  6.16  55:  8.26  56:  9.58
  57:  5.83  58:  1.57  59:  1.34  60: 49.41  61: 15.25  62: 30.49  63:  9.14  64: 18.10
  65: 57.03  66: 13.51  67:  2.33  68: 18.97  69: 33.80  70: 30.01  71: 33.67  72: 23.80
  73:  0.87  74: 12.62  75: 69.92  76: 44.36  77:  2.54  78: 27.78  79: 79.11  80:  6.35
  81:131.13  82: 16.37  83:  1.07  84: 79.31  85: 72.50  86: 30.93  87: 37.34  88: 33.65
  89:131.61  90:  5.28  91:  3.49  92: 12.47  93: 12.80  94: 11.69  95:132.75  96: 40.89
  97: 23.21  98: 24.08  99: 16.03 100: 34.10 101: 15.94 102:  8.99 103: 17.01 104: 16.42
 105: 76.67 106: 55.59 107:  3.12 108: 93.02 109: 19.36 110: 47.94 111: 28.17 112: 30.49
 113: 32.24 114: 36.07 115: 10.93 116: 41.89 117:  2.33 118: 61.38 119: 60.50 120: 53.19
 121: 13.58 122: 15.86 123:  5.64 124: 41.84 125: 46.33 126: 27.80 127: 64.28 128: 53.28
 129: 23.21 130: 72.69 131: 77.54 132: 17.24 133: 32.88 134:  6.51 135:208.80 136: 24.44
 137: 69.08 138: 43.10 139:167.65 140: 98.23 141: 55.21 142: 35.62 143:316.75 144: 63.30
 145:317.08 146:208.13 147:130.03 148: 57.35 149:104.60 150:231.56 151:449.41 152:387.68
 153:909.73 154:683.03 155:832.38 156:250.00 157:483.64 158:399.72 159:130.25 160:406.58
 161:207.46 162:416.06 163: 79.43 164:127.17 165:229.76 166:596.88 167: 64.95 168: 92.75
 169:  4.45 170:233.81 171: 78.77 172:162.21 173:104.12 174: 13.08 175: 15.00 176:  0.93
 177:  6.28 178: 11.93 179:  6.31 180:  7.02 181:  9.57 182: 10.15 183: 16.11 184: 11.92
 185:  4.46 186: 50.33 187: 16.75 188: 11.34 189: 19.72 190: 43.35 191:487.27 192: 11.52
 193:272.04 194: 70.75 195:205.38 196:130.46 197:273.41 198:400.13 199: 54.50 200: 53.98
 201:217.67 202:138.71 203:376.34 204:467.21 205:268.68 206:222.05 207:100.52 208:455.58
 209:104.28 210:174.84 211: 80.09 212: 48.77 213: 28.84 214:553.89 215:100.47 216:******
 217: 35.26 218:934.54 219: 81.72 220:****** 221: 25.55 222:357.94 223:****** 224: 27.27
 225:395.33 226: 88.85 227:****** 228: 44.77 229:****** 230: 26.07 231:325.75 232:670.49
 233:191.38 234:****** 235:513.90 236:304.66 237:455.00 238:****** 239:426.24 240: 89.44
 241:929.31 242:508.78 243:282.65 244:425.50 245:357.94 246:591.57 247:129.47 248:447.08
 249:244.07 250:479.57 251:290.11 252:181.24 253:383.67 254:226.73 255:168.78 256:287.46
 257:202.92 258:203.77 259:173.72 260: 79.89 261: 90.85 262:168.94 263:113.39 264: 31.05
 265: 16.22 266: 14.27 267: 11.27 268: 11.93 269: 13.91 270:  6.52 271: 12.88 272: 10.05
 273:  7.23
 Raman intensities (amu)
   1:  0.00   2:  0.00   3:  0.00   4:  0.00   5:  0.00   6:  0.00   7:  0.00   8:  0.00
   9:  0.00  10:  0.00  11:  0.00  12:  0.00  13:  0.00  14:  0.00  15:  0.00  16:  0.00
  17:  0.00  18:  0.00  19:  0.00  20:  0.00  21:  0.00  22:  0.00  23:  0.00  24:  0.00
  25:  0.00  26:  0.00  27:  0.00  28:  0.00  29:  0.00  30:  0.00  31:  0.00  32:  0.00
  33:  0.00  34:  0.00  35:  0.00  36:  0.00  37:  0.00  38:  0.00  39:  0.00  40:  0.00
  41:  0.00  42:  0.00  43:  0.00  44:  0.00  45:  0.00  46:  0.00  47:  0.00  48:  0.00
  49:  0.00  50:  0.00  51:  0.00  52:  0.00  53:  0.00  54:  0.00  55:  0.00  56:  0.00
  57:  0.00  58:  0.00  59:  0.00  60:  0.00  61:  0.00  62:  0.00  63:  0.00  64:  0.00
  65:  0.00  66:  0.00  67:  0.00  68:  0.00  69:  0.00  70:  0.00  71:  0.00  72:  0.00
  73:  0.00  74:  0.00  75:  0.00  76:  0.00  77:  0.00  78:  0.00  79:  0.00  80:  0.00
  81:  0.00  82:  0.00  83:  0.00  84:  0.00  85:  0.00  86:  0.00  87:  0.00  88:  0.00
  89:  0.00  90:  0.00  91:  0.00  92:  0.00  93:  0.00  94:  0.00  95:  0.00  96:  0.00
  97:  0.00  98:  0.00  99:  0.00 100:  0.00 101:  0.00 102:  0.00 103:  0.00 104:  0.00
 105:  0.00 106:  0.00 107:  0.00 108:  0.00 109:  0.00 110:  0.00 111:  0.00 112:  0.00
 113:  0.00 114:  0.00 115:  0.00 116:  0.00 117:  0.00 118:  0.00 119:  0.00 120:  0.00
 121:  0.00 122:  0.00 123:  0.00 124:  0.00 125:  0.00 126:  0.00 127:  0.00 128:  0.00
 129:  0.00 130:  0.00 131:  0.00 132:  0.00 133:  0.00 134:  0.00 135:  0.00 136:  0.00
 137:  0.00 138:  0.00 139:  0.00 140:  0.00 141:  0.00 142:  0.00 143:  0.00 144:  0.00
 145:  0.00 146:  0.00 147:  0.00 148:  0.00 149:  0.00 150:  0.00 151:  0.00 152:  0.00
 153:  0.00 154:  0.00 155:  0.00 156:  0.00 157:  0.00 158:  0.00 159:  0.00 160:  0.00
 161:  0.00 162:  0.00 163:  0.00 164:  0.00 165:  0.00 166:  0.00 167:  0.00 168:  0.00
 169:  0.00 170:  0.00 171:  0.00 172:  0.00 173:  0.00 174:  0.00 175:  0.00 176:  0.00
 177:  0.00 178:  0.00 179:  0.00 180:  0.00 181:  0.00 182:  0.00 183:  0.00 184:  0.00
 185:  0.00 186:  0.00 187:  0.00 188:  0.00 189:  0.00 190:  0.00 191:  0.00 192:  0.00
 193:  0.00 194:  0.00 195:  0.00 196:  0.00 197:  0.00 198:  0.00 199:  0.00 200:  0.00
 201:  0.00 202:  0.00 203:  0.00 204:  0.00 205:  0.00 206:  0.00 207:  0.00 208:  0.00
 209:  0.00 210:  0.00 211:  0.00 212:  0.00 213:  0.00 214:  0.00 215:  0.00 216:  0.00
 217:  0.00 218:  0.00 219:  0.00 220:  0.00 221:  0.00 222:  0.00 223:  0.00 224:  0.00
 225:  0.00 226:  0.00 227:  0.00 228:  0.00 229:  0.00 230:  0.00 231:  0.00 232:  0.00
 233:  0.00 234:  0.00 235:  0.00 236:  0.00 237:  0.00 238:  0.00 239:  0.00 240:  0.00
 241:  0.00 242:  0.00 243:  0.00 244:  0.00 245:  0.00 246:  0.00 247:  0.00 248:  0.00
 249:  0.00 250:  0.00 251:  0.00 252:  0.00 253:  0.00 254:  0.00 255:  0.00 256:  0.00
 257:  0.00 258:  0.00 259:  0.00 260:  0.00 261:  0.00 262:  0.00 263:  0.00 264:  0.00
 265:  0.00 266:  0.00 267:  0.00 268:  0.00 269:  0.00 270:  0.00 271:  0.00 272:  0.00
 273:  0.00
 output can be read by thermo (or use thermo option).
 writing <g98.out> molden fake output.
 recommended (thermochemical) frequency scaling factor: 1.0
           -------------------------------------------------
          |             Thermodynamic Functions             |
           -------------------------------------------------

Molecule has no symmetry elements
It seems to be the C1 point group
c1  symmetry found (for desy threshold:  0.10E+00) used in thermo

          ...................................................
          :                      SETUP                      :
          :.................................................:
          :  # frequencies                         267      :
          :  # imaginary freq.                       0      :
          :  linear?                             false      :
          :  only rotor calc.                    false      :
          :  symmetry                               c1      :
          :  rotational number                       1      :
          :  scaling factor                  1.0000000      :
          :  rotor cutoff                   50.0000000 cm⁻¹ :
          :  imag. cutoff                  -20.0000000 cm⁻¹ :
          :.................................................:

    mode    ω/cm⁻¹     T·S(HO)/kcal·mol⁻¹    T·S(FR)/kcal·mol⁻¹   T·S(vib)
   ------------------------------------------------------------------------
       1     29.10    -1.75610 ( 10.29%)    -1.21690 ( 89.71%)    -1.27238
       2     33.41    -1.67436 ( 16.62%)    -1.17595 ( 83.38%)    -1.25881
       3     35.70    -1.63517 ( 20.63%)    -1.15631 ( 79.37%)    -1.25510
       4     36.98    -1.61444 ( 23.02%)    -1.14592 ( 76.98%)    -1.25379
       5     39.24    -1.57931 ( 27.50%)    -1.12831 ( 72.50%)    -1.25235
       6     40.18    -1.56533 ( 29.43%)    -1.12130 ( 70.57%)    -1.25198
       7     43.19    -1.52267 ( 35.77%)    -1.09990 ( 64.23%)    -1.25111
       8     44.97    -1.49886 ( 39.55%)    -1.08795 ( 60.45%)    -1.25047
       9     46.61    -1.47766 ( 43.03%)    -1.07731 ( 56.97%)    -1.24959
      10     48.63    -1.45263 ( 47.23%)    -1.06474 ( 52.77%)    -1.24795
      11     50.57    -1.42966 ( 51.13%)    -1.05319 ( 48.87%)    -1.24567
      12     51.92    -1.41413 ( 53.75%)    -1.04539 ( 46.25%)    -1.24360
      13     54.75    -1.38285 ( 58.97%)    -1.02967 ( 41.03%)    -1.23794
      14     57.57    -1.35326 ( 63.73%)    -1.01478 ( 36.27%)    -1.23050
      15     59.34    -1.33543 ( 66.48%)    -1.00581 ( 33.52%)    -1.22495
      16     60.91    -1.32002 ( 68.78%)    -0.99805 ( 31.22%)    -1.21949
      17     61.91    -1.31050 ( 70.15%)    -0.99326 ( 29.85%)    -1.21580
      18     63.29    -1.29752 ( 71.97%)    -0.98672 ( 28.03%)    -1.21039
      19     65.59    -1.27654 ( 74.75%)    -0.97614 ( 25.25%)    -1.20070
      20     66.65    -1.26715 ( 75.94%)    -0.97141 ( 24.06%)    -1.19600
      21     69.92    -1.23903 ( 79.27%)    -0.95722 ( 20.73%)    -1.18060
      22     70.58    -1.23349 ( 79.88%)    -0.95442 ( 20.12%)    -1.17734
      23     72.03    -1.22158 ( 81.15%)    -0.94841 ( 18.85%)    -1.17010
      24     73.26    -1.21163 ( 82.17%)    -0.94338 ( 17.83%)    -1.16380
      25     75.91    -1.19079 ( 84.16%)    -0.93285 ( 15.84%)    -1.14993
      26     81.93    -1.14611 ( 87.82%)    -0.91024 ( 12.18%)    -1.11738
      27     83.33    -1.13623 ( 88.52%)    -0.90523 ( 11.48%)    -1.10972
      28     85.89    -1.11851 ( 89.70%)    -0.89625 ( 10.30%)    -1.09562
      29     88.39    -1.10177 ( 90.71%)    -0.88776 (  9.29%)    -1.08189
      30     90.85    -1.08579 ( 91.59%)    -0.87964 (  8.41%)    -1.06847
      31     92.50    -1.07527 ( 92.13%)    -0.87430 (  7.87%)    -1.05947
      32     97.14    -1.04680 ( 93.44%)    -0.85981 (  6.56%)    -1.03453
      33    100.71    -1.02578 ( 94.27%)    -0.84910 (  5.73%)    -1.01566
      34    104.37    -1.00508 ( 95.00%)    -0.83854 (  5.00%)    -0.99675
      35    108.99    -0.97995 ( 95.76%)    -0.82570 (  4.24%)    -0.97341
      36    112.63    -0.96097 ( 96.26%)    -0.81598 (  3.74%)    -0.95555
      37    116.21    -0.94289 ( 96.69%)    -0.80670 (  3.31%)    -0.93837
      38    121.95    -0.91509 ( 97.25%)    -0.79242 (  2.75%)    -0.91172
      39    125.21    -0.89992 ( 97.52%)    -0.78460 (  2.48%)    -0.89706
      40    133.23    -0.86430 ( 98.05%)    -0.76621 (  1.95%)    -0.86239
      41    140.99    -0.83194 ( 98.44%)    -0.74943 (  1.56%)    -0.83066
      42    147.26    -0.80721 ( 98.69%)    -0.73656 (  1.31%)    -0.80628
      43    152.33    -0.78797 ( 98.85%)    -0.72651 (  1.15%)    -0.78726
      44    156.40    -0.77307 ( 98.97%)    -0.71871 (  1.03%)    -0.77250
      45    160.82    -0.75733 ( 99.07%)    -0.71045 (  0.93%)    -0.75689
      46    164.28    -0.74537 ( 99.15%)    -0.70416 (  0.85%)    -0.74502
      47    172.34    -0.71847 ( 99.30%)    -0.68995 (  0.70%)    -0.71827
      48    172.41    -0.71824 ( 99.30%)    -0.68984 (  0.70%)    -0.71804
      49    174.64    -0.71106 ( 99.33%)    -0.68603 (  0.67%)    -0.71089
      50    177.76    -0.70120 ( 99.38%)    -0.68080 (  0.62%)    -0.70108
      51    182.89    -0.68535 ( 99.44%)    -0.67235 (  0.56%)    -0.68527
      52    184.98    -0.67906 ( 99.47%)    -0.66900 (  0.53%)    -0.67901
      53    188.64    -0.66821 ( 99.51%)    -0.66320 (  0.49%)    -0.66819
      54    191.68    -0.65936 ( 99.54%)    -0.65845 (  0.46%)    -0.65936
      55    196.61    -0.64537 ( 99.58%)    -0.65093 (  0.42%)    -0.64540
      56    199.43    -0.63754 ( 99.61%)    -0.64671 (  0.39%)    -0.63757
      57    211.60    -0.60520 ( 99.69%)    -0.62917 (  0.31%)    -0.60527
      58    213.88    -0.59936 ( 99.70%)    -0.62598 (  0.30%)    -0.59944
      59    215.07    -0.59637 ( 99.71%)    -0.62435 (  0.29%)    -0.59645
      60    222.38    -0.57831 ( 99.75%)    -0.61445 (  0.25%)    -0.57840
      61    224.44    -0.57334 ( 99.75%)    -0.61171 (  0.25%)    -0.57343
      62    228.66    -0.56333 ( 99.77%)    -0.60620 (  0.23%)    -0.56343
      63    236.08    -0.54628 ( 99.80%)    -0.59674 (  0.20%)    -0.54639
      64    236.96    -0.54430 ( 99.80%)    -0.59563 (  0.20%)    -0.54440
      65    242.19    -0.53271 ( 99.82%)    -0.58916 (  0.18%)    -0.53281
      66    243.69    -0.52945 ( 99.82%)    -0.58734 (  0.18%)    -0.52955
      67    248.62    -0.51888 ( 99.84%)    -0.58140 (  0.16%)    -0.51898
      68    255.98    -0.50357 ( 99.85%)    -0.57276 (  0.15%)    -0.50367
      69    262.03    -0.49141 ( 99.87%)    -0.56584 (  0.13%)    -0.49151
      70    267.19    -0.48131 ( 99.88%)    -0.56006 (  0.12%)    -0.48140
      71    270.09    -0.47574 ( 99.88%)    -0.55687 (  0.12%)    -0.47583
      72    273.52    -0.46925 ( 99.89%)    -0.55313 (  0.11%)    -0.46934
      73    278.38    -0.46023 ( 99.90%)    -0.54791 (  0.10%)    -0.46032
      74    285.82    -0.44680 ( 99.91%)    -0.54009 (  0.09%)    -0.44689
      75    291.27    -0.43725 ( 99.91%)    -0.53450 (  0.09%)    -0.43734
      76    296.36    -0.42856 ( 99.92%)    -0.52937 (  0.08%)    -0.42864
   ------------------------------------------------------------------------

   temp. (K)  partition function   enthalpy   heat capacity  entropy
                                   cal/mol     cal/K/mol   cal/K/mol   J/K/mol
 298.15  VIB  0.150E+34            43350.464    233.379    280.983
         ROT  0.364E+08              888.752      2.981     37.577
         INT  0.546E+41            44239.216    236.360    318.560
         TR   0.121E+29             1481.254      4.968     44.716
         TOT                       45720.4703   241.3281   363.2767  1519.9498

       T/K    H(0)-H(T)+PV         H(T)/Eh          T*S/Eh         G(T)/Eh
   ------------------------------------------------------------------------
    298.15    0.728602E-01    0.808300E+00    0.172604E+00    0.635696E+00
   ------------------------------------------------------------------------

         :::::::::::::::::::::::::::::::::::::::::::::::::::::
         ::                  THERMODYNAMIC                  ::
         :::::::::::::::::::::::::::::::::::::::::::::::::::::
         :: total free energy        -147.104785911480 Eh   ::
         ::.................................................::
         :: total energy             -147.740481507956 Eh   ::
         :: zero point energy           0.735439884043 Eh   ::
         :: G(RRHO) w/o ZPVE           -0.099744287566 Eh   ::
         :: G(RRHO) contrib.            0.635695596476 Eh   ::
         :::::::::::::::::::::::::::::::::::::::::::::::::::::

optimized geometry written to: xtbopt.xyz


           -------------------------------------------------
          | TOTAL ENERGY             -147.740481507956 Eh   |
          | TOTAL ENTHALPY           -146.932181416769 Eh   |
          | TOTAL FREE ENERGY        -147.104785911480 Eh   |
          | GRADIENT NORM               0.000273618788 Eh/α |
          | HOMO-LUMO GAP               6.141456396669 eV   |
           -------------------------------------------------

------------------------------------------------------------------------
 * finished run on 2022/10/12 at 03:16:08.876     
------------------------------------------------------------------------
 total:
 * wall-time:     0 d,  0 h,  0 min, 10.360 sec
 *  cpu-time:     0 d,  0 h,  1 min, 40.613 sec
 * ratio c/w:     9.711 speedup
 SCF:
 * wall-time:     0 d,  0 h,  0 min,  0.105 sec
 *  cpu-time:     0 d,  0 h,  0 min,  1.026 sec
 * ratio c/w:     9.786 speedup
 ANC optimizer:
 * wall-time:     0 d,  0 h,  0 min,  0.292 sec
 *  cpu-time:     0 d,  0 h,  0 min,  2.910 sec
 * ratio c/w:     9.961 speedup
 analytical hessian:
 * wall-time:     0 d,  0 h,  0 min,  9.782 sec
 *  cpu-time:     0 d,  0 h,  1 min, 35.014 sec
 * ratio c/w:     9.713 speedup

