91
 energy: -147.740481507956 gnorm: 0.000273616702 xtb: 6.5.1 (579679a)
C            0.53032039000000        0.02200687850000        0.68215277100000
C           -1.83824870330000        0.55221798290000        0.55666330360000
C           -2.04248964770000        1.38699333600000       -0.69799998930000
C            1.07426124380000        0.98270114710000       -0.29086154750000
H            1.09949680400000       -0.91814943890000        0.68287814230000
H           -2.74787186350000       -0.00340297630000        0.79075095480000
H           -2.42673551210000        0.77379961740000       -1.50589740650000
H            1.16423152840000        0.72538296220000       -1.32791612590000
H            0.55739058410000        0.45958561050000        1.68411728980000
H           -1.58813470280000        1.19683612430000        1.40281923980000
H           -2.76391827030000        2.17221173430000       -0.49432315940000
H           -1.10238114270000        1.83977978380000       -1.00061271870000
O           -0.81829443970000       -0.43457111660000        0.41402415560000
N            1.72107694450000        2.13288832910000        0.15950250950000
H            2.44723297500000        2.43779364140000       -0.47941061080000
H            2.07965569290000        2.03096940140000        1.11083626120000
O            0.83709460320000       -4.78379059100000       -0.08184422910000
H           -0.13403872390000       -4.63263972740000        0.06871212370000
H            0.94131763140000       -5.72899232690000       -0.19029368670000
O           -4.32268876360000       -1.23762634280000        1.88461676040000
H           -5.18518257680000       -1.34964638510000        2.28522169530000
H           -3.68251978320000       -1.19668833510000        2.63860550420000
O           -0.43971752760000       -1.36808684910000       -2.14305622430000
H           -0.62575360870000       -0.96582244020000       -1.27294753540000
H           -1.31154394110000       -1.73321394880000       -2.45516429430000
O           -2.84723002510000       -2.08318306530000       -2.82222919680000
H           -3.22978402410000       -1.22459510650000       -3.09059708630000
H           -3.23773644550000       -2.29740408250000       -1.96018750120000
O           -1.63856311400000        2.00863385090000       -4.03451380160000
H           -0.85391263180000        1.43837601920000       -4.06862895370000
H           -1.42800754540000        2.69411890860000       -3.37886302180000
O            1.80761484140000       -2.76013928890000       -1.66615848010000
H            1.52000219900000       -3.57005362060000       -1.20997380220000
H            0.97683182810000       -2.27407899890000       -1.85422519100000
O           -0.84218437330000       -2.48501512400000        2.28013022080000
H           -0.91832615010000       -1.77197225130000        1.62019874810000
H            0.10368707920000       -2.72853413700000        2.30253558920000
O            4.44318799860000        0.71542002570000        0.64993952760000
H            4.05528106820000        1.09250448430000        1.45046436910000
H            4.04644289580000       -0.16440539200000        0.56224774710000
O            1.14861285210000        3.35299803630000        4.13267319600000
H            1.55199223880000        4.21954561700000        4.07330636800000
H            0.34773617180000        3.38020115680000        3.57423558350000
O           -1.13867828430000        3.24264763360000        2.60649746080000
H           -0.78559010700000        3.57750993520000        1.73350502600000
H           -1.89017359070000        3.79590376460000        2.82066543340000
O           -3.80571845340000       -2.76678425820000       -0.28783611250000
H           -3.92191961950000       -2.16231419920000        0.47760841420000
H           -4.60433412950000       -3.29389493590000       -0.33688441450000
O            3.43260474580000       -1.88608156180000        0.24090594830000
H            2.85099696350000       -2.11375031480000       -0.52609643790000
H            4.28720951290000       -2.27771959970000        0.05388482850000
O           -1.68163009960000       -4.37202063800000        0.54690659470000
H           -1.48900885490000       -3.80192517370000        1.31867326830000
H           -2.35411187870000       -3.88292479650000        0.04746834150000
O            1.76864490960000       -3.16476377260000        1.98770118640000
H            1.52202608060000       -3.87784805060000        1.37402469490000
H            2.43742338680000       -2.64525631800000        1.50236391820000
O           -0.06867317700000        4.14926224420000        0.41182316110000
H           -0.46418004500000        4.14820066970000       -0.47478188810000
H            0.65979180920000        3.48521821700000        0.34225295350000
O           -2.58533020470000       -1.18482842450000        3.89933251470000
H           -2.04702891220000       -0.38982027910000        4.02796419470000
H           -1.97191494940000       -1.83414074740000        3.51338402440000
O            3.85683635580000        1.63481610770000       -1.87681651950000
H            3.77390018370000        0.79176147870000       -2.35419485390000
H            4.21413462950000        1.39448448740000       -1.00173980370000
O            1.71262363620000       -0.84284325470000        3.78225869750000
H            1.77897215410000       -1.71267817280000        3.37405863550000
H            0.77594167360000       -0.61042275420000        3.81803704680000
O            1.70908373810000        2.70804460140000       -3.19091697640000
H            2.53082643430000        2.47236259830000       -2.72160904630000
H            1.40819922400000        1.89321695490000       -3.61004955110000
O            2.74383489550000        1.50418200830000        2.79436379140000
H            2.30407058920000        2.14908280260000        3.37265069070000
H            2.51703591420000        0.63137489680000        3.16472731850000
O           -0.49079221930000        3.90407724250000       -2.32630368860000
H            0.37225369550000        3.47996716800000       -2.56206275690000
H           -0.48631922180000        4.75226352560000       -2.77195653580000
O           -0.63583686100000        0.84552819670000        3.99697227520000
H           -0.87924422010000        1.60526057890000        3.44447595490000
H           -0.10375959500000        1.21228018300000        4.70818709570000
O           -3.71684460850000        0.39653090960000       -3.53326500490000
H           -2.97499917440000        1.01946254180000       -3.71474873630000
H           -4.33344002060000        0.50226166240000       -4.25740228140000
O            0.50749998780000        0.18371515100000       -4.02278379110000
H            0.12455520050000       -0.37550818430000       -3.29066529090000
H            0.34229974960000       -0.29399538080000       -4.83714398310000
O            3.08987323750000       -0.70137928360000       -3.18447828300000
H            2.27616920780000       -0.34824557860000       -3.57229786650000
H            2.83231335250000       -1.51381302640000       -2.73293597610000
