      -----------------------------------------------------------      
     |                   =====================                   |     
     |                           x T B                           |     
     |                   =====================                   |     
     |                         S. Grimme                         |     
     |          Mulliken Center for Theoretical Chemistry        |     
     |                    University of Bonn                     |     
      -----------------------------------------------------------      

   * xtb version 6.5.1 (579679a) compiled by 'ehlert@majestix' on 2022-07-11

   xtb is free software: you can redistribute it and/or modify it under
   the terms of the GNU Lesser General Public License as published by
   the Free Software Foundation, either version 3 of the License, or
   (at your option) any later version.
   
   xtb is distributed in the hope that it will be useful,
   but WITHOUT ANY WARRANTY; without even the implied warranty of
   MERCHANTABILITY or FITNESS FOR A PARTICULAR PURPOSE.  See the
   GNU Lesser General Public License for more details.
   
   Cite this work as:
   * C. Bannwarth, E. Caldeweyher, S. Ehlert, A. Hansen, P. Pracht,
     J. Seibert, S. Spicher, S. Grimme, WIREs Comput. Mol. Sci., 2020, 11,
     e01493. DOI: 10.1002/wcms.1493
   
   for GFN2-xTB:
   * C. Bannwarth, S. Ehlert and S. Grimme., J. Chem. Theory Comput., 2019,
     15, 1652-1671. DOI: 10.1021/acs.jctc.8b01176
   for GFN1-xTB:
   * S. Grimme, C. Bannwarth, P. Shushkov, J. Chem. Theory Comput., 2017,
     13, 1989-2009. DOI: 10.1021/acs.jctc.7b00118
   for GFN0-xTB:
   * P. Pracht, E. Caldeweyher, S. Ehlert, S. Grimme, ChemRxiv, 2019, preprint.
     DOI: 10.26434/chemrxiv.8326202.v1
   for GFN-FF:
   * S. Spicher and S. Grimme, Angew. Chem. Int. Ed., 2020, 59, 15665-15673.
     DOI: 10.1002/anie.202004239
   
   for ALPB and GBSA implicit solvation:
   * S. Ehlert, M. Stahn, S. Spicher, S. Grimme, J. Chem. Theory Comput.,
     2021, 17, 4250-4261. DOI: 10.1021/acs.jctc.1c00471
   
   for DFT-D4:
   * E. Caldeweyher, C. Bannwarth and S. Grimme, J. Chem. Phys., 2017,
     147, 034112. DOI: 10.1063/1.4993215
   * E. Caldeweyher, S. Ehlert, A. Hansen, H. Neugebauer, S. Spicher,
     C. Bannwarth and S. Grimme, J. Chem. Phys., 2019, 150, 154122.
     DOI: 10.1063/1.5090222
   * E. Caldeweyher, J.-M. Mewes, S. Ehlert and S. Grimme, Phys. Chem. Chem. Phys.
     2020, 22, 8499-8512. DOI: 10.1039/D0CP00502A
   
   for sTDA-xTB:
   * S. Grimme and C. Bannwarth, J. Chem. Phys., 2016, 145, 054103.
     DOI: 10.1063/1.4959605
   
   in the mass-spec context:
   * V. Asgeirsson, C. Bauer and S. Grimme, Chem. Sci., 2017, 8, 4879.
     DOI: 10.1039/c7sc00601b
   * J. Koopman and S. Grimme, ACS Omega 2019, 4, 12, 15120-15133.
     DOI: 10.1021/acsomega.9b02011
   
   for metadynamics refer to:
   * S. Grimme, J. Chem. Theory Comput., 2019, 155, 2847-2862
     DOI: 10.1021/acs.jctc.9b00143
   
   for SPH calculations refer to:
   * S. Spicher and S. Grimme, J. Chem. Theory Comput., 2021, 17, 1701-1714
     DOI: 10.1021/acs.jctc.0c01306
   
   with help from (in alphabetical order)
   P. Atkinson, C. Bannwarth, F. Bohle, G. Brandenburg, E. Caldeweyher
   M. Checinski, S. Dohm, S. Ehlert, S. Ehrlich, I. Gerasimov, C. Hölzer
   A. Katbashev, J. Koopman, C. Lavigne, S. Lehtola, F. März, M. Müller,
   F. Musil, H. Neugebauer, J. Pisarek, C. Plett, P. Pracht, F. Pultar,
   J. Seibert, P. Shushkov, S. Spicher, M. Stahn, M. Steiner, T. Strunk,
   J. Stückrath, T. Rose, and J. Unsleber
   
 * started run on 2022/11/24 at 12:04:44.001     

           -------------------------------------------------
          |                Calculation Setup                |
           -------------------------------------------------

          program call               : xtb solvent_cluster.coord --gfn2 --input xcontrol --opt 1
          hostname                   : cn0430
          coordinate file            : solvent_cluster.coord
          omp threads                :                     2

   ID    Z sym.   atoms
    1    8 o      1, 4, 7, 10, 13, 16, 19, 22, 25, 28, 31, 34, 37, 40, 43,
                  46, 49, 52, 55, 58, 61, 64, 67, 70, 73, 76, 79, 82, 85, 88,
                  91, 94, 97, 100, 103, 106, 109, 112, 115, 118, 121, 124,
                  127, 130, 133, 136, 139, 142, 145, 148, 151, 154, 157, 160,
                  163, 166, 169, 172, 175, 178, 181, 184, 187, 190, 193, 196,
                  199, 202, 205, 208, 211, 214, 217, 220, 223, 226, 229, 232,
                  235, 238, 241, 244, 247, 250, 253, 256, 259, 262, 265, 268,
                  271, 274, 277, 280, 283, 286, 289, 292, 295, 298, 301, 304,
                  307, 310, 313, 316, 319, 322, 325, 328, 331, 334, 337, 340,
                  343, 346, 349, 352, 355, 358, 361, 364, 367, 370, 373, 376,
                  379, 382, 385, 388, 391, 394, 397, 400, 403, 406, 409, 412,
                  415, 418, 421, 424, 427, 430, 433, 436, 439, 442, 445, 448,
                  451, 454, 457, 460, 463, 466, 469, 472, 475, 478, 481, 484,
                  487, 490, 493, 496, 499, 502, 505, 508, 511, 514, 517, 520,
                  523, 526, 529, 532, 535, 538, 541, 544, 547, 550, 553, 556,
                  559, 562, 565, 568, 571, 574, 577, 580, 583, 586, 589, 592,
                  595, 598, 601, 604, 607, 610, 613, 616, 619, 622, 625, 628,
                  631, 634, 637, 640, 643, 646, 649, 652, 655, 658, 661, 664,
                  667, 670, 673, 676, 679, 682, 685, 688, 691, 694, 697, 700,
                  703, 706, 709, 712, 715, 718, 721, 724, 727, 730, 733, 736,
                  739, 742, 745, 748, 751, 754
    2    1 h      2, 3, 5, 6, 8, 9, 11, 12, 14, 15, 17, 18, 20, 21, 23, 24,
                  26, 27, 29, 30, 32, 33, 35, 36, 38, 39, 41, 42, 44, 45, 47,
                  48, 50, 51, 53, 54, 56, 57, 59, 60, 62, 63, 65, 66, 68, 69,
                  71, 72, 74, 75, 77, 78, 80, 81, 83, 84, 86, 87, 89, 90, 92,
                  93, 95, 96, 98, 99, 101, 102, 104, 105, 107, 108, 110, 111,
                  113, 114, 116, 117, 119, 120, 122, 123, 125, 126, 128, 129,
                  131, 132, 134, 135, 137, 138, 140, 141, 143, 144, 146, 147,
                  149, 150, 152, 153, 155, 156, 158, 159, 161, 162, 164, 165,
                  167, 168, 170, 171, 173, 174, 176, 177, 179, 180, 182, 183,
                  185, 186, 188, 189, 191, 192, 194, 195, 197, 198, 200, 201,
                  203, 204, 206, 207, 209, 210, 212, 213, 215, 216, 218, 219,
                  221, 222, 224, 225, 227, 228, 230, 231, 233, 234, 236, 237,
                  239, 240, 242, 243, 245, 246, 248, 249, 251, 252, 254, 255,
                  257, 258, 260, 261, 263, 264, 266, 267, 269, 270, 272, 273,
                  275, 276, 278, 279, 281, 282, 284, 285, 287, 288, 290, 291,
                  293, 294, 296, 297, 299, 300, 302, 303, 305, 306, 308, 309,
                  311, 312, 314, 315, 317, 318, 320, 321, 323, 324, 326, 327,
                  329, 330, 332, 333, 335, 336, 338, 339, 341, 342, 344, 345,
                  347, 348, 350, 351, 353, 354, 356, 357, 359, 360, 362, 363,
                  365, 366, 368, 369, 371, 372, 374, 375, 377, 378, 380, 381,
                  383, 384, 386, 387, 389, 390, 392, 393, 395, 396, 398, 399,
                  401, 402, 404, 405, 407, 408, 410, 411, 413, 414, 416, 417,
                  419, 420, 422, 423, 425, 426, 428, 429, 431, 432, 434, 435,
                  437, 438, 440, 441, 443, 444, 446, 447, 449, 450, 452, 453,
                  455, 456, 458, 459, 461, 462, 464, 465, 467, 468, 470, 471,
                  473, 474, 476, 477, 479, 480, 482, 483, 485, 486, 488, 489,
                  491, 492, 494, 495, 497, 498, 500, 501, 503, 504, 506, 507,
                  509, 510, 512, 513, 515, 516, 518, 519, 521, 522, 524, 525,
                  527, 528, 530, 531, 533, 534, 536, 537, 539, 540, 542, 543,
                  545, 546, 548, 549, 551, 552, 554, 555, 557, 558, 560, 561,
                  563, 564, 566, 567, 569, 570, 572, 573, 575, 576, 578, 579,
                  581, 582, 584, 585, 587, 588, 590, 591, 593, 594, 596, 597,
                  599, 600, 602, 603, 605, 606, 608, 609, 611, 612, 614, 615,
                  617, 618, 620, 621, 623, 624, 626, 627, 629, 630, 632, 633,
                  635, 636, 638, 639, 641, 642, 644, 645, 647, 648, 650, 651,
                  653, 654, 656, 657, 659, 660, 662, 663, 665, 666, 668, 669,
                  671, 672, 674, 675, 677, 678, 680, 681, 683, 684, 686, 687,
                  689, 690, 692, 693, 695, 696, 698, 699, 701, 702, 704, 705,
                  707, 708, 710, 711, 713, 714, 716, 717, 719, 720, 722, 723,
                  725, 726, 728, 729, 731, 732, 734, 735, 737, 738, 740, 741,
                  743, 744, 746, 747, 749, 750, 752, 753, 755, 756

molecular fragmentation (1/2 indicates fragments):
111222222222222222222222222222222222222222222222222222222222222222222222
222222222222222222222222222222222222222222222222222222222222222222222222
222222222222222222222222222222222222222222222222222222222222222222222222
222222222222222222222222222222222222222222222222222222222222222222222222
222222222222222222222222222222222222222222222222222222222222222222222222
222222222222222222222222222222222222222222222222222222222222222222222222
222222222222222222222222222222222222222222222222222222222222222222222222
222222222222222222222222222222222222222222222222222222222222222222222222
222222222222222222222222222222222222222222222222222222222222222222222222
222222222222222222222222222222222222222222222222222222222222222222222222
222222222222222222222222222222222222
# atoms in fragment 1/2:     3   753
 fragment masses (1/2) :       18.02     4521.84
CMA distance (Bohr)    :  17.857
constraining FC (au)   :  0.0500

           -------------------------------------------------
          |                 G F N 2 - x T B                 |
           -------------------------------------------------

        Reference                      10.1021/acs.jctc.8b01176
      * Hamiltonian:
        H0-scaling (s, p, d)           1.850000    2.230000    2.230000
        zeta-weighting                 0.500000
      * Dispersion:
        s8                             2.700000
        a1                             0.520000
        a2                             5.000000
        s9                             5.000000
      * Repulsion:
        kExp                           1.500000    1.000000
        rExp                           1.000000
      * Coulomb:
        alpha                          2.000000
        third order                    shell-resolved
        anisotropic                    true
        a3                             3.000000
        a5                             4.000000
        cn-shift                       1.200000
        cn-exp                         4.000000
        max-rad                        5.000000


          ...................................................
          :                      SETUP                      :
          :.................................................:
          :  # basis functions                1512          :
          :  # atomic orbitals                1512          :
          :  # shells                         1008          :
          :  # electrons                      2016          :
          :  max. iterations                   250          :
          :  Hamiltonian                  GFN2-xTB          :
          :  restarted?                      false          :
          :  GBSA solvation                  false          :
          :  PC potential                    false          :
          :  electronic temp.          300.0000000     K    :
          :  accuracy                    1.0000000          :
          :  -> integral cutoff          0.2500000E+02      :
          :  -> integral neglect         0.1000000E-07      :
          :  -> SCF convergence          0.1000000E-05 Eh   :
          :  -> wf. convergence          0.1000000E-03 e    :
          :  Broyden damping             0.4000000          :
          ...................................................

 iter      E             dE          RMSdq      gap      omega  full diag
   1  -1290.9951702 -0.129100E+04  0.407E+00    8.35       0.0  T
   2  -1291.0727994 -0.776292E-01  0.242E+00    7.30       1.0  T
   3  -1291.1045811 -0.317818E-01  0.212E-01    5.69       1.0  T
   4  -1291.1099778 -0.539668E-02  0.461E-02    6.16       1.0  T
   5  -1291.1100620 -0.842180E-04  0.311E-02    6.08       1.0  T
   6  -1291.1101027 -0.406270E-04  0.443E-03    6.12       1.0  T
   7  -1291.1101053 -0.260052E-05  0.749E-04    6.12       4.9  T
   8  -1291.1101053 -0.296768E-07  0.390E-04    6.12       9.3  T
   9  -1291.1101053 -0.146658E-07  0.662E-05    6.12      54.9  T

   *** convergence criteria satisfied after 9 iterations ***

         #    Occupation            Energy/Eh            Energy/eV
      -------------------------------------------------------------
         1        2.0000           -0.6971492             -18.9704
       ...           ...                  ...                  ...
      1002        2.0000           -0.3593460              -9.7783
      1003        2.0000           -0.3572673              -9.7217
      1004        2.0000           -0.3544240              -9.6444
      1005        2.0000           -0.3485925              -9.4857
      1006        2.0000           -0.3474536              -9.4547
      1007        2.0000           -0.3356101              -9.1324
      1008        2.0000           -0.3188820              -8.6772 (HOMO)
      1009                         -0.0941056              -2.5607 (LUMO)
      1010                         -0.0810952              -2.2067
      1011                         -0.0728513              -1.9824
      1012                         -0.0618866              -1.6840
      1013                         -0.0569395              -1.5494
       ...                                ...                  ...
      1512                          0.4888805              13.3031
      -------------------------------------------------------------
                  HL-Gap            0.2247764 Eh            6.1165 eV
             Fermi-level           -0.2064938 Eh           -5.6190 eV

 SCC (total)                   0 d,  0 h,  0 min, 21.710 sec
 SCC setup                      ...        0 min,  0.042 sec (  0.194%)
 Dispersion                     ...        0 min,  0.119 sec (  0.548%)
 classical contributions        ...        0 min,  0.023 sec (  0.107%)
 integral evaluation            ...        0 min,  0.623 sec (  2.869%)
 iterations                     ...        0 min,  8.180 sec ( 37.681%)
 molecular gradient             ...        0 min, 12.654 sec ( 58.285%)
 printout                       ...        0 min,  0.069 sec (  0.316%)

         :::::::::::::::::::::::::::::::::::::::::::::::::::::
         ::                     SUMMARY                     ::
         :::::::::::::::::::::::::::::::::::::::::::::::::::::
         :: total energy           -1283.297644960622 Eh    ::
         :: gradient norm              0.102501499089 Eh/a0 ::
         :: HOMO-LUMO gap              6.116478498072 eV    ::
         ::.................................................::
         :: SCC energy             -1291.110105315189 Eh    ::
         :: -> isotropic ES            7.152432318917 Eh    ::
         :: -> anisotropic ES         -1.605506737704 Eh    ::
         :: -> anisotropic XC         -0.127569369882 Eh    ::
         :: -> dispersion             -0.796709599266 Eh    ::
         :: repulsion energy           7.654732048483 Eh    ::
         :: add. restraining           0.000000000000 Eh    ::
         :: total charge               0.000000000000 e     ::
         :::::::::::::::::::::::::::::::::::::::::::::::::::::

      ----------------------------------------------------------- 
     |                       L-ANC optimizer                     |
      ----------------------------------------------------------- 
          low memory version by Sebastian Ehlert

          ...................................................
          :                      SETUP                      :
          :.................................................:
          :   energy convergence        0.1000000E-05 Eh    :
          :   grad. convergence         0.8000000E-03 Eh/a0 :
          :   optimization log               true           :
          :   writing optlog all                1     steps :
          :   Hessian reset                    20     steps :
          :   maximium step len.        1.0000000     a0    :
          :   LBFGS images                     20           :
          ...................................................
 * calculating model hessian...
Using Lindh-Hessian (1995)
 Shifting diagonal of input Hessian by   1.000008199805990E-002
 Lowest  eigenvalues of input Hessian
    0.010000    0.010000   -0.000000   -0.000000   -0.000000   -0.000000
   -0.000000   -0.000000   -0.000000   -0.000000   -0.000000   -0.000000
   -0.000000   -0.000000   -0.000000   -0.000000   -0.000000   -0.000000
 Highest eigenvalues
    0.313475    0.317338    1.221989    1.228518    1.427978    1.446754
 

........................................................................
.............................. CYCLE    1 ..............................
........................................................................
   1  -1291.1110337 -0.129111E+04  0.119E-02    6.16       0.0  T
   2  -1291.1110489 -0.152508E-04  0.682E-03    6.14       1.0  T
   3  -1291.1110510 -0.211453E-05  0.233E-03    6.13       1.6  T
   4  -1291.1110512 -0.177585E-06  0.268E-04    6.13      13.6  T
   5  -1291.1110512 -0.185810E-08  0.519E-05    6.13      70.1  T
     SCC iter.                  ...        0 min,  3.718 sec
     gradient                   ...        0 min, 12.382 sec
 * total energy  : -1283.2991246 Eh     change       -0.1479618E-02 Eh
   gradient norm :     0.0067642 Eh/a0  converged?    E=F G=F D=F
   step length   :     0.3322991 a0

........................................................................
.............................. CYCLE    2 ..............................
........................................................................
   1  -1291.1074410 -0.129111E+04  0.235E-02    6.13       0.0  T
   2  -1291.1074478 -0.676532E-05  0.145E-02    6.14       1.0  T
   3  -1291.1074507 -0.297892E-05  0.126E-03    6.14       2.9  T
   4  -1291.1074509 -0.139381E-06  0.348E-04    6.14      10.4  T
   5  -1291.1074509 -0.248315E-08  0.425E-05    6.14      85.7  T
     SCC iter.                  ...        0 min,  3.827 sec
     gradient                   ...        0 min, 12.694 sec
 * total energy  : -1283.2994552 Eh     change       -0.3306099E-03 Eh
   gradient norm :     0.0222002 Eh/a0  converged?    E=F G=F D=F
   step length   :     0.2706716 a0

........................................................................
.............................. CYCLE    3 ..............................
........................................................................
   1  -1291.1105285 -0.129111E+04  0.930E-03    6.16       0.0  T
   2  -1291.1105299 -0.143425E-05  0.569E-03    6.16       1.0  T
   3  -1291.1105306 -0.688706E-06  0.686E-04    6.17       5.3  T
   4  -1291.1105306 -0.289676E-07  0.195E-04    6.17      18.6  T
     SCC iter.                  ...        0 min,  2.845 sec
     gradient                   ...        0 min, 12.780 sec
 * total energy  : -1283.2997383 Eh     change       -0.2831255E-03 Eh
   gradient norm :     0.0047227 Eh/a0  converged?    E=F G=F D=F
   step length   :     0.1048174 a0

........................................................................
.............................. CYCLE    4 ..............................
........................................................................
   1  -1291.1107692 -0.129111E+04  0.476E-03    6.19       0.0  T
   2  -1291.1107694 -0.191520E-06  0.291E-03    6.19       1.3  T
   3  -1291.1107695 -0.910661E-07  0.223E-04    6.19      16.3  T
   4  -1291.1107695 -0.415389E-08  0.730E-05    6.19      49.8  T
     SCC iter.                  ...        0 min,  2.820 sec
     gradient                   ...        0 min, 12.659 sec
 * total energy  : -1283.2998553 Eh     change       -0.1169634E-03 Eh
   gradient norm :     0.0033584 Eh/a0  converged?    E=F G=F D=F
   step length   :     0.0996118 a0

........................................................................
.............................. CYCLE    5 ..............................
........................................................................
   1  -1291.1104111 -0.129111E+04  0.102E-02    6.20       0.0  T
   2  -1291.1104120 -0.816314E-06  0.620E-03    6.20       1.0  T
   3  -1291.1104123 -0.343565E-06  0.444E-04    6.20       8.2  T
   4  -1291.1104123 -0.186192E-07  0.136E-04    6.20      26.7  T
     SCC iter.                  ...        0 min,  2.751 sec
     gradient                   ...        0 min, 12.678 sec
 * total energy  : -1283.2999591 Eh     change       -0.1037971E-03 Eh
   gradient norm :     0.0061056 Eh/a0  converged?    E=F G=F D=F
   step length   :     0.2026535 a0

........................................................................
.............................. CYCLE    6 ..............................
........................................................................
   1  -1291.1112133 -0.129111E+04  0.362E-03    6.20       0.0  T
   2  -1291.1112136 -0.347492E-06  0.219E-03    6.19       1.7  T
   3  -1291.1112137 -0.928135E-07  0.324E-04    6.19      11.2  T
   4  -1291.1112138 -0.106459E-07  0.743E-05    6.19      48.9  T
     SCC iter.                  ...        0 min,  2.721 sec
     gradient                   ...        0 min, 12.738 sec
 * total energy  : -1283.2999939 Eh     change       -0.3477838E-04 Eh
   gradient norm :     0.0036801 Eh/a0  converged?    E=F G=F D=F
   step length   :     0.0709748 a0

........................................................................
.............................. CYCLE    7 ..............................
........................................................................
   1  -1291.1117934 -0.129111E+04  0.218E-03    6.19       0.0  T
   2  -1291.1117936 -0.218932E-06  0.130E-03    6.18       2.8  T
   3  -1291.1117937 -0.525984E-07  0.268E-04    6.18      13.6  T
   4  -1291.1117937 -0.570935E-08  0.574E-05    6.18      63.4  T
     SCC iter.                  ...        0 min,  2.674 sec
     gradient                   ...        0 min, 12.693 sec
 * total energy  : -1283.3000221 Eh     change       -0.2821393E-04 Eh
   gradient norm :     0.0017463 Eh/a0  converged?    E=F G=F D=F
   step length   :     0.0458480 a0

........................................................................
.............................. CYCLE    8 ..............................
........................................................................
   1  -1291.1113318 -0.129111E+04  0.458E-03    6.17       0.0  T
   2  -1291.1113322 -0.373005E-06  0.281E-03    6.16       1.3  T
   3  -1291.1113323 -0.109605E-06  0.311E-04    6.16      11.7  T
   4  -1291.1113323 -0.120972E-07  0.842E-05    6.16      43.2  T
     SCC iter.                  ...        0 min,  2.652 sec
     gradient                   ...        0 min, 13.152 sec
 * total energy  : -1283.3000374 Eh     change       -0.1538314E-04 Eh
   gradient norm :     0.0020148 Eh/a0  converged?    E=F G=F D=F
   step length   :     0.0985036 a0

........................................................................
.............................. CYCLE    9 ..............................
........................................................................
   1  -1291.1115100 -0.129111E+04  0.114E-03    6.16       0.0  T
   2  -1291.1115100 -0.137072E-07  0.685E-04    6.16       5.3  T
   3  -1291.1115101 -0.346586E-08  0.589E-05    6.16      61.7  T
     SCC iter.                  ...        0 min,  1.997 sec
     gradient                   ...        0 min, 13.154 sec
 * total energy  : -1283.3000444 Eh     change       -0.6913160E-05 Eh
   gradient norm :     0.0013457 Eh/a0  converged?    E=F G=F D=F
   step length   :     0.0221968 a0

........................................................................
.............................. CYCLE   10 ..............................
........................................................................
   1  -1291.1116274 -0.129111E+04  0.255E-03    6.16       0.0  T
   2  -1291.1116275 -0.568107E-07  0.155E-03    6.16       2.3  T
   3  -1291.1116275 -0.237505E-07  0.125E-04    6.17      29.2  T
   4  -1291.1116275 -0.156615E-08  0.402E-05    6.17      90.5  T
     SCC iter.                  ...        0 min,  2.666 sec
     gradient                   ...        0 min, 13.227 sec
 * total energy  : -1283.3000530 Eh     change       -0.8592556E-05 Eh
   gradient norm :     0.0011768 Eh/a0  converged?    E=F G=F D=F
   step length   :     0.0527956 a0

........................................................................
.............................. CYCLE   11 ..............................
........................................................................
   1  -1291.1115720 -0.129111E+04  0.162E-03    6.17       0.0  T
   2  -1291.1115720 -0.311290E-07  0.985E-04    6.17       3.7  T
   3  -1291.1115720 -0.126495E-07  0.971E-05    6.16      37.5  T
     SCC iter.                  ...        0 min,  1.988 sec
     gradient                   ...        0 min, 13.179 sec
 * total energy  : -1283.3000575 Eh     change       -0.4529430E-05 Eh
   gradient norm :     0.0006540 Eh/a0  converged?    E=F G=T D=F
   step length   :     0.0400494 a0

........................................................................
.............................. CYCLE   12 ..............................
........................................................................
   1  -1291.1114635 -0.129111E+04  0.232E-03    6.17       0.0  T
   2  -1291.1114636 -0.108934E-06  0.142E-03    6.16       2.6  T
   3  -1291.1114636 -0.345569E-07  0.179E-04    6.16      20.3  T
   4  -1291.1114636 -0.346790E-08  0.469E-05    6.16      77.6  T
     SCC iter.                  ...        0 min,  2.660 sec
     gradient                   ...        0 min, 13.050 sec
 * total energy  : -1283.3000615 Eh     change       -0.4059230E-05 Eh
   gradient norm :     0.0006416 Eh/a0  converged?    E=F G=T D=F
   step length   :     0.0617356 a0

........................................................................
.............................. CYCLE   13 ..............................
........................................................................
   1  -1291.1114512 -0.129111E+04  0.162E-03    6.16       0.0  T
   2  -1291.1114513 -0.429270E-07  0.996E-04    6.16       3.7  T
   3  -1291.1114513 -0.158361E-07  0.109E-04    6.16      33.4  T
     SCC iter.                  ...        0 min,  2.020 sec
     gradient                   ...        0 min, 13.187 sec
 * total energy  : -1283.3000641 Eh     change       -0.2579128E-05 Eh
   gradient norm :     0.0006965 Eh/a0  converged?    E=F G=T D=F
   step length   :     0.0390250 a0

........................................................................
.............................. CYCLE   14 ..............................
........................................................................
   1  -1291.1113995 -0.129111E+04  0.350E-03    6.16       0.0  T
   2  -1291.1113997 -0.177281E-06  0.215E-03    6.16       1.7  T
   3  -1291.1113998 -0.644006E-07  0.220E-04    6.16      16.5  T
   4  -1291.1113998 -0.521959E-08  0.584E-05    6.16      62.2  T
     SCC iter.                  ...        0 min,  2.580 sec
     gradient                   ...        0 min, 13.145 sec
 * total energy  : -1283.3000686 Eh     change       -0.4464193E-05 Eh
   gradient norm :     0.0009955 Eh/a0  converged?    E=F G=F D=F
   step length   :     0.0775070 a0

........................................................................
.............................. CYCLE   15 ..............................
........................................................................
   1  -1291.1113852 -0.129111E+04  0.285E-03    6.16       0.0  T
   2  -1291.1113853 -0.900432E-07  0.175E-03    6.16       2.1  T
   3  -1291.1113854 -0.380555E-07  0.154E-04    6.16      23.7  T
   4  -1291.1113854 -0.223008E-08  0.441E-05    6.16      82.5  T
     SCC iter.                  ...        0 min,  2.590 sec
     gradient                   ...        0 min, 13.151 sec
 * total energy  : -1283.3000711 Eh     change       -0.2488942E-05 Eh
   gradient norm :     0.0010132 Eh/a0  converged?    E=F G=F D=F
   step length   :     0.0551662 a0

........................................................................
.............................. CYCLE   16 ..............................
........................................................................
   1  -1291.1114734 -0.129111E+04  0.139E-03    6.16       0.0  T
   2  -1291.1114735 -0.222899E-07  0.845E-04    6.16       4.3  T
   3  -1291.1114735 -0.813384E-08  0.794E-05    6.16      45.8  T
     SCC iter.                  ...        0 min,  1.960 sec
     gradient                   ...        0 min, 13.213 sec
 * total energy  : -1283.3000725 Eh     change       -0.1392839E-05 Eh
   gradient norm :     0.0003919 Eh/a0  converged?    E=F G=T D=F
   step length   :     0.0258212 a0

........................................................................
.............................. CYCLE   17 ..............................
........................................................................
   1  -1291.1114557 -0.129111E+04  0.156E-03    6.16       0.0  T
   2  -1291.1114557 -0.200673E-07  0.956E-04    6.16       3.8  T
   3  -1291.1114557 -0.973864E-08  0.676E-05    6.16      53.8  T
     SCC iter.                  ...        0 min,  1.934 sec
     gradient                   ...        0 min, 13.192 sec
 * total energy  : -1283.3000735 Eh     change       -0.1070763E-05 Eh
   gradient norm :     0.0004725 Eh/a0  converged?    E=F G=T D=F
   step length   :     0.0242895 a0

........................................................................
.............................. CYCLE   18 ..............................
........................................................................
   1  -1291.1115789 -0.129111E+04  0.882E-04    6.16       0.0  T
   2  -1291.1115789 -0.715863E-08  0.537E-04    6.16       6.8  T
   3  -1291.1115789 -0.278328E-08  0.446E-05    6.16      81.6  T
     SCC iter.                  ...        0 min,  1.923 sec
     gradient                   ...        0 min, 13.161 sec
 * total energy  : -1283.3000742 Eh     change       -0.6844209E-06 Eh
   gradient norm :     0.0004144 Eh/a0  converged?    E=T G=T D=F
   step length   :     0.0138266 a0

   *** GEOMETRY OPTIMIZATION CONVERGED AFTER 18 CYCLES ***

------------------------------------------------------------------------
 total energy gain   :        -0.0024293 Eh       -1.5244 kcal/mol
 total RMSD          :         0.0316872 a0        0.0168 Å
 total power (kW/mol):        -0.3543351 (step)   -0.0209 (real)
------------------------------------------------------------------------

 L-ANCopt (total)              0 d,  0 h,  5 min,  5.900 sec
 setup                          ...        0 min,  0.031 sec (  0.010%)
 model hessian                  ...        0 min,  7.766 sec (  2.539%)
 ANC generation                 ...        0 min,  2.474 sec (  0.809%)
 coordinate transformation      ...        0 min,  0.002 sec (  0.001%)
 Rational function              ...        0 min,  0.000 sec (  0.000%)
 singlepoint calculation        ...        4 min, 55.497 sec ( 96.599%)
 optimization log               ...        0 min,  0.125 sec (  0.041%)
 hessian update                 ...        0 min,  0.000 sec (  0.000%)

================
 final structure:
================
$coord
       10.73744133260800      -14.10727721198800        0.21719416287800      o
        9.60730315962600      -14.63913224030100       -1.16435295991400      h
       12.43569444102700      -14.23841575297500       -0.43235713095500      h
       -1.19790127603000        6.56485959260600        8.90932025820600      o
       -2.77677727724000        6.08405138743100        8.10768688378600      h
       -0.30914392957900        7.62316648886200        7.70130440034400      h
       -1.57709618304500       -3.65670784228300       -3.56995276441000      o
       -0.55937180747300       -3.31729291693300       -2.07280416868300      h
       -2.47671626743700       -5.20704572452700       -3.17571834719400      h
      -12.05180705459600        4.70426011465400        0.94068733792500      o
      -10.84017024163100        5.42234304588200       -0.24407480586000      h
      -13.56175657189000        5.73978273102700        0.67947676020700      h
       -6.88302413958600        5.17337545986000        1.12409033600600      o
       -7.66951559615400        6.79052200731400        1.52886480949700      h
       -6.09725188436900        5.33314297008900       -0.51458606724700      h
       -6.49902301206200       -8.99212349865500        1.93383012471100      o
       -8.29454967717200       -9.08994621707700        1.58712870674000      h
       -6.18747594256000       -7.40979987046300        2.85590958481500      h
       -0.45866636351700       -9.48549060517100       -6.26289933414800      o
       -1.95255160208500       -8.52904158939100       -6.71704567142600      h
       -0.85006054644100      -11.25139067011300       -6.51366757218600      h
        0.29520693878600       -8.61866884151400        1.38089633103300      o
       -0.59531818166200       -8.82646270438800        2.98334345829600      h
        1.74462991323600       -9.76354756136000        1.52808274338900      h
       -3.53556786850600       -8.24813276216700       -1.98472200808500      o
       -2.01247244467800       -8.62141193255400       -1.01967250047700      h
       -4.90151491770500       -8.31681267520800       -0.72866592925800      h
        0.34266540232700        4.60708799127200      -11.78711595675900      o
       -1.36024056759400        3.95501877593900      -11.37862873132500      h
        1.43599499721500        3.55896973898700      -10.75270459392000      h
       -8.26332584019200       -2.66651782089000       -4.96621249408900      o
       -9.18116066835500       -1.27685197583900       -4.17945698290200      h
       -6.96047733513700       -1.95646715714900       -6.06428246368700      h
       -1.91485988135600        6.73355687714200       -7.11911100715100      o
       -0.18945910185200        7.05979147686700       -7.63566280777100      h
       -2.56343909222400        5.28236865469200       -8.04224575428700      h
       -8.66665135554000       -7.37578236846400       -3.15622861685300      o
       -8.88917175447000       -8.46242804216500       -4.62654640261800      h
       -8.59213321997200       -5.62667310779800       -3.70993031238700      h
       -6.33116249345300        2.84185639704200       -5.11737814017200      o
       -6.92363038880400        2.49117202693100       -6.80513514658600      h
       -4.53660348934900        2.42919641407100       -5.12578750549500      h
       -2.83184722147700        5.57769047124200       -2.37142951985500      o
       -2.40867625094100        5.71183386357200       -4.15758599320800      h
       -1.26895951897100        5.80426514283700       -1.42375720226500      h
       -1.50968901951700        1.13472860908600       -5.83352991113000      o
       -1.17249579696600        0.71231203075500       -7.56938899566500      h
       -1.54436585615900       -0.44859560008300       -4.92474073942600      h
       -5.34305424688900        0.54153060091800        6.50173718216800      o
       -5.84204197455500        0.39345092398700        8.29394573077500      h
       -6.70181494420200       -0.06013719826100        5.43705596268400      h
       -8.06032544690200       -2.99851144000400       14.21884210160500      o
       -9.83300099384500       -2.75242471360200       13.87793034511700      h
       -7.66949949172000       -4.71976162392200       13.71047333118600      h
       -1.73249267646200       -9.54094612039800        5.91608455000500      o
       -3.52301333375500       -9.24066966709800        6.23382768979900      h
       -0.93634293639100       -9.25074291174200        7.55335960373700      h
       -6.28188982043600        0.75795756378500       11.31416122453900      o
       -4.54746246881400        1.17646735424700       11.81046033799700      h
       -6.79522639672800       -0.69545469452000       12.34492532351100      h
       -5.48063572043900       -4.64745488780100        4.22715534828500      o
       -3.71861478325800       -4.57100057795400        4.74153614424000      h
       -6.44792723462800       -4.53787433968700        5.79059987384900      h
        6.78476672467000        0.81484474767500        5.04362340040800      o
        6.14763188879300        0.07199399554700        3.46871932100800      h
        5.49740532482400        1.81689866076300        5.83284868892500      h
        0.71045701170200       -3.66387773711200        0.98911771208800      o
        2.45424711334000       -3.11703513034600        0.95563563577900      h
        0.68508118716200       -5.47671016645700        1.34991689079800      h
        0.88506623791800        9.76468748392600       -3.40897433196600      o
        0.97893888675400       10.72573311256800       -1.85911385307800      h
       -0.36330523462000       10.57739533346500       -4.47550465452700      h
       -4.58405387865700        2.36894879685500       16.56366920207400      o
       -3.84689847840400        3.86939871320200       15.80326279458800      h
       -6.37566124553400        2.51872931879200       16.32502790067000      h
      -10.90476031623100       -0.05168771443400        7.60802497956900      o
      -10.81423302675600        1.62295142879000        6.80969261169700      h
      -12.09853545766500       -1.09115051410200        6.66929635959800      h
      -14.89450128809400        2.99175280510000       -3.40583692069500      o
      -13.17578714928200        2.43331300044900       -2.98692864277700      h
      -15.85027271825700        3.12528716464500       -1.82400410006300      h
        5.16180825041500        3.63683924834600        0.87837936611300      o
        6.35474941969400        4.83387590653500        1.67196983804600      h
        5.94082530530500        3.07887900870900       -0.68536779358200      h
       -4.77186329662000       -6.76848768199100       -7.00582176868300      o
       -6.38189442116200       -6.91503983750200       -7.86681709697800      h
       -5.11556502824800       -7.07508458942500       -5.24126327442700      h
        3.98919343454000       -2.56948330281600       -5.10603049137100      o
        3.41346474128500       -4.24856075334800       -4.62144473441700      h
        3.10808748395600       -1.40419924620300       -3.95497783710500      h
       -8.81397590516300      -10.79843851963700       -6.91996852737000      o
       -7.86689404038300      -10.73038147841000       -8.52352282957100      h
      -10.53126839123800      -11.28251499412500       -7.40271426194700      h
      -10.26823865730700        1.28260698730700       -2.62176218456600      o
       -8.87038206724900        2.24178270396600       -3.38553573239300      h
       -9.82947538221900        0.96601010651900       -0.87680153432900      h
        3.52262559373800        5.28222055479100       10.07390140593000      o
        3.81150945545200        3.47999747702700       10.31441681753300      h
        1.73142396462800        5.56410533816200        9.78603330063700      h
        8.65800928256100       -7.47359948441500        5.51017707318000      o
        8.59881387401300       -8.30674286703100        7.16159920515100      h
        8.68684980341000       -5.67065895216300        5.87306467931000      h
        1.37179016913900       -0.04983789704000        8.51437897066900      o
        1.78115974881500        1.23412646775500        7.27512741099300      h
        0.62930019857600       -1.48441362540800        7.60178691351900      h
        8.20748750957300        4.71661930994500        7.98579463807600      o
        6.92485448335400        5.71684019037400        8.81291893910900      h
        9.87264201866900        5.30199156838300        8.48127980291500      h
       -6.29640702871500        9.07701006558700       -8.15749527729100      o
       -4.69054088038500        8.45381778007600       -7.50856332469800      h
       -6.08927103783700        9.24361918121700       -9.98929722055700      h
       -9.74783094496500        7.54176271028700       -2.74862423472200      o
      -11.07130364256400        8.79131009484400       -3.00160514078000      h
       -9.62375650174400        6.63621989935800       -4.34726273158400      h
        1.80654842708100       -3.10851370314000       12.95933222791900      o
        0.43231022682300       -2.70888236524000       14.09233380663400      h
        1.74963835483000       -1.88191061762600       11.61162235013700      h
       -6.32093866108300       -8.79880275240900        7.72127696171200      o
       -7.85832991274000       -8.24151202377800        6.84654618718900      h
       -6.44660134488800       -8.21849787366100        9.46654839571100      h
       -0.79828997376000       -3.97508341968400        6.30002484384900      o
       -1.60594227423900       -4.31161715717000        7.93218249004100      h
        0.52031695900900       -5.25096657535900        6.04217378180600      h
        2.12802488224800        3.34188741141300        4.83133909627900      o
        3.27444907780100        3.27925374476600        3.39047110660000      h
        1.89934045370700        5.15986805838900        5.13741237898200      h
        0.74946956413100       -5.63159932136900      -15.39570092902300      o
        2.14675017932600       -6.78141671280400      -15.01926628536500      h
        1.48155859683000       -3.96548444749900      -15.52931481787400      h
        5.61938860770400       -3.90986221781300        8.97366226772500      o
        7.31561292316300       -4.04508287714400        9.71344125350400      h
        5.09991902297500       -2.19482100553600        9.37079433345300      h
      -15.72147710409900        4.21143694723400        4.76175614897000      o
      -17.01458104152100        4.70335508389000        5.95308586068100      h
      -14.69704005157000        5.72446852837200        4.53167054419500      h
      -13.37871914753100        8.78767547758900        4.84896430451300      o
      -12.77796376038500        9.11875523525000        6.55345366352300      h
      -11.92797401120400        9.15399836568900        3.76431748257700      h
      -15.65599176427200       -5.71474593201500        1.83457845259600      o
      -16.69978732816300       -6.66140691041800        3.03625520038400      h
      -16.62610416762800       -4.27117498132900        1.20059583890700      h
        3.65336228336800      -11.45983400174800        7.97566404743100      o
        2.79148184050800      -11.23535553644200        9.55516621708200      h
        2.73851460605100      -12.73442495034700        7.03398844311600      h
       13.11848215322000       -7.32596182647800        9.95605251121300      o
       11.98192110239200       -6.06364980743900       10.68890248893200      h
       12.16930076757300       -8.87549559990500       10.08821101005000      h
        2.66257082532200        4.88142730509600       -4.30876581374600      o
        4.42092003443200        5.30413786960500       -3.92604212395700      h
        1.72587483710100        6.42087987813400       -3.96583052397200      h
        7.71576588136100       -8.46031428410200       -3.96821481217800      o
        5.88898116068000       -8.25641952150400       -3.67906543546500      h
        8.46889420134900       -8.94198688394100       -2.34225340616500      h
      -13.23974569220900       11.17244820554100       -4.21217697771100      o
      -12.24429693709800       11.78092676695900       -5.67079602362400      h
      -14.28749426704400        9.82733656544500       -4.91247160299400      h
       11.55335135376000        2.40848880392200        3.98851715000000      o
       12.50361009031300        0.92786630136000        4.48818435943400      h
        9.81107397812200        2.08885346207100        4.49956644981300      h
       -0.24994007981400        2.48444007476800      -16.67348417088100      o
       -1.84825487380200        1.60488883025700      -16.52662248827500      h
       -0.08509731729600        3.44560592229500      -15.12355511232700      h
      -13.29543739067700       -3.19818313583600       -2.69255286990200      o
      -14.70816332035900       -2.51778414873700       -1.76767882316000      h
      -12.01758553324800       -3.60431183985500       -1.42862461040000      h
       -5.48608210640000        5.45874796925300        6.37141849519400      o
       -5.29719948245700        3.60832119505700        6.22710317389700      h
       -4.82279387931400        6.28106216053200        4.84462891413700      h
        5.65163562451600       -6.56564147333200        1.22456359557100      o
        7.23971029783100       -7.46733973054700        1.27370561860500      h
        4.84370278741800       -6.87221679423600        2.85917782653800      h
       -4.59359283654800      -13.57347276959700        3.11189467325200      o
       -5.15321186685200      -11.85870419242900        2.70983066241400      h
       -5.24023596252000      -13.90513247054500        4.81386841301500      h
        3.33583879889300        1.74694587424300       -8.29629080244300      o
        2.66006705068900        2.74299245511800       -6.89199418168500      h
        3.61500875358900        0.07211397103500       -7.60250446608400      h
        3.07656585904700       -0.91951279690300      -15.10493324278500      o
        2.00907448763000        0.21803987098800      -16.11578966318400      h
        4.49738115844200        0.12357091591600      -14.56278421431000      h
       -3.27612236285400       -4.43671876830100       10.58821967160900      o
       -3.11239817183400       -3.56037641848000       12.20019732801800      h
       -5.03978340528100       -4.28605927870000       10.06663779562300      h
        0.19215954763400      -11.64310944578400      -11.34296109322600      o
       -0.82962125734600      -10.12279342974800      -11.54301664682300      h
       -0.91194745348700      -12.88524905284100      -10.59921389328000      h
        1.79379565289700        0.58999783758700       -1.95290169479300      o
        1.89410549085200        2.18998309205500       -2.87663691179800      h
        3.01188008362300        0.66715597945400       -0.61131487528400      h
       -5.34473182653400      -12.63883263502300       -3.95463835180700      o
       -4.64560372095400      -11.03419015775500       -3.33097370661800      h
       -6.76655989091400      -12.14458871683200       -5.04529814792100      h
        8.44517245903600      -10.09233458028800        9.81801492093600      o
        7.09796463589500       -9.33469657105100       10.82126342844000      h
        7.65640013537200      -11.47627330169100        8.92949579314900      h
       -6.78102485242800       -4.36946149235500      -12.63331304145600      o
       -8.06813151249200       -5.17124063872300      -11.58765918890800      h
       -5.31156636247000       -5.49161802682100      -12.59175501211100      h
      -11.60272096140300       -9.00688111144500        0.38292455272900      o
      -12.63031064184400       -7.65131466609100        1.03051557827700      h
      -10.63939302304900       -8.32638544993400       -1.06005737321400      h
       -4.89438190371200       -1.78769617632500       -8.63638458708500      o
       -4.03933852448600       -3.26350089457700       -7.97168636687100      h
       -5.74868112208800       -2.38666254063900      -10.15536467156600      h
      -18.28658396961400        9.87101781282100        4.36473690063700      o
      -16.46411096425400        9.50300375284500        4.34426295661300      h
      -18.43137538884400       11.41775770258900        3.42568530722600      h
        4.42363550126900       -7.66402938762000       12.14440993987500      o
        4.69694146494500       -7.04270884637000       13.82410996251000      h
        4.58555316795000       -6.16905247326800       11.04360088753600      h
       -2.90763313752400        6.50810777432100       13.89422645221000      o
       -1.74154422848800        7.85605062829000       13.48030618284700      h
       -4.46048878536500        6.83232418282700       12.98275378783300      h
        7.14852828143100        1.34288408576000       -3.13175398013100      o
        8.79171261081800        2.00832311993100       -2.62252505672700      h
        7.32330485270700        0.82892152811000       -4.88200576929600      h
        7.90035327047100        6.83609297610400        3.42964454330500      o
        7.98405627029400        6.04834390351500        5.09891847072200      h
        9.64458592136000        7.16088600575900        2.91889975601000      h
       -9.06588127747600        1.31322247501700       -9.45452091252000      o
       -9.36223598043500        0.78511165653600      -11.18970674949300      h
      -10.28424388020800        0.32500482182500       -8.48515519279900      h
        8.08060737984100      -12.60030725772300        4.46802254371200      o
        8.57850190123400      -10.84223310502800        4.43347543033100      h
        9.15376882785900      -13.48863340272800        3.28807096605000      h
       -7.02982248197900        4.30278759918700      -13.92731660427000      o
       -6.46089910004800        2.72700624342800      -14.67444762705800      h
       -8.85160174191900        4.21991718540600      -13.70764907358300      h
        8.27973302027400       -0.43228407774000       -7.91192936597500      o
        7.55877550463900       -1.21404422858200       -9.39928512517700      h
        9.56620447012400       -1.59723847392800       -7.36428895999800      h
      -14.65314556581700      -10.04885886952100        8.86726526627400      o
      -13.56511608510900      -11.21314590936900        7.94401218601100      h
      -15.89002928848500       -9.43918894266200        7.66678785290200      h
      -18.22863590907100       -2.07285313242700       -0.48580829399200      o
      -19.92528743223000       -2.65886218277800       -0.05282414837700      h
      -18.12485808158100       -0.30795203066700        0.09975891670000      h
      -16.78407590152300       -8.75814103557700       -2.10030356255300      o
      -16.04431434298600       -8.08495753937000       -3.67757520721900      h
      -16.12833866689600       -7.66588021242600       -0.75004647686500      h
      -15.86896876256500       12.67537571720300        0.33222968519100      o
      -14.59499692692800       13.38244495785800        1.45214152172800      h
      -15.21435261050300       12.85309654594800       -1.35936367560500      h
       -9.35905069050000       13.20258957045900       -1.29529157564300      o
       -8.04144928582200       13.67349316352000       -2.48722601175300      h
      -10.83390174135600       12.82121097304900       -2.29607117055600      h
       -5.15407463994200        9.74522417724500       -1.55415999338300      o
       -4.10499847329000        8.30321069219800       -2.11942388359600      h
       -6.85028016604500        9.33254273435700       -2.11905497828800      h
        0.45912366510200       10.56877984552900       12.74434770175100      o
        1.88938349372800        9.80555585684100       13.60560023875600      h
        1.17708559850100       11.53812369620700       11.37501836341200      h
        1.98564296734900        8.32109343096100        5.37025001981400      o
        1.65219256662700        9.56762520199800        4.06568090510900      h
        3.62497577295700        8.69206794675900        6.11307375320700      h
       -0.77936576866500        9.75531591134500      -11.80677629137000      o
       -0.35359892486700        7.97588838605800      -11.60303876568700      h
        0.74193073640400       10.59103235029400      -12.35996133658500      h
        4.38759266942000        6.68150598383600      -14.29148274549800      o
        2.71267937231500        6.18854860165400      -13.75476170158900      h
        4.52783161411700        8.46815279231800      -13.99602780569200      h
       10.70038482209200        4.04230702676100       -0.91638020178700      o
       11.06072377297500        3.56140463046400        0.81503695623700      h
       12.33356220579100        4.32350076928900       -1.74172528426500      h
        4.40001557096400       11.36906329081500      -11.74258357965000      o
        4.53028585808800       13.06326689529300      -11.11553343240800      h
        3.87718286553000       10.33076577591400      -10.25707402222800      h
       -1.35966964642400       12.44054383119200       -7.20531957609100      o
       -1.41350186873100       11.46633248242800       -8.76120676670800      h
        0.30020446305600       13.20338124639000       -7.13771509720600      h
      -10.46963427169900       -7.40136099650200        5.31517781168500      o
      -10.27314273462900       -6.29957920905400        3.84362183363700      h
      -11.66004932581600       -6.49873982529000        6.38253153773100      h
        3.05951662038500      -13.02798594085500       -2.97697269172100      o
        3.64592134004400      -12.48240782436500       -1.31343030027400      h
        1.42914397644400      -13.78219911207100       -2.58764458718400      h
       14.10089522289800       -6.09049446096800       -0.60843461017200      o
       13.05461891635300       -4.70992848275500        0.08776562375300      h
       14.26829778966700       -5.79531033703100       -2.38911057667100      h
        3.24076309817200       -6.92500151083600        5.69038833924900      o
        4.26697334764500       -5.82661441423200        6.75303960888300      h
        3.43801001860900       -8.62643102823400        6.39170883363400      h
       10.29152793602700       13.45306196660800       -0.80662104169000      o
       10.73450275017500       11.79890485184500       -1.54893335571500      h
       11.90626056947300       14.25032030647000       -0.54549478448900      h
      -12.69618782296100       -1.27421279667200       12.19258682109700      o
      -14.44781849261600       -0.81117056787400       12.11238259425600      h
      -11.99088454424500       -0.80295910901400       10.53528145257000      h
      -13.84739187942400       -4.09556599011800      -11.62623290690900      o
      -15.64002973162500       -4.34057182483600      -11.43148554682800      h
      -13.32073822163100       -3.26273364618900      -10.06292984245000      h
       -5.91760170268800       14.42156901904700       -5.10608881209300      o
       -7.19503802128600       14.43982937758900       -6.40066494297200      h
       -4.44785444805400       13.61401771572700       -5.84941549378000      h
      -10.15518456858900       12.33106851662500       -7.93534194326500      o
       -8.70750544590700       11.20969544855300       -7.70220633800500      h
      -10.90112107349400       11.72359827499000       -9.49706641097900      h
        5.94542939751400        0.89034985517000       10.76317658207800      o
        6.11506628157100        1.37599652808200       12.52927363961200      h
        7.26178086620700        1.75826316157300        9.83081973307000      h
       -9.63965594647800       -5.77726274405700       -8.63239074199800      o
       -9.46873639184700       -4.40921419998300       -7.40365134321900      h
      -11.21792285707800       -6.60486119207000       -8.28492266825700      h
        4.32362532868500       -8.69843448469400      -13.44552279778600      o
        4.48515599971200       -7.90427077384200      -11.79215034202300      h
        3.24824551361100      -10.14279286755400      -13.17765946839800      h
        2.89177228477300       -7.27000589726800       -3.39276584749700      o
        2.55279691383600       -7.52817779773800       -1.62694578089000      h
        1.61807601143000       -8.20852625810100       -4.36946076348800      h
       -8.95799618921600        9.66480103151100        2.44251442853000      o
       -9.28753433339100       10.57456721628600        0.87945378510800      h
       -7.88881255725200       10.84471965103000        3.37313418702100      h
      -12.92051444047300       -1.18108396872500       -7.47530736657100      o
      -14.07670369584700        0.18073537948300       -7.90648097822600      h
      -13.06954930414100       -1.53620157468600       -5.68135944938400      h
      -19.73710842998100        7.11747623168800       -3.63866164600500      o
      -18.97623610999500        7.86439950084000       -5.10510361329600      h
      -20.54207895195600        5.55256616166800       -4.24317052097100      h
        8.67050263025300       12.53759714939400        3.90625549253600      o
       10.33489218319800       12.74800437059600        4.63345863501400      h
        8.99296551121600       12.70552691474300        2.08333770710400      h
      -10.16717925294100        5.91666869944500       -7.57282003822300      o
       -8.76138491759800        7.03721172296800       -8.00475705550900      h
       -9.87276272302400        4.32585004692000       -8.45305458892900      h
        4.79566583246600        7.86472319502200       14.09464269987700      o
        6.38936282258200        8.65059345841900       13.69600104641700      h
        4.28150870579700        6.97176432657000       12.53209818634300      h
        6.28417221688600        2.27024719769700      -12.76435851136200      o
        5.71517659054400        3.89247152022400      -13.44058799975600      h
        5.36152132349800        1.97481839922600      -11.21114205323200      h
       -4.24141680653500      -11.97651624448100       12.44251587851700      o
       -4.83554755433000      -13.00756338925100       11.05654980469100      h
       -2.74603317856100      -11.08785978653000       11.85640971061400      h
       11.93638158865700        9.11362628413000       -2.63861786256700      o
       13.64797250339100        9.26099313999200       -3.30643371164500      h
       12.15337967602800        8.40978922374700       -0.94153034637200      h
      -10.36393219561200       -3.96164118749200        1.52525418911600      o
       -8.70061933103500       -3.24003924658400        1.66442770821300      h
      -11.51600383962100       -2.61380157756600        2.05512345919800      h
       16.89369890176300        9.07371728823000        6.84004795425300      o
       15.46285612764200        7.91075851917700        7.05042635241000      h
       18.36414895303700        8.08421050065500        7.27076558165000      h
      -18.04325256247800       -0.50787066587100        5.09482330230900      o
      -19.27352704139300        0.84433196732600        4.77928623841500      h
      -17.26008901421800       -0.01910592530000        6.69064560918600      h
      -10.43760297674200        4.49157786844400        5.71854117540900      o
      -10.96243281674700        4.65347002571500        3.94762448503600      h
       -8.72283984009400        5.13513795018300        5.83540778018300      h
      -15.86977570993900        7.62178784874500       -0.22609971978000      o
      -17.18170456417600        7.36884334391100       -1.47926487619700      h
      -15.79993874245500        9.43057291690900        0.09705901251300      h
      -10.29384421450800        3.29630646373600       13.23605991440400      o
      -11.15036823823500        1.70140984024900       13.50295591310900      h
       -8.73694060927700        2.83598881119700       12.35783236963000      h
       -2.94392479450100       -2.33766238462300       15.24693336009900      o
       -3.42385708788800       -0.59707850692600       15.65064044645500      h
       -4.15064335360900       -3.38061579176700       16.10445935791000      h
       -0.45435095926100       -8.67582958477800       10.76738334428800      o
        1.16966842188200       -8.19624777867400       11.49096852291000      h
       -1.53997746558500       -7.18955853658600       10.94439203018700      h
       -5.75812218367100        9.23196549054300      -13.18509031718400      o
       -3.96418317427300        9.59545179662500      -13.15297875706100      h
       -5.95767283235100        7.49839506690100      -13.75550797439800      h
        7.06349180688500        6.91960646476000       -3.06995202609400      o
        8.56990142773700        6.12571052505200       -2.36245825094600      h
        7.62146685838300        8.13328623644900       -4.33015535550400      h
       11.65086223489600        3.76044518069400       -7.01748750295900      o
       11.78967577971900        3.09879138079400       -8.71909549911500      h
       11.90227337886700        2.32246755368900       -5.87172294062700      h
        4.22545578753700       15.17055251523800        3.58668992711400      o
        5.81617514101000       14.29791878282900        3.89937257697000      h
        4.38804082454300       15.78364208167200        1.86898918559000      h
        9.33635036282500        8.97402110022600       11.48239021967800      o
        8.25251121032700        9.39849163964500       10.02589261791000      h
       10.90200437014200        9.84486651448300       11.23879841208600      h
       13.28043306509400        5.56102309706200        7.59561768395000      o
       14.43127176061900        4.36485941024800        8.38248586891300      h
       12.75128562629500        4.71067654475600        6.03490738755500      h
       10.11461122157800       -9.15204398465600        0.35428618153400      o
       11.72922621807300       -8.30847864305400        0.09443628114300      h
       10.43250653420000      -10.97927977933100        0.39097803994800      h
       13.52005045303700       -6.67069417911100        4.91741483921700      o
       11.73755135434200       -7.06268281312800        4.58784611001600      h
       13.67682861504700       -6.98818729644600        6.73199560049100      h
       23.33641653044600        2.87708512153400        2.00216897887900      o
       24.45440247564700        1.75525188289500        1.12515368857700      h
       21.94477199133600        1.80956334140300        2.64606254849300      h
       -3.07278618623900        8.20777607223700        3.01817253730800      o
       -1.51337521155000        7.52951412538000        2.31564851785200      h
       -3.95965824665300        8.96829700013900        1.59558153311400      h
       13.48123776104800        8.25069726635600       -8.58606202352700      o
       12.93517989227300        6.74224830806200       -7.66058364809600      h
       12.09409886471700        8.69434944691300       -9.68597888219900      h
      -18.09247266917700       -4.26005458208800       -8.55318329079400      o
      -17.88208988307600       -2.65512480430500       -7.66431532299800      h
      -19.73253054335700       -4.84798707317800       -7.96447757108800      h
        5.81646402096000        2.96753377308800       15.49674486711700      o
        5.47104382811200        4.77374511557800       15.34047033975000      h
        4.18225366335700        2.26123901469200       16.00791986904400      h
      -15.67820940113700        2.79802064812800       -9.41046777747000      o
      -15.62267151729100        4.37660457480700       -8.42685931685700      h
      -17.41884693495700        2.46297293972900       -9.76901682358800      h
       -7.98208778642500       -3.93862647801600        8.68289853970700      o
       -9.24233813108300       -5.01047847426400        9.49543363201200      h
       -8.85221445834600       -2.34505098329400        8.37714328729800      h
      -14.94704480309700        6.88988675685000       -6.50393930816300      o
      -13.20115947820600        6.80258843492300       -7.12921905166500      h
      -14.98146105163300        5.66600333865400       -5.10321919256300      h
       -2.50549049481100       -7.12528295320200      -11.97701986740700      o
       -1.42560328140300       -6.56770263729800      -13.39215299085200      h
       -1.78463759591600       -6.32261964129000      -10.46864602968800      h
        5.54638573925100       -1.68754468568800        0.93223459148600      o
        5.88207641311000       -3.53148020079300        0.96701875643700      h
        6.33162642098400       -1.00344321069300       -0.58419898731100      h
      -21.73308466259500        2.85229776294600       -5.41313781888500      o
      -22.99449137912700        1.94234424907100       -4.46851299581500      h
      -20.33901088077700        1.64516572575300       -5.58971946375800      h
       17.47477305430700       -4.40741543070100        8.84688251645600      o
       16.51514486884800       -3.36575119932400        7.65879800787400      h
       16.25046070630500       -5.44960949890400        9.70971938949200      h
        9.90979455674300       -2.67529699556600        6.18193062623300      o
        8.47548633495700       -1.51453293136600        6.06571884381400      h
       10.99569169733400       -1.94166515356300        7.45126266536900      h
       22.53110284179600       -2.32209446641800       -0.06284765940200      o
       23.24600977902900       -3.20072371382700       -1.53601204046400      h
       20.95357175306400       -3.22813336914700        0.30009427408100      h
       18.31859157572300       -4.39759415814700        1.67694059472600      o
       16.88507778678900       -5.16282877008000        0.79826275887200      h
       18.85184375590900       -5.61566589085900        2.96894248403600      h
        8.92902556508200        8.71184468603200      -11.10195276059300      o
        8.06791352013100        7.28549768521800      -10.26984260756000      h
        7.60684371546900        9.75489607301000      -11.81552037251200      h
        5.16431314225400       14.45170403089500       -1.48278103390200      o
        6.98215100210500       14.58510854642500       -1.60321933070200      h
        4.89340547948000       12.74427724861000       -0.80307989727300      h
        1.16268079093200        1.29926058255000       16.37512928427800      o
        0.04820290048000        1.74667914263700       17.72577932562700      h
        0.18236869834500        1.51801255008600       14.81780901677400      h
       16.58126653363800       -9.94813559581200        2.67040785709500      o
       15.35048239525600       -8.71753472891100        3.32176590713700      h
       17.95515486663200       -9.91167789976500        3.86593152869000      h
        8.48943420962600       -3.59503207696400       -3.04824833572800      o
        6.94936243575500       -2.99540712955100       -3.89648133670700      h
        8.57020624506800       -5.38862104146300       -3.45072763198500      h
        6.30195342917800       -2.91742261128200       15.26694531847400      o
        6.44602358782400       -1.33464615732000       16.13534460910100      h
        4.62469204874800       -2.90131648816500       14.45864508992700      h
        6.26050799310600       10.03554562303000        7.63842218730300      o
        7.19118322828200       10.73503138230100        6.20822187257300      h
        5.00102788921800       11.31009566756500        8.12011531447900      h
        0.66505092546900       11.91210896666300        1.62145522560800      o
        1.85880353929000       13.10728919606300        2.34563785601800      h
       -0.81944105912600       12.88938780513700        1.18008470961100      h
        1.07499844551100        6.45701848620600        0.61288450395600      o
        1.95147751681500        8.07097350649600        0.51568660603400      h
        2.44322822639800        5.23005282880100        0.45124312673600      h
        5.02321910865900        9.76045359092000        0.44127403244800      o
        6.03899102675000        9.24715668715600        1.87511316623800      h
        5.71878453015900        8.78171442457700       -0.97313504495600      h
       15.42307980014100        0.13270960056000        0.47967569392500      o
       13.63040142427900       -0.28138492572400        0.39337742215200      h
       16.23621580356600       -1.00229979175600       -0.71426919346500      h
        2.41843742019500       13.23296609003900        8.25263955900100      o
        2.96722420857600       14.59951979342400        7.18243759378500      h
        0.82190545470500       12.67500765357900        7.47909653581900      h
      -18.60594514227600        6.50781153483400        8.42441042345600      o
      -16.96185021593700        6.56939442201300        9.22945836164600      h
      -18.73924678906300        8.00634878433700        7.37736029322200      h
       -7.06677471080300        7.42438774636700       10.81430853283500      o
       -8.78173537861400        8.03365324296100       10.55659485254500      h
       -6.59818671233200        6.58857551456400        9.24702311527900      h
      -11.93895463932100       14.50503502512600        3.09823393639400      o
      -10.65025013848900       14.42160981917500        1.80014556729100      h
      -11.12002678818800       14.91529340187400        4.65901720890300      h
       12.26187907866600       -0.22764666720600       -3.97514741808800      o
       13.87467228693800       -1.06350420273200       -4.20420972605700      h
       10.98421625260300       -1.52921393334200       -3.75860515567100      h
      -11.31703042039300       -8.76521389902500      -12.69046445665500      o
      -12.25906554960400       -9.95749329289000      -11.68823212150100      h
      -12.16856527735100       -7.15328373407400      -12.51480229479200      h
      -10.51740829301700       -0.89581180680400      -13.92576941458100      o
       -9.11393050052800       -2.04985980652300      -14.08633732768500      h
      -11.92028413069000       -1.96698424323800      -13.40911365919200      h
      -18.10011825905000       -8.59235610540000        5.09533887869600      o
      -19.82975819274600       -8.26888758636400        5.51779308298300      h
      -18.01916287880500      -10.16052170193400        4.07574136084400      h
      -14.97937333796200      -13.53814752716300       -3.81788348709500      o
      -15.66043419949700      -11.95047918461200       -3.23093155004400      h
      -14.04656759740600      -14.22285241187400       -2.39956411335600      h
       -6.13195483381100       13.61065697683200        4.00174546143600      o
       -4.53764824947300       13.20968786602800        4.86504617847700      h
       -5.59064620123700       14.23652835290000        2.35888780708400      h
      -11.79057778125200       -6.52516335169100       10.94111831751800      o
      -12.85966130082800       -5.16705999989500       11.50916197721700      h
      -12.91629482850400       -7.84458894492200       10.26471151387000      h
      -21.50905154824700        3.15533420200300        5.32991026390700      o
      -21.80722937867700        4.21520171369400        3.86590869248600      h
      -20.98633257162300        4.30778066748400        6.64422748759100      h
       18.14238571702800       -6.98073406310000       -5.41895358938900      o
       16.58004251732200       -7.86853400560000       -5.77386742601100      h
       18.87316693332600       -7.86347361109200       -3.94621295499400      h
        3.83342286420200      -12.09333312036100        1.91707564361300      o
        2.64719701428600      -13.20609767150600        2.76616876583100      h
        5.41376231189500      -12.24431469995500        2.89300551709300      h
       -6.56590469779400      -10.47188058269900      -11.32593685412700      o
       -5.15877838684900       -9.36537797882700      -11.68439769955300      h
       -8.03682521920900       -9.84636739927200      -12.22953222082900      h
       11.13940365540300       -2.51147137482800        1.14697636950600      o
       10.50139439230600       -2.70978883106200        2.86046090132400      h
        9.80151387268600       -2.82738246178600       -0.07136892881600      h
      -11.08543907933600        9.45320670582100      -12.14529733344900      o
       -9.42610126538700        9.63637883816100      -12.87507145677400      h
      -11.64343749087000        7.76900022669200      -12.55296633079100      h
       15.68878894437000       13.19284287707300       -0.37580234891400      o
       15.84954720673400       12.54239462406200       -2.07232417999200      h
       17.12992511129400       12.43185624057200        0.50491127661100      h
       24.48529314657200       -7.93362588653200        0.15911924522200      o
       25.08742257594400       -6.91679411054100       -1.22764451216200      h
       24.78986815589900       -7.00594615479100        1.69506388520900      h
       19.09675827982500       10.54696156293600        2.25547490419400      o
       18.40221490904600        9.93901035448900        3.83926924505400      h
       19.63946849303400        9.07594668977300        1.30720135290800      h
        9.50815704268900       -7.80242344200500      -11.15272847722100      o
        9.32902866234300       -9.25377537141300      -10.00184255801200      h
        9.54698312943400       -8.46875805434300      -12.83315083569500      h
       -1.86515357122500      -14.39839145336700       -7.19103434508900      o
       -1.14179545678100      -15.89415023578300       -6.47765700797500      h
       -3.36785923151700      -13.99511570829800       -6.18484839465700      h
       16.78940164889200        1.82800983511600        8.61735902238100      o
       16.48493849093200        0.75233215614700        7.16673978432100      h
       18.20045032641800        2.90180059419000        8.12892117794300      h
      -14.55574086743600       -6.72827489148000       -6.07853074053100      o
      -15.86991589472300       -5.87821761483100       -7.10266735592500      h
      -13.86205078785900       -5.42625591073200       -4.95805917831800      h
        9.80190404837100       -3.91764945738600       11.75101343508200      o
        8.72964214410900       -3.65603344671300       13.23764326551000      h
       10.61442346993500       -2.29825345934200       11.39067527467100      h
       16.46302775387600       10.04292506994700       -4.79600385077000      o
       15.65655658899600        9.76761323077300       -6.41760226129100      h
       17.81287975469700        8.80893178592000       -4.71655152925500      h
      -12.21000309556000        4.03388892107700      -13.21079048011200      o
      -13.35116325576800        3.69303165011300      -11.81095210931800      h
      -12.12844477141700        2.46784184036900      -14.13967402888800      h
      -13.62423881026200      -11.36935278492500       -8.27979574991600      o
      -14.16501702737600       -9.75130634884000       -7.61391576009900      h
      -14.19180431751700      -12.60256442538700       -7.04054412750100      h
        8.48318934226300       10.66468520529400       -6.30081958718300      o
        8.88599703566200       10.14252510945000       -8.01444240121000      h
       10.03687645005800       10.61164161022300       -5.34347816438700      h
       13.46694034528200       -9.33055964782000       -5.29748737275700      o
       13.98119267993500      -10.36420864286600       -3.84456268188800      h
       12.51717953734400      -10.43711119124800       -6.38294085199400      h
       23.94900316634900       -4.69505680270500       -4.22013135012600      o
       22.76649315051800       -5.87026145851400       -4.93859488520000      h
       23.89380724013000       -3.18809054285500       -5.34259879629000      h
       19.66444085768200        0.10688695032000        3.97874411383400      o
       20.44312126715300       -0.42012933945800        5.55851359240200      h
       19.21525715201700       -1.42522019408000        3.07951893681100      h
       -2.08236761061900       11.88321677749300        6.37270455461400      o
       -2.29193573359500       10.38135723103400        5.30636178867500      h
       -2.95387529294100       11.62581938895100        7.99071126223400      h
       -0.40749445261500       -0.60068037050600      -11.33185683337900      o
        0.93223674766400       -0.77118996742200      -12.58214344074400      h
       -0.30429233240300       -2.11605943441300      -10.28037251147200      h
       -4.06478236782100        3.21280997051900      -10.06205111289200      o
       -5.35206438897200        3.67683317533300      -11.30110676619000      h
       -4.33514889131900        1.44592283538400       -9.63743112317400      h
      -17.56521319585800      -12.32086576509400        1.85728511198700      o
      -16.04519665773200      -13.33564245712300        1.93579109502900      h
      -17.40803939477700      -11.36772664135300        0.30779250567200      h
        7.03888339287300        5.25036758665700       -8.03866390706200      o
        8.69082173863600        4.72652197337400       -7.36162394790000      h
        6.03833607457000        3.71372667298700       -8.10337038519000      h
       10.39522361901900        4.04037251392900       13.08651295125600      o
        9.11179566786400        3.60510306433000       14.30496223231500      h
       10.12182827924200        5.79496968293800       12.63522579314900      h
       -3.54923451264700       14.28678642842700       -0.34609260288300      o
       -4.16574401383000       12.64120404644700       -0.96130978946400      h
       -3.81989412791500       15.42555991861800       -1.72880616865500      h
      -21.35101684093500       -4.06171572395200        5.95428362133300      o
      -22.72932391029000       -3.12524005377700        6.66179951553500      h
      -20.01359436779300       -2.78615011725900        5.55052232252000      h
        8.97635148626800      -11.45368166236000       -7.68443662167200      o
        7.30066449926400      -11.98158107493100       -8.23280065700500      h
        8.59265462692000      -10.29307796994100       -6.26320895327200      h
       -6.59540355532300      -13.75086370302500        7.77100628152500      o
       -8.36208326639000      -14.03969814235800        7.39758882250500      h
       -6.46463854644900      -11.88927943389000        7.79910982682800      h
       -1.46492182014800        1.99228119137200       12.06687444411300      o
       -1.60432618325300        3.82465581533100       12.04463353773000      h
       -0.47277726333100        1.41273736271300       10.61703699342600      h
        4.00467000414900      -11.71400354146000       -7.90137405904400      o
        2.56865078272600      -11.86701479028000       -9.05162092131500      h
        3.42190186328100      -12.14302639421800       -6.21084675917500      h
      -22.31203121181000       -5.02285073833300       -5.77765225266900      o
      -22.98125211257200       -3.48266034031800       -5.05384980658500      h
[...]
   382   8 o      384   1 h                                       0.9783462
   385   8 o      386   1 h                                       0.9580240
   385   8 o      387   1 h                                       0.9887088
   388   8 o      389   1 h                                       0.9736490
   388   8 o      390   1 h                                       0.9741317
   391   8 o      392   1 h                                       0.9800654
   391   8 o      393   1 h                                       0.9657737
   394   8 o      395   1 h                                       0.9772096
   394   8 o      396   1 h                                       0.9731725
   397   8 o      398   1 h                                       0.9766348
   397   8 o      399   1 h                                       0.9801637
   400   8 o      401   1 h                                       0.9846818
   400   8 o      402   1 h                                       0.9570114
   403   8 o      404   1 h                                       0.9753687
   403   8 o      405   1 h                                       0.9743315
   406   8 o      407   1 h                                       0.9824346
   406   8 o      408   1 h                                       0.9844819
   409   8 o      410   1 h                                       0.9871183
   409   8 o      411   1 h                                       0.9813476
   412   8 o      413   1 h                                       0.9919775
   412   8 o      414   1 h                                       0.9734803
   415   8 o      416   1 h                                       0.9629686
   415   8 o      417   1 h                                       0.9803058
   418   8 o      419   1 h                                       0.9782619
   418   8 o      420   1 h                                       0.9655994
   421   8 o      422   1 h                                       0.9783511
   421   8 o      423   1 h                                       0.9654537
   424   8 o      425   1 h                                       0.9833723
   424   8 o      426   1 h                                       0.9816542
   427   8 o      428   1 h                                       0.9775639
   427   8 o      429   1 h                                       0.9810960
   430   8 o      431   1 h                                       0.9855189
   430   8 o      432   1 h                                       0.9678737
   433   8 o      434   1 h                                       0.9666486
   433   8 o      435   1 h                                       0.9830015
   436   8 o      437   1 h                                       0.9564064
   436   8 o      438   1 h                                       0.9806371
   439   8 o      440   1 h                                       0.9833981
   439   8 o      441   1 h                                       0.9639418
   442   8 o      443   1 h                                       0.9830271
   442   8 o      444   1 h                                       0.9736682
   445   8 o      446   1 h                                       0.9583888
   445   8 o      447   1 h                                       0.9852954
   448   8 o      449   1 h                                       0.9758852
   448   8 o      450   1 h                                       0.9818764
   451   8 o      452   1 h                                       0.9725843
   451   8 o      453   1 h                                       0.9690734
   454   8 o      455   1 h                                       0.9732423
   454   8 o      456   1 h                                       0.9762747
   457   8 o      458   1 h                                       0.9687212
   457   8 o      459   1 h                                       0.9818049
   460   8 o      461   1 h                                       0.9746947
   460   8 o      462   1 h                                       0.9721522
   463   8 o      464   1 h                                       0.9633306
   463   8 o      465   1 h                                       0.9841275
   466   8 o      467   1 h                                       0.9692677
   466   8 o      468   1 h                                       0.9699542
   469   8 o      470   1 h                                       0.9726950
   469   8 o      471   1 h                                       0.9720945
   472   8 o      473   1 h                                       0.9689512
   472   8 o      474   1 h                                       0.9576499
   475   8 o      476   1 h                                       0.9688756
   475   8 o      477   1 h                                       0.9719288
   478   8 o      479   1 h                                       0.9632523
   478   8 o      480   1 h                                       0.9691730
   481   8 o      482   1 h                                       0.9652748
   481   8 o      483   1 h                                       0.9732265
   484   8 o      485   1 h                                       0.9576140
   484   8 o      486   1 h                                       0.9907459
   487   8 o      488   1 h                                       0.9655197
   487   8 o      489   1 h                                       0.9686368
   490   8 o      491   1 h                                       0.9826008
   490   8 o      492   1 h                                       0.9734145
   493   8 o      494   1 h                                       0.9627621
   493   8 o      495   1 h                                       0.9851298
   496   8 o      497   1 h                                       0.9693525
   496   8 o      498   1 h                                       0.9654835
   499   8 o      500   1 h                                       0.9692859
   499   8 o      501   1 h                                       0.9874844
   502   8 o      503   1 h                                       0.9709121
   502   8 o      504   1 h                                       0.9861325
   505   8 o      506   1 h                                       0.9660705
   505   8 o      507   1 h                                       0.9716361
   508   8 o      509   1 h                                       0.9732280
   508   8 o      510   1 h                                       0.9720331
   511   8 o      512   1 h                                       0.9641378
   511   8 o      513   1 h                                       0.9633508
   514   8 o      515   1 h                                       0.9652391
   514   8 o      516   1 h                                       0.9802829
   517   8 o      518   1 h                                       0.9641517
   517   8 o      519   1 h                                       0.9631145
   520   8 o      521   1 h                                       0.9700556
   520   8 o      522   1 h                                       0.9696575
   523   8 o      524   1 h                                       0.9847600
   523   8 o      525   1 h                                       0.9568205
   526   8 o      527   1 h                                       0.9568380
   526   8 o      528   1 h                                       0.9805022
   529   8 o      530   1 h                                       0.9691425
   529   8 o      531   1 h                                       0.9732628
   532   8 o      533   1 h                                       0.9897891
   532   8 o      534   1 h                                       0.9803237
   535   8 o      536   1 h                                       0.9798009
   535   8 o      537   1 h                                       0.9775431
   538   8 o      539   1 h                                       0.9693877
   538   8 o      540   1 h                                       0.9687200
   541   8 o      542   1 h                                       0.9725895
   541   8 o      543   1 h                                       0.9644943
   544   8 o      545   1 h                                       0.9691187
   544   8 o      546   1 h                                       0.9726914
   547   8 o      548   1 h                                       0.9716433
   547   8 o      549   1 h                                       0.9661304
   550   8 o      551   1 h                                       0.9820304
   550   8 o      552   1 h                                       0.9619842
   553   8 o      554   1 h                                       0.9606609
   553   8 o      555   1 h                                       0.9947867
   556   8 o      557   1 h                                       0.9728462
   556   8 o      558   1 h                                       0.9696694
   559   8 o      560   1 h                                       0.9809907
   559   8 o      561   1 h                                       0.9820088
   562   8 o      563   1 h                                       0.9739119
   562   8 o      564   1 h                                       0.9775673
   565   8 o      566   1 h                                       0.9768548
   565   8 o      567   1 h                                       0.9722025
   568   8 o      569   1 h                                       0.9680307
   568   8 o      570   1 h                                       0.9662529
   571   8 o      572   1 h                                       0.9845681
   571   8 o      573   1 h                                       0.9709425
   574   8 o      575   1 h                                       0.9643906
   574   8 o      576   1 h                                       0.9695672
   577   8 o      578   1 h                                       0.9852532
   577   8 o      579   1 h                                       0.9586669
   580   8 o      581   1 h                                       0.9579856
   583   8 o      584   1 h                                       0.9739317
   583   8 o      585   1 h                                       0.9919939
   586   8 o      587   1 h                                       0.9676890
   586   8 o      588   1 h                                       0.9876474
   589   8 o      590   1 h                                       0.9725243
   589   8 o      591   1 h                                       0.9789422
   592   8 o      593   1 h                                       0.9769924
   592   8 o      594   1 h                                       0.9731053
   595   8 o      596   1 h                                       0.9676760
   595   8 o      597   1 h                                       0.9673447
   598   8 o      599   1 h                                       0.9656427
   598   8 o      600   1 h                                       0.9646785
   601   8 o      602   1 h                                       0.9860890
   601   8 o      603   1 h                                       0.9597016
   604   8 o      605   1 h                                       0.9774347
   604   8 o      606   1 h                                       0.9606262
   607   8 o      608   1 h                                       0.9597827
   607   8 o      609   1 h                                       0.9711071
   610   8 o      611   1 h                                       0.9571376
   610   8 o      612   1 h                                       0.9841329
   613   8 o      614   1 h                                       0.9684330
   613   8 o      615   1 h                                       0.9741271
   616   8 o      617   1 h                                       0.9839139
   616   8 o      618   1 h                                       0.9818101
   619   8 o      620   1 h                                       0.9662753
   619   8 o      621   1 h                                       0.9735551
   622   8 o      623   1 h                                       0.9717850
   622   8 o      624   1 h                                       0.9808747
   625   8 o      626   1 h                                       0.9820989
   625   8 o      627   1 h                                       0.9622069
   628   8 o      629   1 h                                       0.9816883
   628   8 o      630   1 h                                       0.9741905
   631   8 o      632   1 h                                       0.9732550
   631   8 o      633   1 h                                       0.9900453
   634   8 o      635   1 h                                       0.9744995
   634   8 o      636   1 h                                       0.9760626
   637   8 o      638   1 h                                       0.9766071
   637   8 o      639   1 h                                       0.9831039
   640   8 o      641   1 h                                       0.9896236
   640   8 o      642   1 h                                       0.9720616
   643   8 o      644   1 h                                       0.9800727
   643   8 o      645   1 h                                       0.9643805
   646   8 o      647   1 h                                       0.9721497
   646   8 o      648   1 h                                       0.9569870
   649   8 o      650   1 h                                       0.9901028
   649   8 o      651   1 h                                       0.9568503
   652   8 o      653   1 h                                       0.9683179
   652   8 o      654   1 h                                       0.9684932
   655   8 o      656   1 h                                       0.9720716
   655   8 o      657   1 h                                       0.9743597
   658   8 o      659   1 h                                       0.9747480
   658   8 o      660   1 h                                       0.9576072
   661   8 o      662   1 h                                       0.9707354
   661   8 o      663   1 h                                       0.9657531
   664   8 o      665   1 h                                       0.9640486
   664   8 o      666   1 h                                       0.9662621
   667   8 o      668   1 h                                       0.9735382
   667   8 o      669   1 h                                       0.9745224
   670   8 o      671   1 h                                       0.9736532
   670   8 o      672   1 h                                       0.9682852
   673   8 o      674   1 h                                       0.9779013
   673   8 o      675   1 h                                       0.9634422
   676   8 o      677   1 h                                       0.9775678
   676   8 o      678   1 h                                       0.9711111
   679   8 o      680   1 h                                       0.9639411
   679   8 o      681   1 h                                       0.9783170
   682   8 o      683   1 h                                       0.9771868
   682   8 o      684   1 h                                       0.9743549
   685   8 o      686   1 h                                       0.9696083
   685   8 o      687   1 h                                       0.9668158
   688   8 o      689   1 h                                       0.9620229
   688   8 o      690   1 h                                       0.9723340
   691   8 o      692   1 h                                       0.9757136
   691   8 o      693   1 h                                       0.9644355
   694   8 o      695   1 h                                       0.9586088
   697   8 o      698   1 h                                       0.9747286
   697   8 o      699   1 h                                       0.9688098
   700   8 o      701   1 h                                       0.9756841
   700   8 o      702   1 h                                       0.9688509
   703   8 o      704   1 h                                       0.9855585
   703   8 o      705   1 h                                       0.9586130
   706   8 o      707   1 h                                       0.9690206
   706   8 o      708   1 h                                       0.9714455
   709   8 o      710   1 h                                       0.9830374
   709   8 o      711   1 h                                       0.9651366
   712   8 o      713   1 h                                       0.9650602
   712   8 o      714   1 h                                       0.9842365
   715   8 o      716   1 h                                       0.9561027
   715   8 o      717   1 h                                       0.9933860
   718   8 o      719   1 h                                       0.9621827
   718   8 o      720   1 h                                       0.9762335
   721   8 o      722   1 h                                       0.9747790
   721   8 o      723   1 h                                       0.9797646
   724   8 o      725   1 h                                       0.9727860
   724   8 o      726   1 h                                       0.9782239
   727   8 o      728   1 h                                       0.9685689
   727   8 o      729   1 h                                       0.9791145
   730   8 o      731   1 h                                       0.9637116
   730   8 o      732   1 h                                       0.9783674
   733   8 o      734   1 h                                       0.9710101
   733   8 o      735   1 h                                       0.9756198
   736   8 o      737   1 h                                       0.9853237
   736   8 o      738   1 h                                       0.9592842
   739   8 o      740   1 h                                       0.9741981
   739   8 o      741   1 h                                       0.9745423
   742   8 o      743   1 h                                       0.9772128
   742   8 o      744   1 h                                       0.9567858
   745   8 o      746   1 h                                       0.9685736
   745   8 o      747   1 h                                       0.9748997
   748   8 o      749   1 h                                       0.9773773
   748   8 o      750   1 h                                       0.9771226
   751   8 o      752   1 h                                       0.9658974
   751   8 o      753   1 h                                       0.9665856
   754   8 o      755   1 h                                       0.9627310
   754   8 o      756   1 h                                       0.9556673 (min)

 * 1 distinct bonds (by element types)

   Z      Z             #   av. dist./Å        max./Å        min./Å
   1 H    8 O         502     0.9732460     0.9981908     0.9556673


optimized geometry written to: xtbopt.coord


           -------------------------------------------------
          | TOTAL ENERGY            -1283.300074224537 Eh   |
          | GRADIENT NORM               0.005307140286 Eh/α |
          | HOMO-LUMO GAP               6.160935055131 eV   |
           -------------------------------------------------

------------------------------------------------------------------------
 * finished run on 2022/11/24 at 12:10:28.561     
------------------------------------------------------------------------
 total:
 * wall-time:     0 d,  0 h,  5 min, 44.559 sec
 *  cpu-time:     0 d,  0 h,  8 min, 27.874 sec
 * ratio c/w:     1.474 speedup
 SCF:
 * wall-time:     0 d,  0 h,  0 min, 21.718 sec
 *  cpu-time:     0 d,  0 h,  0 min, 35.036 sec
 * ratio c/w:     1.613 speedup
 ANC optimizer:
 * wall-time:     0 d,  0 h,  5 min, 21.711 sec
 *  cpu-time:     0 d,  0 h,  7 min, 51.039 sec
 * ratio c/w:     1.464 speedup

