      -----------------------------------------------------------      
     |                   =====================                   |     
     |                           x T B                           |     
     |                   =====================                   |     
     |                         S. Grimme                         |     
     |          Mulliken Center for Theoretical Chemistry        |     
     |                    University of Bonn                     |     
      -----------------------------------------------------------      

   * xtb version 6.5.1 (579679a) compiled by 'ehlert@majestix' on 2022-07-11

   xtb is free software: you can redistribute it and/or modify it under
   the terms of the GNU Lesser General Public License as published by
   the Free Software Foundation, either version 3 of the License, or
   (at your option) any later version.
   
   xtb is distributed in the hope that it will be useful,
   but WITHOUT ANY WARRANTY; without even the implied warranty of
   MERCHANTABILITY or FITNESS FOR A PARTICULAR PURPOSE.  See the
   GNU Lesser General Public License for more details.
   
   Cite this work as:
   * C. Bannwarth, E. Caldeweyher, S. Ehlert, A. Hansen, P. Pracht,
     J. Seibert, S. Spicher, S. Grimme, WIREs Comput. Mol. Sci., 2020, 11,
     e01493. DOI: 10.1002/wcms.1493
   
   for GFN2-xTB:
   * C. Bannwarth, S. Ehlert and S. Grimme., J. Chem. Theory Comput., 2019,
     15, 1652-1671. DOI: 10.1021/acs.jctc.8b01176
   for GFN1-xTB:
   * S. Grimme, C. Bannwarth, P. Shushkov, J. Chem. Theory Comput., 2017,
     13, 1989-2009. DOI: 10.1021/acs.jctc.7b00118
   for GFN0-xTB:
   * P. Pracht, E. Caldeweyher, S. Ehlert, S. Grimme, ChemRxiv, 2019, preprint.
     DOI: 10.26434/chemrxiv.8326202.v1
   for GFN-FF:
   * S. Spicher and S. Grimme, Angew. Chem. Int. Ed., 2020, 59, 15665-15673.
     DOI: 10.1002/anie.202004239
   
   for ALPB and GBSA implicit solvation:
   * S. Ehlert, M. Stahn, S. Spicher, S. Grimme, J. Chem. Theory Comput.,
     2021, 17, 4250-4261. DOI: 10.1021/acs.jctc.1c00471
   
   for DFT-D4:
   * E. Caldeweyher, C. Bannwarth and S. Grimme, J. Chem. Phys., 2017,
     147, 034112. DOI: 10.1063/1.4993215
   * E. Caldeweyher, S. Ehlert, A. Hansen, H. Neugebauer, S. Spicher,
     C. Bannwarth and S. Grimme, J. Chem. Phys., 2019, 150, 154122.
     DOI: 10.1063/1.5090222
   * E. Caldeweyher, J.-M. Mewes, S. Ehlert and S. Grimme, Phys. Chem. Chem. Phys.
     2020, 22, 8499-8512. DOI: 10.1039/D0CP00502A
   
   for sTDA-xTB:
   * S. Grimme and C. Bannwarth, J. Chem. Phys., 2016, 145, 054103.
     DOI: 10.1063/1.4959605
   
   in the mass-spec context:
   * V. Asgeirsson, C. Bauer and S. Grimme, Chem. Sci., 2017, 8, 4879.
     DOI: 10.1039/c7sc00601b
   * J. Koopman and S. Grimme, ACS Omega 2019, 4, 12, 15120-15133.
     DOI: 10.1021/acsomega.9b02011
   
   for metadynamics refer to:
   * S. Grimme, J. Chem. Theory Comput., 2019, 155, 2847-2862
     DOI: 10.1021/acs.jctc.9b00143
   
   for SPH calculations refer to:
   * S. Spicher and S. Grimme, J. Chem. Theory Comput., 2021, 17, 1701-1714
     DOI: 10.1021/acs.jctc.0c01306
   
   with help from (in alphabetical order)
   P. Atkinson, C. Bannwarth, F. Bohle, G. Brandenburg, E. Caldeweyher
   M. Checinski, S. Dohm, S. Ehlert, S. Ehrlich, I. Gerasimov, C. Hölzer
   A. Katbashev, J. Koopman, C. Lavigne, S. Lehtola, F. März, M. Müller,
   F. Musil, H. Neugebauer, J. Pisarek, C. Plett, P. Pracht, F. Pultar,
   J. Seibert, P. Shushkov, S. Spicher, M. Stahn, M. Steiner, T. Strunk,
   J. Stückrath, T. Rose, and J. Unsleber
   
 * started run on 2022/11/24 at 12:21:16.687     

           -------------------------------------------------
          |                Calculation Setup                |
           -------------------------------------------------

          program call               : xtb xtbopt.coord --gfn2 --sp --gbsa water
          hostname                   : cn0430
          coordinate file            : xtbopt.coord
          omp threads                :                     2

   ID    Z sym.   atoms
    1    8 o      1, 4, 7, 10, 13, 16, 19, 22, 25, 28, 31, 34, 37, 40, 43,
                  46, 49, 52, 55, 58, 61, 64, 67, 70, 73, 76, 79, 82, 85, 88,
                  91, 94, 97, 100, 103, 106, 109, 112, 115, 118, 121, 124,
                  127, 130, 133, 136, 139, 142, 145, 148, 151, 154, 157, 160,
                  163, 166, 169, 172, 175, 178, 181, 184, 187, 190, 193, 196,
                  199, 202, 205, 208, 211, 214, 217, 220, 223, 226, 229, 232,
                  235, 238, 241, 244, 247, 250, 253, 256, 259, 262, 265, 268,
                  271, 274, 277, 280, 283, 286, 289, 292, 295, 298, 301, 304,
                  307, 310, 313, 316, 319, 322, 325, 328, 331, 334, 337, 340,
                  343, 346, 349, 352, 355, 358, 361, 364, 367, 370, 373, 376,
                  379, 382, 385, 388, 391, 394, 397, 400, 403, 406, 409, 412,
                  415, 418, 421, 424, 427, 430, 433, 436, 439, 442, 445, 448,
                  451, 454, 457, 460, 463, 466, 469, 472, 475, 478, 481, 484,
                  487, 490, 493, 496, 499, 502, 505, 508, 511, 514, 517, 520,
                  523, 526, 529, 532, 535, 538, 541, 544, 547, 550, 553, 556,
                  559, 562, 565, 568, 571, 574, 577, 580, 583, 586, 589, 592,
                  595, 598, 601, 604, 607, 610, 613, 616, 619, 622, 625, 628,
                  631, 634, 637, 640, 643, 646, 649, 652, 655, 658, 661, 664,
                  667, 670, 673, 676, 679, 682, 685, 688, 691, 694, 697, 700,
                  703, 706, 709, 712, 715, 718, 721, 724, 727, 730, 733, 736,
                  739, 742, 745, 748, 751, 754
    2    1 h      2, 3, 5, 6, 8, 9, 11, 12, 14, 15, 17, 18, 20, 21, 23, 24,
                  26, 27, 29, 30, 32, 33, 35, 36, 38, 39, 41, 42, 44, 45, 47,
                  48, 50, 51, 53, 54, 56, 57, 59, 60, 62, 63, 65, 66, 68, 69,
                  71, 72, 74, 75, 77, 78, 80, 81, 83, 84, 86, 87, 89, 90, 92,
                  93, 95, 96, 98, 99, 101, 102, 104, 105, 107, 108, 110, 111,
                  113, 114, 116, 117, 119, 120, 122, 123, 125, 126, 128, 129,
                  131, 132, 134, 135, 137, 138, 140, 141, 143, 144, 146, 147,
                  149, 150, 152, 153, 155, 156, 158, 159, 161, 162, 164, 165,
                  167, 168, 170, 171, 173, 174, 176, 177, 179, 180, 182, 183,
                  185, 186, 188, 189, 191, 192, 194, 195, 197, 198, 200, 201,
                  203, 204, 206, 207, 209, 210, 212, 213, 215, 216, 218, 219,
                  221, 222, 224, 225, 227, 228, 230, 231, 233, 234, 236, 237,
                  239, 240, 242, 243, 245, 246, 248, 249, 251, 252, 254, 255,
                  257, 258, 260, 261, 263, 264, 266, 267, 269, 270, 272, 273,
                  275, 276, 278, 279, 281, 282, 284, 285, 287, 288, 290, 291,
                  293, 294, 296, 297, 299, 300, 302, 303, 305, 306, 308, 309,
                  311, 312, 314, 315, 317, 318, 320, 321, 323, 324, 326, 327,
                  329, 330, 332, 333, 335, 336, 338, 339, 341, 342, 344, 345,
                  347, 348, 350, 351, 353, 354, 356, 357, 359, 360, 362, 363,
                  365, 366, 368, 369, 371, 372, 374, 375, 377, 378, 380, 381,
                  383, 384, 386, 387, 389, 390, 392, 393, 395, 396, 398, 399,
                  401, 402, 404, 405, 407, 408, 410, 411, 413, 414, 416, 417,
                  419, 420, 422, 423, 425, 426, 428, 429, 431, 432, 434, 435,
                  437, 438, 440, 441, 443, 444, 446, 447, 449, 450, 452, 453,
                  455, 456, 458, 459, 461, 462, 464, 465, 467, 468, 470, 471,
                  473, 474, 476, 477, 479, 480, 482, 483, 485, 486, 488, 489,
                  491, 492, 494, 495, 497, 498, 500, 501, 503, 504, 506, 507,
                  509, 510, 512, 513, 515, 516, 518, 519, 521, 522, 524, 525,
                  527, 528, 530, 531, 533, 534, 536, 537, 539, 540, 542, 543,
                  545, 546, 548, 549, 551, 552, 554, 555, 557, 558, 560, 561,
                  563, 564, 566, 567, 569, 570, 572, 573, 575, 576, 578, 579,
                  581, 582, 584, 585, 587, 588, 590, 591, 593, 594, 596, 597,
                  599, 600, 602, 603, 605, 606, 608, 609, 611, 612, 614, 615,
                  617, 618, 620, 621, 623, 624, 626, 627, 629, 630, 632, 633,
                  635, 636, 638, 639, 641, 642, 644, 645, 647, 648, 650, 651,
                  653, 654, 656, 657, 659, 660, 662, 663, 665, 666, 668, 669,
                  671, 672, 674, 675, 677, 678, 680, 681, 683, 684, 686, 687,
                  689, 690, 692, 693, 695, 696, 698, 699, 701, 702, 704, 705,
                  707, 708, 710, 711, 713, 714, 716, 717, 719, 720, 722, 723,
                  725, 726, 728, 729, 731, 732, 734, 735, 737, 738, 740, 741,
                  743, 744, 746, 747, 749, 750, 752, 753, 755, 756

molecular fragmentation (1/2 indicates fragments):
111222222222222222222222222222222222222222222222222222222222222222222222
222222222222222222222222222222222222222222222222222222222222222222222222
222222222222222222222222222222222222222222222222222222222222222222222222
222222222222222222222222222222222222222222222222222222222222222222222222
222222222222222222222222222222222222222222222222222222222222222222222222
222222222222222222222222222222222222222222222222222222222222222222222222
222222222222222222222222222222222222222222222222222222222222222222222222
222222222222222222222222222222222222222222222222222222222222222222222222
222222222222222222222222222222222222222222222222222222222222222222222222
222222222222222222222222222222222222222222222222222222222222222222222222
222222222222222222222222222222222222
# atoms in fragment 1/2:     3   753
 fragment masses (1/2) :       18.02     4521.84
CMA distance (Bohr)    :  17.858
constraining FC (au)   :  0.0500

           -------------------------------------------------
          |                 G F N 2 - x T B                 |
           -------------------------------------------------

        Reference                      10.1021/acs.jctc.8b01176
      * Hamiltonian:
        H0-scaling (s, p, d)           1.850000    2.230000    2.230000
        zeta-weighting                 0.500000
      * Dispersion:
        s8                             2.700000
        a1                             0.520000
        a2                             5.000000
        s9                             5.000000
      * Repulsion:
        kExp                           1.500000    1.000000
        rExp                           1.000000
      * Coulomb:
        alpha                          2.000000
        third order                    shell-resolved
        anisotropic                    true
        a3                             3.000000
        a5                             4.000000
        cn-shift                       1.200000
        cn-exp                         4.000000
        max-rad                        5.000000

      * Solvation model:               GBSA
        Solvent                        water
        Parameter file                 internal GFN2-xTB/GBSA
        Dielectric constant                8.0200E+01
        Reference state                gsolv [1 M gas/solution]
        Free energy shift                  1.8574E-03 Eh       1.1656E+00 kcal/mol
        Temperature                        2.9815E+02 K
        Density                            1.0000E+00 kg/L
        Solvent mass                       1.8000E+01 g/mol
        Interaction kernel             Still
        Born radius scaling (c1)           1.5524E+00
        Born radii integrator          GBOBC
        Born offset                        2.4628E-02 a0       4.6540E-02 AA
        H-bond correction              true
        Ion screening                  false
        Surface tension                    1.0000E-05 Eh       1.5569E+01 dyn/cm
        Grid points                               230 per atom

          ...................................................
          :                      SETUP                      :
          :.................................................:
          :  # basis functions                1512          :
          :  # atomic orbitals                1512          :
          :  # shells                         1008          :
          :  # electrons                      2016          :
          :  max. iterations                   250          :
          :  Hamiltonian                  GFN2-xTB          :
          :  restarted?                      false          :
          :  GBSA solvation                   true          :
          :  PC potential                    false          :
          :  electronic temp.          300.0000000     K    :
          :  accuracy                    1.0000000          :
          :  -> integral cutoff          0.2500000E+02      :
          :  -> integral neglect         0.1000000E-07      :
          :  -> SCF convergence          0.1000000E-05 Eh   :
          :  -> wf. convergence          0.1000000E-03 e    :
          :  Broyden damping             0.4000000          :
          ...................................................

 iter      E             dE          RMSdq      gap      omega  full diag
   1  -1291.2322843 -0.129123E+04  0.409E+00    8.26       0.0  T
   2  -1291.3173042 -0.850198E-01  0.242E+00    8.02       1.0  T
   3  -1291.3531014 -0.357972E-01  0.226E-01    6.91       1.0  T
   4  -1291.3586075 -0.550610E-02  0.483E-02    7.18       1.0  T
   5  -1291.3587671 -0.159630E-03  0.310E-02    7.11       1.0  T
   6  -1291.3588128 -0.457229E-04  0.377E-03    7.12       1.0  T
   7  -1291.3588145 -0.168123E-05  0.871E-04    7.12       4.2  T
   8  -1291.3588146 -0.745406E-07  0.459E-04    7.12       7.9  T
   9  -1291.3588146 -0.326274E-07  0.121E-04    7.12      30.0  T

   *** convergence criteria satisfied after 9 iterations ***

         #    Occupation            Energy/Eh            Energy/eV
      -------------------------------------------------------------
         1        2.0000           -0.6581147             -17.9082
       ...           ...                  ...                  ...
      1002        2.0000           -0.3392498              -9.2315
      1003        2.0000           -0.3387248              -9.2172
      1004        2.0000           -0.3361008              -9.1458
      1005        2.0000           -0.3317991              -9.0287
      1006        2.0000           -0.3280480              -8.9266
      1007        2.0000           -0.3231802              -8.7942
      1008        2.0000           -0.3168035              -8.6207 (HOMO)
      1009                         -0.0552522              -1.5035 (LUMO)
      1010                         -0.0473530              -1.2885
      1011                         -0.0375585              -1.0220
      1012                         -0.0321369              -0.8745
      1013                         -0.0274026              -0.7457
       ...                                ...                  ...
      1512                          0.5216658              14.1952
      -------------------------------------------------------------
                  HL-Gap            0.2615514 Eh            7.1172 eV
             Fermi-level           -0.1860279 Eh           -5.0621 eV

 SCC (total)                   0 d,  0 h,  0 min, 21.825 sec
 SCC setup                      ...        0 min,  0.117 sec (  0.535%)
 Dispersion                     ...        0 min,  0.110 sec (  0.504%)
 classical contributions        ...        0 min,  0.023 sec (  0.107%)
 integral evaluation            ...        0 min,  0.611 sec (  2.801%)
 iterations                     ...        0 min,  8.488 sec ( 38.891%)
 molecular gradient             ...        0 min, 12.410 sec ( 56.863%)
 printout                       ...        0 min,  0.065 sec (  0.299%)

         :::::::::::::::::::::::::::::::::::::::::::::::::::::
         ::                     SUMMARY                     ::
         :::::::::::::::::::::::::::::::::::::::::::::::::::::
         :: total energy           -1283.547309936132 Eh    ::
         :: total w/o Gsasa/hb     -1283.319133579323 Eh    ::
         :: gradient norm              0.127412915736 Eh/a0 ::
         :: HOMO-LUMO gap              7.117174886111 eV    ::
         ::.................................................::
         :: SCC energy             -1291.358814634157 Eh    ::
         :: -> isotropic ES            7.343303812561 Eh    ::
         :: -> anisotropic ES         -1.628351668856 Eh    ::
         :: -> anisotropic XC         -0.119975145815 Eh    ::
         :: -> dispersion             -0.797426632957 Eh    ::
         :: -> Gsolv                  -0.264135978066 Eh    ::
         ::    -> Gelec               -0.035959621258 Eh    ::
         ::    -> Gsasa                0.006288162962 Eh    ::
         ::    -> Ghb                 -0.236321962898 Eh    ::
         ::    -> Gshift               0.001857443127 Eh    ::
         :: repulsion energy           7.653796817305 Eh    ::
         :: add. restraining           0.000000000000 Eh    ::
         :: total charge              -0.000000000000 e     ::
         :::::::::::::::::::::::::::::::::::::::::::::::::::::

           -------------------------------------------------
          |                Property Printout                |
           -------------------------------------------------

    * Orbital Energies and Occupations

         #    Occupation            Energy/Eh            Energy/eV
      -------------------------------------------------------------
         1        2.0000           -0.6581147             -17.9082
       ...           ...                  ...                  ...
       996        2.0000           -0.3476136              -9.4590
       997        2.0000           -0.3467278              -9.4349
       998        2.0000           -0.3427872              -9.3277
       999        2.0000           -0.3412264              -9.2852
      1000        2.0000           -0.3408733              -9.2756
      1001        2.0000           -0.3395971              -9.2409
      1002        2.0000           -0.3392498              -9.2315
      1003        2.0000           -0.3387248              -9.2172
      1004        2.0000           -0.3361008              -9.1458
      1005        2.0000           -0.3317991              -9.0287
      1006        2.0000           -0.3280480              -8.9266
      1007        2.0000           -0.3231802              -8.7942
      1008        2.0000           -0.3168035              -8.6207 (HOMO)
      1009                         -0.0552522              -1.5035 (LUMO)
      1010                         -0.0473530              -1.2885
      1011                         -0.0375585              -1.0220
      1012                         -0.0321369              -0.8745
      1013                         -0.0274026              -0.7457
      1014                         -0.0205565              -0.5594
      1015                         -0.0193247              -0.5259
      1016                         -0.0107033              -0.2913
      1017                         -0.0071082              -0.1934
      1018                         -0.0039368              -0.1071
      1019                         -0.0024764              -0.0674
       ...                                ...                  ...
      1512                          0.5216658              14.1952
      -------------------------------------------------------------
                  HL-Gap            0.2615514 Eh            7.1172 eV
             Fermi-level           -0.1860279 Eh           -5.0621 eV

     #   Z          covCN         q      C6AA      α(0)
     1   8 o        1.607    -0.671    26.953     7.007
     2   1 h        0.802     0.344     0.603     1.220
     3   1 h        0.805     0.329     0.639     1.255
     4   8 o        1.608    -0.700    27.717     7.106
     5   1 h        0.804     0.335     0.624     1.241
     6   1 h        0.804     0.336     0.623     1.240
     7   8 o        1.608    -0.691    27.466     7.073
     8   1 h        0.804     0.347     0.595     1.212
     9   1 h        0.804     0.335     0.626     1.243
    10   8 o        1.607    -0.689    27.426     7.068
    11   1 h        0.804     0.350     0.589     1.206
    12   1 h        0.804     0.347     0.596     1.213
    13   8 o        1.608    -0.688    27.403     7.065
    14   1 h        0.804     0.335     0.625     1.242
    15   1 h        0.805     0.325     0.651     1.267
    16   8 o        1.607    -0.688    27.383     7.063
    17   1 h        0.804     0.337     0.619     1.236
    18   1 h        0.803     0.359     0.568     1.184
    19   8 o        1.610    -0.673    27.014     7.015
    20   1 h        0.804     0.346     0.599     1.216
    21   1 h        0.805     0.319     0.667     1.283
    22   8 o        1.606    -0.686    27.345     7.058
    23   1 h        0.804     0.346     0.597     1.214
    24   1 h        0.803     0.345     0.601     1.218
    25   8 o        1.606    -0.685    27.318     7.054
    26   1 h        0.804     0.342     0.607     1.224
    27   1 h        0.803     0.345     0.600     1.217
    28   8 o        1.606    -0.708    27.926     7.132
    29   1 h        0.802     0.356     0.576     1.192
    30   1 h        0.804     0.354     0.578     1.194
    31   8 o        1.607    -0.705    27.849     7.122
    32   1 h        0.804     0.350     0.588     1.205
    33   1 h        0.803     0.349     0.590     1.207
    34   8 o        1.609    -0.682    27.232     7.043
    35   1 h        0.804     0.349     0.590     1.206
    36   1 h        0.804     0.355     0.577     1.194
    37   8 o        1.610    -0.689    27.414     7.067
    38   1 h        0.804     0.333     0.630     1.246
    39   1 h        0.804     0.357     0.572     1.188
    40   8 o        1.609    -0.687    27.366     7.060
    41   1 h        0.805     0.334     0.628     1.245
    42   1 h        0.804     0.350     0.589     1.205
    43   8 o        1.610    -0.694    27.539     7.083
    44   1 h        0.804     0.344     0.603     1.220
    45   1 h        0.804     0.349     0.590     1.207
    46   8 o        1.610    -0.663    26.750     6.980
    47   1 h        0.805     0.334     0.628     1.245
    48   1 h        0.805     0.342     0.608     1.224
    49   8 o        1.607    -0.672    26.974     7.010
    50   1 h        0.803     0.348     0.592     1.209
    51   1 h        0.805     0.326     0.647     1.263
    52   8 o        1.609    -0.665    26.784     6.985
    53   1 h        0.805     0.327     0.644     1.261
    54   1 h        0.804     0.340     0.612     1.229
    55   8 o        1.607    -0.680    27.189     7.037
    56   1 h        0.804     0.348     0.593     1.210
    57   1 h        0.804     0.340     0.612     1.229
    58   8 o        1.607    -0.683    27.258     7.046
    59   1 h        0.803     0.344     0.603     1.219
    60   1 h        0.803     0.338     0.616     1.233
    61   8 o        1.608    -0.682    27.245     7.045
    62   1 h        0.804     0.337     0.619     1.236
    63   1 h        0.804     0.343     0.606     1.223
    64   8 o        1.610    -0.677    27.115     7.028
    65   1 h        0.803     0.359     0.567     1.183
    66   1 h        0.805     0.339     0.615     1.232
    67   8 o        1.608    -0.701    27.733     7.108
    68   1 h        0.805     0.335     0.624     1.240
    69   1 h        0.803     0.335     0.626     1.243
    70   8 o        1.609    -0.660    26.664     6.969
    71   1 h        0.805     0.327     0.646     1.263
    72   1 h        0.804     0.326     0.647     1.264
    73   8 o        1.609    -0.659    26.638     6.966
    74   1 h        0.804     0.348     0.593     1.210
    75   1 h        0.805     0.322     0.658     1.274
    76   8 o        1.607    -0.700    27.721     7.106
    77   1 h        0.803     0.354     0.579     1.196
    78   1 h        0.804     0.346     0.598     1.215
    79   8 o        1.607    -0.697    27.642     7.096
    80   1 h        0.803     0.365     0.554     1.169
    81   1 h        0.803     0.349     0.590     1.207
    82   8 o        1.606    -0.716    28.138     7.159
    83   1 h        0.803     0.357     0.573     1.190
    84   1 h        0.804     0.362     0.560     1.176
    85   8 o        1.609    -0.672    26.970     7.009
    86   1 h        0.804     0.338     0.618     1.235
    87   1 h        0.805     0.343     0.605     1.222
    88   8 o        1.606    -0.714    28.086     7.153
    89   1 h        0.804     0.340     0.612     1.228
    90   1 h        0.803     0.352     0.584     1.200
    91   8 o        1.606    -0.681    27.210     7.040
    92   1 h        0.803     0.344     0.603     1.219
    93   1 h        0.803     0.325     0.651     1.267
    94   8 o        1.607    -0.665    26.798     6.987
    95   1 h        0.803     0.360     0.566     1.182
    96   1 h        0.805     0.347     0.595     1.212
    97   8 o        1.609    -0.686    27.336     7.056
    98   1 h        0.804     0.346     0.597     1.214
    99   1 h        0.804     0.347     0.594     1.211
   100   8 o        1.607    -0.694    27.555     7.085
   101   1 h        0.803     0.327     0.647     1.263
   102   1 h        0.804     0.356     0.574     1.190
   103   8 o        1.607    -0.702    27.756     7.110
   104   1 h        0.804     0.342     0.607     1.224
   105   1 h        0.803     0.345     0.600     1.217
   106   8 o        1.609    -0.644    26.265     6.917
   107   1 h        0.805     0.338     0.618     1.234
   108   1 h        0.804     0.334     0.627     1.244
   109   8 o        1.607    -0.685    27.326     7.055
   110   1 h        0.804     0.357     0.572     1.188
   111   1 h        0.803     0.328     0.642     1.259
   112   8 o        1.608    -0.670    26.933     7.004
   113   1 h        0.804     0.322     0.658     1.274
   114   1 h        0.804     0.344     0.603     1.219
   115   8 o        1.610    -0.657    26.600     6.961
   116   1 h        0.805     0.326     0.648     1.265
   117   1 h        0.805     0.353     0.581     1.198
   118   8 o        1.607    -0.688    27.387     7.063
   119   1 h        0.803     0.358     0.570     1.187
   120   1 h        0.804     0.341     0.610     1.227
   121   8 o        1.606    -0.687    27.382     7.062
   122   1 h        0.803     0.342     0.607     1.224
   123   1 h        0.803     0.347     0.596     1.213
   124   8 o        1.606    -0.719    28.232     7.171
   125   1 h        0.804     0.353     0.581     1.198
   126   1 h        0.803     0.342     0.607     1.224
   127   8 o        1.609    -0.683    27.253     7.046
   128   1 h        0.803     0.334     0.628     1.245
   129   1 h        0.805     0.334     0.627     1.244
   130   8 o        1.607    -0.681    27.210     7.040
   131   1 h        0.803     0.344     0.602     1.219
   132   1 h        0.804     0.352     0.584     1.201
   133   8 o        1.609    -0.666    26.831     6.991
   134   1 h        0.805     0.320     0.663     1.279
   135   1 h        0.804     0.349     0.591     1.208
   136   8 o        1.607    -0.674    27.021     7.016
   137   1 h        0.804     0.329     0.640     1.257
   138   1 h        0.803     0.349     0.590     1.207
   139   8 o        1.606    -0.684    27.297     7.051
   140   1 h        0.803     0.335     0.625     1.242
   141   1 h        0.803     0.350     0.589     1.205
   142   8 o        1.610    -0.638    26.126     6.899
   143   1 h        0.805     0.323     0.656     1.272
   144   1 h        0.804     0.335     0.624     1.241
   145   8 o        1.608    -0.672    26.964     7.008
   146   1 h        0.803     0.350     0.589     1.206
   147   1 h        0.805     0.326     0.647     1.264
   148   8 o        1.608    -0.689    27.423     7.068
   149   1 h        0.803     0.357     0.571     1.187
   150   1 h        0.804     0.350     0.588     1.204
   151   8 o        1.606    -0.698    27.655     7.097
   152   1 h        0.802     0.357     0.572     1.188
   153   1 h        0.803     0.343     0.605     1.222
   154   8 o        1.605    -0.697    27.638     7.095
   155   1 h        0.802     0.332     0.632     1.249
   156   1 h        0.804     0.334     0.628     1.244
   157   8 o        1.608    -0.680    27.189     7.037
   158   1 h        0.805     0.340     0.612     1.229
   159   1 h        0.804     0.356     0.575     1.191
   160   8 o        1.609    -0.686    27.341     7.057
   161   1 h        0.804     0.336     0.623     1.240
   162   1 h        0.804     0.345     0.599     1.216
   163   8 o        1.609    -0.670    26.928     7.004
   164   1 h        0.805     0.339     0.615     1.232
   165   1 h        0.804     0.359     0.569     1.185
   166   8 o        1.604    -0.707    27.907     7.130
   167   1 h        0.803     0.355     0.578     1.194
   168   1 h        0.803     0.359     0.568     1.184
   169   8 o        1.609    -0.675    27.058     7.021
   170   1 h        0.805     0.333     0.630     1.247
   171   1 h        0.803     0.343     0.604     1.221
   172   8 o        1.606    -0.696    27.593     7.089
   173   1 h        0.803     0.356     0.575     1.192
   174   1 h        0.803     0.320     0.664     1.280
   175   8 o        1.607    -0.690    27.442     7.070
   176   1 h        0.803     0.365     0.555     1.170
   177   1 h        0.804     0.351     0.586     1.202
   178   8 o        1.606    -0.697    27.623     7.093
   179   1 h        0.802     0.330     0.638     1.254
   180   1 h        0.803     0.344     0.603     1.219
   181   8 o        1.607    -0.680    27.194     7.038
   182   1 h        0.804     0.334     0.627     1.244
   183   1 h        0.803     0.353     0.582     1.198
   184   8 o        1.609    -0.667    26.848     6.993
   185   1 h        0.804     0.345     0.600     1.217
   186   1 h        0.805     0.322     0.658     1.274
   187   8 o        1.609    -0.684    27.286     7.050
   188   1 h        0.803     0.358     0.571     1.187
   189   1 h        0.805     0.345     0.599     1.216
   190   8 o        1.605    -0.710    27.976     7.138
   191   1 h        0.802     0.362     0.560     1.176
   192   1 h        0.803     0.340     0.612     1.229
   193   8 o        1.609    -0.661    26.695     6.973
   194   1 h        0.804     0.342     0.607     1.224
   195   1 h        0.805     0.329     0.639     1.256
   196   8 o        1.607    -0.691    27.477     7.075
   197   1 h        0.804     0.346     0.597     1.213
   198   1 h        0.803     0.334     0.626     1.243
   199   8 o        1.607    -0.702    27.764     7.111
   200   1 h        0.805     0.344     0.602     1.219
   201   1 h        0.804     0.355     0.576     1.192
   202   8 o        1.608    -0.669    26.897     7.000
   203   1 h        0.804     0.348     0.592     1.209
   204   1 h        0.804     0.332     0.633     1.249
   205   8 o        1.608    -0.673    26.991     7.012
   206   1 h        0.802     0.362     0.561     1.177
   207   1 h        0.805     0.314     0.680     1.295
   208   8 o        1.607    -0.667    26.846     6.993
   209   1 h        0.805     0.313     0.683     1.298
   210   1 h        0.802     0.368     0.548     1.163
   211   8 o        1.609    -0.668    26.869     6.996
   212   1 h        0.804     0.334     0.627     1.244
   213   1 h        0.804     0.341     0.611     1.227
   214   8 o        1.608    -0.697    27.629     7.094
   215   1 h        0.803     0.348     0.592     1.209
   216   1 h        0.804     0.347     0.596     1.213
   217   8 o        1.607    -0.693    27.524     7.081
   218   1 h        0.803     0.344     0.602     1.219
   219   1 h        0.804     0.342     0.607     1.224
   220   8 o        1.607    -0.684    27.279     7.049
   221   1 h        0.804     0.323     0.655     1.271
   222   1 h        0.804     0.344     0.602     1.219
   223   8 o        1.610    -0.667    26.851     6.994
   224   1 h        0.805     0.359     0.568     1.184
   225   1 h        0.805     0.330     0.638     1.255
   226   8 o        1.608    -0.661    26.695     6.973
   227   1 h        0.804     0.339     0.614     1.231
   228   1 h        0.804     0.341     0.611     1.228
   229   8 o        1.610    -0.664    26.768     6.983
   230   1 h        0.805     0.328     0.643     1.260
   231   1 h        0.805     0.331     0.635     1.251
   232   8 o        1.609    -0.681    27.211     7.040
   233   1 h        0.804     0.338     0.618     1.235
   234   1 h        0.805     0.334     0.627     1.244
   235   8 o        1.605    -0.682    27.237     7.044
   236   1 h        0.803     0.326     0.649     1.265
   237   1 h        0.802     0.356     0.576     1.192
   238   8 o        1.605    -0.709    27.958     7.136
   239   1 h        0.802     0.345     0.600     1.217
   240   1 h        0.803     0.358     0.569     1.185
   241   8 o        1.609    -0.664    26.762     6.982
   242   1 h        0.804     0.343     0.606     1.223
   243   1 h        0.805     0.326     0.647     1.263
   244   8 o        1.609    -0.661    26.703     6.974
   245   1 h        0.804     0.339     0.615     1.232
   246   1 h        0.805     0.328     0.643     1.259
   247   8 o        1.606    -0.712    28.045     7.147
   248   1 h        0.803     0.355     0.577     1.193
   249   1 h        0.804     0.335     0.625     1.242
   250   8 o        1.609    -0.669    26.898     7.000
   251   1 h        0.804     0.330     0.638     1.255
   252   1 h        0.805     0.333     0.630     1.247
   253   8 o        1.608    -0.671    26.955     7.007
   254   1 h        0.804     0.348     0.592     1.209
   255   1 h        0.804     0.340     0.612     1.229
   256   8 o        1.609    -0.671    26.949     7.006
   257   1 h        0.804     0.355     0.577     1.193
   258   1 h        0.805     0.319     0.666     1.282
   259   8 o        1.610    -0.671    26.953     7.007
   260   1 h        0.805     0.345     0.601     1.218
   261   1 h        0.805     0.327     0.646     1.263
   262   8 o        1.607    -0.688    27.390     7.063
   263   1 h        0.804     0.346     0.597     1.214
   264   1 h        0.803     0.343     0.604     1.221
   265   8 o        1.605    -0.702    27.778     7.113
   266   1 h        0.806     0.309     0.696     1.310
   267   1 h        0.801     0.369     0.545     1.160
   268   8 o        1.609    -0.663    26.752     6.981
   269   1 h        0.804     0.342     0.608     1.225
   270   1 h        0.805     0.329     0.639     1.255
   271   8 o        1.608    -0.691    27.484     7.075
   272   1 h        0.803     0.361     0.563     1.179
   273   1 h        0.804     0.338     0.616     1.233
   274   8 o        1.607    -0.678    27.125     7.029
   275   1 h        0.803     0.345     0.601     1.218
   276   1 h        0.804     0.327     0.644     1.261
   277   8 o        1.607    -0.672    26.990     7.012
   278   1 h        0.802     0.366     0.552     1.168
   279   1 h        0.805     0.326     0.648     1.264
   280   8 o        1.607    -0.673    27.014     7.015
   281   1 h        0.804     0.348     0.593     1.209
   282   1 h        0.803     0.337     0.619     1.236
   283   8 o        1.607    -0.676    27.078     7.023
   284   1 h        0.802     0.356     0.575     1.191
   285   1 h        0.805     0.312     0.685     1.300
   286   8 o        1.607    -0.687    27.361     7.060
   287   1 h        0.805     0.313     0.684     1.299
   288   1 h        0.802     0.366     0.552     1.167
   289   8 o        1.608    -0.679    27.166     7.035
   290   1 h        0.805     0.318     0.669     1.285
   291   1 h        0.803     0.364     0.557     1.172
   292   8 o        1.609    -0.661    26.704     6.975
   293   1 h        0.805     0.322     0.659     1.275
   294   1 h        0.804     0.341     0.609     1.226
   295   8 o        1.608    -0.683    27.274     7.048
   296   1 h        0.803     0.358     0.569     1.185
   297   1 h        0.804     0.330     0.636     1.253
   298   8 o        1.608    -0.664    26.761     6.982
   299   1 h        0.804     0.322     0.660     1.276
   300   1 h        0.804     0.346     0.598     1.215
   301   8 o        1.609    -0.679    27.163     7.034
   302   1 h        0.803     0.360     0.566     1.182
   303   1 h        0.805     0.316     0.675     1.291
   304   8 o        1.609    -0.681    27.198     7.039
   305   1 h        0.804     0.358     0.569     1.185
   306   1 h        0.805     0.322     0.659     1.276
   307   8 o        1.608    -0.671    26.958     7.007
   308   1 h        0.805     0.340     0.613     1.230
   309   1 h        0.803     0.356     0.574     1.190
   310   8 o        1.607    -0.660    26.673     6.970
   311   1 h        0.804     0.339     0.615     1.232
   312   1 h        0.803     0.334     0.626     1.243
   313   8 o        1.608    -0.672    26.974     7.010
   314   1 h        0.804     0.336     0.622     1.239
   315   1 h        0.804     0.359     0.567     1.183
   316   8 o        1.608    -0.667    26.850     6.994
   317   1 h        0.805     0.318     0.670     1.286
   318   1 h        0.802     0.340     0.613     1.230
   319   8 o        1.607    -0.676    27.078     7.023
   320   1 h        0.805     0.327     0.644     1.260
   321   1 h        0.802     0.348     0.593     1.210
   322   8 o        1.607    -0.691    27.467     7.073
   323   1 h        0.803     0.337     0.619     1.236
   324   1 h        0.804     0.343     0.605     1.222
   325   8 o        1.606    -0.700    27.724     7.106
   326   1 h        0.805     0.321     0.660     1.276
   327   1 h        0.802     0.360     0.565     1.181
   328   8 o        1.608    -0.676    27.076     7.023
   329   1 h        0.803     0.343     0.606     1.222
   330   1 h        0.804     0.363     0.559     1.174
   331   8 o        1.609    -0.677    27.106     7.027
   332   1 h        0.805     0.334     0.628     1.244
   333   1 h        0.804     0.347     0.596     1.212
   334   8 o        1.607    -0.680    27.192     7.038
   335   1 h        0.804     0.325     0.652     1.268
   336   1 h        0.803     0.355     0.577     1.193
   337   8 o        1.608    -0.690    27.447     7.071
   338   1 h        0.805     0.351     0.586     1.202
   339   1 h        0.803     0.351     0.585     1.202
   340   8 o        1.607    -0.691    27.485     7.076
   341   1 h        0.803     0.351     0.585     1.202
   342   1 h        0.805     0.321     0.661     1.277
   343   8 o        1.608    -0.659    26.651     6.967
   344   1 h        0.803     0.339     0.616     1.233
   345   1 h        0.804     0.342     0.608     1.225
   346   8 o        1.608    -0.693    27.513     7.079
   347   1 h        0.803     0.357     0.573     1.189
   348   1 h        0.804     0.338     0.618     1.234
   349   8 o        1.609    -0.671    26.952     7.007
   350   1 h        0.804     0.324     0.653     1.269
   351   1 h        0.804     0.322     0.659     1.275
   352   8 o        1.608    -0.686    27.333     7.056
   353   1 h        0.804     0.322     0.659     1.275
   354   1 h        0.803     0.349     0.590     1.207
   355   8 o        1.609    -0.650    26.418     6.937
   356   1 h        0.803     0.345     0.599     1.216
   357   1 h        0.806     0.317     0.672     1.287
   358   8 o        1.607    -0.689    27.423     7.068
   359   1 h        0.804     0.332     0.633     1.250
   360   1 h        0.803     0.348     0.593     1.210
   361   8 o        1.609    -0.681    27.201     7.039
   362   1 h        0.804     0.340     0.612     1.229
   363   1 h        0.804     0.345     0.601     1.218
   364   8 o        1.608    -0.676    27.084     7.024
   365   1 h        0.804     0.361     0.563     1.178
   366   1 h        0.804     0.337     0.619     1.236
   367   8 o        1.607    -0.672    26.986     7.011
   368   1 h        0.804     0.328     0.643     1.260
   369   1 h        0.803     0.366     0.552     1.167
   370   8 o        1.608    -0.682    27.230     7.043
   371   1 h        0.804     0.344     0.603     1.220
   372   1 h        0.804     0.326     0.648     1.264
   373   8 o        1.607    -0.678    27.128     7.030
   374   1 h        0.802     0.355     0.577     1.194
   375   1 h        0.806     0.311     0.689     1.304
   376   8 o        1.607    -0.688    27.400     7.065
   377   1 h        0.804     0.323     0.656     1.272
   378   1 h        0.803     0.363     0.558     1.174
   379   8 o        1.607    -0.683    27.262     7.047
   380   1 h        0.804     0.345     0.600     1.216
   381   1 h        0.803     0.327     0.647     1.263
   382   8 o        1.606    -0.672    26.986     7.011
   383   1 h        0.803     0.351     0.587     1.203
   384   1 h        0.803     0.329     0.640     1.257
   385   8 o        1.607    -0.689    27.411     7.066
   386   1 h        0.806     0.311     0.688     1.303
   387   1 h        0.802     0.359     0.568     1.184
   388   8 o        1.608    -0.675    27.051     7.020
   389   1 h        0.804     0.361     0.564     1.180
   390   1 h        0.804     0.343     0.604     1.221
   391   8 o        1.608    -0.686    27.338     7.057
   392   1 h        0.803     0.367     0.551     1.166
   393   1 h        0.805     0.329     0.640     1.257
   394   8 o        1.608    -0.678    27.139     7.031
   395   1 h        0.803     0.351     0.586     1.202
   396   1 h        0.804     0.327     0.646     1.262
   397   8 o        1.606    -0.694    27.549     7.084
   398   1 h        0.803     0.330     0.639     1.255
   399   1 h        0.803     0.336     0.621     1.238
   400   8 o        1.608    -0.654    26.505     6.948
   401   1 h        0.802     0.347     0.595     1.212
   402   1 h        0.806     0.311     0.689     1.303
   403   8 o        1.607    -0.687    27.375     7.062
   404   1 h        0.804     0.337     0.620     1.237
   405   1 h        0.804     0.351     0.586     1.202
   406   8 o        1.605    -0.712    28.036     7.146
   407   1 h        0.803     0.349     0.591     1.207
   408   1 h        0.802     0.358     0.571     1.187
   409   8 o        1.604    -0.701    27.744     7.109
   410   1 h        0.802     0.337     0.619     1.236
   411   1 h        0.803     0.367     0.549     1.164
   412   8 o        1.605    -0.709    27.960     7.136
   413   1 h        0.802     0.354     0.579     1.196
   414   1 h        0.804     0.356     0.575     1.191
   415   8 o        1.608    -0.685    27.302     7.052
   416   1 h        0.805     0.318     0.668     1.284
   417   1 h        0.803     0.346     0.598     1.215
   418   8 o        1.608    -0.682    27.238     7.044
   419   1 h        0.803     0.362     0.561     1.177
   420   1 h        0.805     0.332     0.633     1.250
   421   8 o        1.608    -0.685    27.312     7.053
   422   1 h        0.805     0.357     0.571     1.187
   423   1 h        0.805     0.335     0.625     1.242
   424   8 o        1.605    -0.692    27.491     7.076
   425   1 h        0.803     0.328     0.644     1.261
   426   1 h        0.803     0.355     0.576     1.192
   427   8 o        1.606    -0.696    27.608     7.091
   428   1 h        0.803     0.351     0.586     1.202
   429   1 h        0.803     0.330     0.638     1.255
   430   8 o        1.606    -0.699    27.697     7.103
   431   1 h        0.802     0.370     0.544     1.159
   432   1 h        0.805     0.320     0.663     1.279
   433   8 o        1.607    -0.695    27.569     7.086
   434   1 h        0.805     0.321     0.661     1.277
   435   1 h        0.802     0.362     0.560     1.176
   436   8 o        1.609    -0.670    26.916     7.002
   437   1 h        0.806     0.306     0.704     1.318
   438   1 h        0.803     0.358     0.570     1.186
   439   8 o        1.607    -0.685    27.320     7.054
   440   1 h        0.803     0.360     0.566     1.182
   441   1 h        0.805     0.322     0.658     1.275
   442   8 o        1.606    -0.707    27.889     7.127
   443   1 h        0.802     0.353     0.581     1.198
   444   1 h        0.804     0.333     0.630     1.247
   445   8 o        1.608    -0.678    27.139     7.031
   446   1 h        0.806     0.310     0.691     1.305
   447   1 h        0.802     0.354     0.578     1.195
   448   8 o        1.606    -0.667    26.857     6.994
   449   1 h        0.804     0.346     0.599     1.215
   450   1 h        0.803     0.334     0.626     1.243
   451   8 o        1.608    -0.657    26.605     6.962
   452   1 h        0.804     0.320     0.663     1.279
   453   1 h        0.804     0.324     0.654     1.270
   454   8 o        1.608    -0.699    27.691     7.102
   455   1 h        0.804     0.345     0.600     1.216
   456   1 h        0.804     0.357     0.572     1.188
   457   8 o        1.607    -0.698    27.649     7.097
   458   1 h        0.804     0.341     0.609     1.226
   459   1 h        0.803     0.349     0.590     1.207
   460   8 o        1.608    -0.685    27.325     7.055
   461   1 h        0.804     0.365     0.554     1.169
   462   1 h        0.804     0.347     0.596     1.213
   463   8 o        1.607    -0.679    27.163     7.034
   464   1 h        0.805     0.323     0.657     1.273
   465   1 h        0.802     0.353     0.580     1.197
   466   8 o        1.609    -0.669    26.906     7.001
   467   1 h        0.804     0.343     0.605     1.222
   468   1 h        0.804     0.337     0.619     1.236
   469   8 o        1.608    -0.680    27.175     7.036
   470   1 h        0.804     0.333     0.630     1.247
   471   1 h        0.804     0.358     0.571     1.187
   472   8 o        1.610    -0.661    26.685     6.972
   473   1 h        0.804     0.343     0.605     1.222
   474   1 h        0.806     0.320     0.664     1.280
   475   8 o        1.609    -0.689    27.411     7.066
   476   1 h        0.804     0.329     0.641     1.257
   477   1 h        0.804     0.349     0.591     1.208
   478   8 o        1.609    -0.666    26.810     6.988
   479   1 h        0.805     0.321     0.661     1.277
   480   1 h        0.804     0.339     0.616     1.233
   481   8 o        1.609    -0.670    26.936     7.005
   482   1 h        0.805     0.331     0.634     1.251
   483   1 h        0.804     0.335     0.625     1.242
   484   8 o        1.607    -0.647    26.330     6.925
   485   1 h        0.806     0.316     0.675     1.291
   486   1 h        0.802     0.346     0.598     1.215
   487   8 o        1.609    -0.685    27.326     7.055
   488   1 h        0.805     0.337     0.619     1.236
   489   1 h        0.804     0.327     0.645     1.262
   490   8 o        1.606    -0.691    27.485     7.076
   491   1 h        0.803     0.341     0.609     1.226
   492   1 h        0.804     0.334     0.628     1.245
   493   8 o        1.607    -0.667    26.836     6.992
   494   1 h        0.805     0.318     0.668     1.284
   495   1 h        0.802     0.335     0.626     1.243
   496   8 o        1.609    -0.659    26.644     6.967
   497   1 h        0.804     0.339     0.615     1.232
   498   1 h        0.805     0.326     0.647     1.263
   499   8 o        1.606    -0.689    27.431     7.069
   500   1 h        0.804     0.334     0.627     1.244
   501   1 h        0.802     0.343     0.606     1.223
   502   8 o        1.606    -0.671    26.945     7.006
   503   1 h        0.804     0.325     0.649     1.266
   504   1 h        0.802     0.343     0.606     1.223
   505   8 o        1.609    -0.669    26.900     7.000
   506   1 h        0.805     0.342     0.608     1.225
   507   1 h        0.804     0.333     0.631     1.248
   508   8 o        1.609    -0.685    27.314     7.054
   509   1 h        0.804     0.351     0.586     1.202
   510   1 h        0.804     0.353     0.580     1.197
   511   8 o        1.610    -0.663    26.745     6.980
   512   1 h        0.805     0.330     0.637     1.254
   513   1 h        0.805     0.333     0.630     1.246
   514   8 o        1.608    -0.687    27.360     7.060
   515   1 h        0.805     0.327     0.645     1.262
   516   1 h        0.803     0.331     0.635     1.252
   517   8 o        1.610    -0.650    26.425     6.938
   518   1 h        0.805     0.332     0.633     1.249
   519   1 h        0.805     0.337     0.621     1.238
   520   8 o        1.609    -0.689    27.416     7.067
   521   1 h        0.804     0.335     0.624     1.240
   522   1 h        0.804     0.336     0.622     1.239
   523   8 o        1.608    -0.659    26.649     6.967
   524   1 h        0.802     0.345     0.601     1.218
   525   1 h        0.806     0.309     0.696     1.310
   526   8 o        1.608    -0.665    26.794     6.986
   527   1 h        0.806     0.313     0.683     1.298
   528   1 h        0.803     0.344     0.603     1.220
   529   8 o        1.608    -0.690    27.449     7.071
   530   1 h        0.804     0.355     0.578     1.194
   531   1 h        0.804     0.329     0.639     1.256
   532   8 o        1.604    -0.705    27.850     7.122
   533   1 h        0.802     0.334     0.629     1.246
   534   1 h        0.803     0.366     0.553     1.169
   535   8 o        1.606    -0.683    27.254     7.046
   536   1 h        0.803     0.336     0.623     1.239
   537   1 h        0.803     0.344     0.602     1.218
   538   8 o        1.609    -0.668    26.861     6.995
   539   1 h        0.804     0.338     0.618     1.235
   540   1 h        0.804     0.333     0.630     1.247
   541   8 o        1.609    -0.672    26.969     7.009
   542   1 h        0.804     0.343     0.605     1.222
   543   1 h        0.805     0.328     0.644     1.260
   544   8 o        1.608    -0.677    27.110     7.027
   545   1 h        0.804     0.347     0.595     1.212
   546   1 h        0.804     0.332     0.631     1.248
   547   8 o        1.609    -0.669    26.904     7.000
   548   1 h        0.804     0.333     0.630     1.247
   549   1 h        0.805     0.337     0.620     1.237
   550   8 o        1.608    -0.662    26.726     6.977
   551   1 h        0.803     0.342     0.608     1.225
   552   1 h        0.805     0.322     0.659     1.275
   553   8 o        1.606    -0.672    26.982     7.011
   554   1 h        0.805     0.324     0.654     1.270
   555   1 h        0.801     0.344     0.602     1.219
   556   8 o        1.609    -0.669    26.903     7.000
   557   1 h        0.804     0.323     0.657     1.273
   558   1 h        0.804     0.350     0.588     1.205
   559   8 o        1.606    -0.697    27.641     7.096
   560   1 h        0.803     0.365     0.554     1.169
   561   1 h        0.803     0.335     0.624     1.241
   562   8 o        1.607    -0.691    27.483     7.075
   563   1 h        0.804     0.320     0.665     1.281
   564   1 h        0.804     0.345     0.601     1.218
   565   8 o        1.608    -0.678    27.142     7.031
   566   1 h        0.804     0.337     0.619     1.236
   567   1 h        0.804     0.364     0.556     1.171
   568   8 o        1.610    -0.659    26.632     6.965
   569   1 h        0.804     0.335     0.624     1.241
   570   1 h        0.805     0.343     0.605     1.222
   571   8 o        1.606    -0.708    27.916     7.131
   572   1 h        0.803     0.353     0.582     1.198
   573   1 h        0.804     0.349     0.591     1.208
   574   8 o        1.609    -0.666    26.823     6.990
   575   1 h        0.805     0.328     0.641     1.258
   576   1 h        0.804     0.335     0.624     1.241
   577   8 o        1.608    -0.678    27.141     7.031
   578   1 h        0.803     0.367     0.550     1.165
   579   1 h        0.805     0.312     0.686     1.301
   580   8 o        1.604    -0.682    27.245     7.045
   581   1 h        0.806     0.308     0.697     1.312
   582   1 h        0.800     0.362     0.562     1.178
   583   8 o        1.605    -0.712    28.046     7.147
   584   1 h        0.804     0.334     0.627     1.244
   585   1 h        0.802     0.366     0.552     1.168
   586   8 o        1.606    -0.703    27.779     7.113
   587   1 h        0.805     0.320     0.663     1.279
   588   1 h        0.802     0.357     0.573     1.189
   589   8 o        1.607    -0.679    27.160     7.034
   590   1 h        0.804     0.338     0.617     1.234
   591   1 h        0.803     0.355     0.577     1.193
   592   8 o        1.607    -0.673    26.999     7.013
   593   1 h        0.803     0.337     0.621     1.238
   594   1 h        0.804     0.349     0.592     1.208
   595   8 o        1.609    -0.675    27.043     7.019
   596   1 h        0.805     0.326     0.647     1.264
   597   1 h        0.805     0.329     0.641     1.258
   598   8 o        1.610    -0.655    26.532     6.952
   599   1 h        0.805     0.334     0.627     1.244
   600   1 h        0.805     0.327     0.645     1.261
   601   8 o        1.607    -0.688    27.396     7.064
   602   1 h        0.802     0.362     0.560     1.176
   603   1 h        0.805     0.311     0.687     1.302
   604   8 o        1.609    -0.652    26.464     6.943
   605   1 h        0.803     0.356     0.574     1.190
   606   1 h        0.805     0.321     0.661     1.277
   607   8 o        1.609    -0.643    26.227     6.912
   608   1 h        0.805     0.322     0.659     1.275
   609   1 h        0.804     0.341     0.610     1.227
   610   8 o        1.608    -0.673    26.991     7.012
   611   1 h        0.806     0.309     0.695     1.310
   612   1 h        0.802     0.363     0.560     1.176
   613   8 o        1.609    -0.675    27.052     7.020
   614   1 h        0.804     0.339     0.615     1.232
   615   1 h        0.804     0.345     0.600     1.217
   616   8 o        1.605    -0.709    27.944     7.134
   617   1 h        0.802     0.327     0.644     1.261
   618   1 h        0.803     0.360     0.566     1.182
   619   8 o        1.609    -0.684    27.290     7.051
   620   1 h        0.805     0.333     0.630     1.246
   621   1 h        0.804     0.345     0.600     1.217
   622   8 o        1.607    -0.681    27.220     7.041
   623   1 h        0.804     0.343     0.605     1.222
   624   1 h        0.803     0.322     0.660     1.276
   625   8 o        1.608    -0.680    27.181     7.036
   626   1 h        0.803     0.349     0.591     1.208
   627   1 h        0.805     0.316     0.674     1.290
   628   8 o        1.606    -0.706    27.880     7.126
   629   1 h        0.803     0.356     0.575     1.191
   630   1 h        0.804     0.349     0.590     1.206
   631   8 o        1.605    -0.702    27.763     7.111
   632   1 h        0.804     0.337     0.619     1.236
   633   1 h        0.803     0.359     0.569     1.185
   634   8 o        1.607    -0.676    27.088     7.024
   635   1 h        0.804     0.338     0.617     1.234
   636   1 h        0.803     0.336     0.622     1.239
   637   8 o        1.607    -0.687    27.361     7.060
   638   1 h        0.803     0.358     0.570     1.186
   639   1 h        0.802     0.329     0.640     1.257
   640   8 o        1.606    -0.683    27.271     7.048
   641   1 h        0.802     0.363     0.559     1.175
   642   1 h        0.804     0.321     0.661     1.277
   643   8 o        1.608    -0.669    26.908     7.001
   644   1 h        0.803     0.343     0.604     1.221
   645   1 h        0.805     0.327     0.645     1.262
   646   8 o        1.610    -0.654    26.508     6.949
   647   1 h        0.804     0.348     0.592     1.209
   648   1 h        0.806     0.315     0.677     1.292
   649   8 o        1.607    -0.673    26.998     7.013
   650   1 h        0.802     0.353     0.582     1.198
   651   1 h        0.806     0.315     0.676     1.292
   652   8 o        1.609    -0.655    26.535     6.952
   653   1 h        0.804     0.329     0.639     1.256
   654   1 h        0.804     0.335     0.625     1.242
   655   8 o        1.609    -0.669    26.905     7.001
   656   1 h        0.804     0.349     0.591     1.207
   657   1 h        0.804     0.361     0.564     1.180
   658   8 o        1.609    -0.653    26.492     6.947
   659   1 h        0.804     0.352     0.584     1.200
   660   1 h        0.806     0.320     0.664     1.280
   661   8 o        1.609    -0.683    27.249     7.045
   662   1 h        0.804     0.346     0.598     1.215
   663   1 h        0.805     0.333     0.631     1.248
   664   8 o        1.610    -0.672    26.964     7.008
   665   1 h        0.805     0.330     0.636     1.253
   666   1 h        0.805     0.332     0.633     1.249
   667   8 o        1.607    -0.693    27.521     7.080
   668   1 h        0.804     0.320     0.664     1.280
   669   1 h        0.804     0.356     0.575     1.191
   670   8 o        1.608    -0.673    27.001     7.013
   671   1 h        0.804     0.324     0.652     1.269
   672   1 h        0.804     0.343     0.605     1.221
   673   8 o        1.608    -0.675    27.058     7.020
   674   1 h        0.803     0.336     0.623     1.240
   675   1 h        0.805     0.336     0.622     1.239
   676   8 o        1.607    -0.666    26.821     6.990
   677   1 h        0.803     0.338     0.617     1.234
   678   1 h        0.804     0.334     0.627     1.244
   679   8 o        1.608    -0.661    26.685     6.972
   680   1 h        0.805     0.328     0.643     1.259
   681   1 h        0.803     0.338     0.616     1.233
   682   8 o        1.607    -0.671    26.951     7.007
   683   1 h        0.803     0.349     0.591     1.207
   684   1 h        0.804     0.326     0.647     1.264
   685   8 o        1.609    -0.653    26.501     6.948
   686   1 h        0.804     0.338     0.616     1.233
   687   1 h        0.805     0.336     0.621     1.238
   688   8 o        1.609    -0.676    27.071     7.022
   689   1 h        0.805     0.326     0.647     1.264
   690   1 h        0.804     0.347     0.595     1.211
   691   8 o        1.608    -0.693    27.522     7.080
   692   1 h        0.804     0.342     0.607     1.224
   693   1 h        0.805     0.329     0.641     1.257
   694   8 o        1.604    -0.677    27.097     7.025
   695   1 h        0.805     0.306     0.703     1.317
   696   1 h        0.800     0.361     0.565     1.181
   697   8 o        1.608    -0.688    27.388     7.063
   698   1 h        0.804     0.322     0.658     1.274
   699   1 h        0.804     0.334     0.628     1.244
   700   8 o        1.608    -0.696    27.607     7.091
   701   1 h        0.804     0.337     0.619     1.236
   702   1 h        0.804     0.335     0.626     1.243
   703   8 o        1.608    -0.667    26.854     6.994
   704   1 h        0.802     0.351     0.586     1.203
   705   1 h        0.805     0.341     0.609     1.226
   706   8 o        1.609    -0.683    27.259     7.047
   707   1 h        0.804     0.342     0.607     1.224
   708   1 h        0.804     0.330     0.638     1.255
   709   8 o        1.607    -0.660    26.671     6.970
   710   1 h        0.802     0.338     0.617     1.234
   711   1 h        0.805     0.327     0.645     1.261
   712   8 o        1.607    -0.679    27.171     7.035
   713   1 h        0.805     0.328     0.642     1.259
   714   1 h        0.802     0.349     0.590     1.207
   715   8 o        1.606    -0.649    26.392     6.934
   716   1 h        0.806     0.310     0.691     1.306
   717   1 h        0.801     0.344     0.603     1.220
   718   8 o        1.609    -0.677    27.107     7.027
   719   1 h        0.805     0.330     0.637     1.254
   720   1 h        0.803     0.345     0.601     1.218
   721   8 o        1.607    -0.685    27.322     7.055
   722   1 h        0.804     0.346     0.598     1.215
   723   1 h        0.803     0.326     0.649     1.266
   724   8 o        1.607    -0.677    27.107     7.027
   725   1 h        0.804     0.331     0.634     1.250
   726   1 h        0.803     0.330     0.638     1.255
   727   8 o        1.608    -0.687    27.362     7.060
   728   1 h        0.804     0.343     0.605     1.222
   729   1 h        0.803     0.339     0.615     1.232
   730   8 o        1.608    -0.683    27.272     7.048
   731   1 h        0.805     0.328     0.642     1.258
   732   1 h        0.803     0.344     0.602     1.219
   733   8 o        1.608    -0.679    27.159     7.034
   734   1 h        0.804     0.342     0.607     1.224
   735   1 h        0.804     0.326     0.648     1.264
   736   8 o        1.607    -0.683    27.271     7.048
   737   1 h        0.802     0.363     0.559     1.175
   738   1 h        0.805     0.313     0.682     1.297
   739   8 o        1.607    -0.673    27.011     7.014
   740   1 h        0.804     0.326     0.648     1.265
   741   1 h        0.804     0.337     0.619     1.236
   742   8 o        1.609    -0.657    26.588     6.959
   743   1 h        0.803     0.360     0.565     1.181
   744   1 h        0.806     0.318     0.670     1.286
   745   8 o        1.608    -0.662    26.710     6.975
   746   1 h        0.804     0.360     0.566     1.182
   747   1 h        0.804     0.339     0.614     1.231
   748   8 o        1.607    -0.694    27.543     7.083
   749   1 h        0.803     0.347     0.594     1.211
   750   1 h        0.803     0.360     0.566     1.182
   751   8 o        1.609    -0.654    26.513     6.950
   752   1 h        0.805     0.329     0.640     1.257
   753   1 h        0.805     0.340     0.612     1.229
   754   8 o        1.611    -0.651    26.432     6.939
   755   1 h        0.805     0.333     0.630     1.247
   756   1 h        0.806     0.304     0.709     1.322

 Mol. C6AA /au·bohr⁶  :    2899394.614640
 Mol. C8AA /au·bohr⁸  :   52607031.810907
 Mol. α(0) /au        :       2393.084102


Wiberg/Mayer (AO) data.
largest (>0.10) Wiberg bond orders for each atom

 ---------------------------------------------------------------------------
     #   Z sym  total        # sym  WBO       # sym  WBO       # sym  WBO
 ---------------------------------------------------------------------------
     1   8 o    1.855 --     3 h    0.860     2 h    0.810
     2   1 h    0.882 --     1 o    0.810
     3   1 h    0.891 --     1 o    0.860
     4   8 o    1.802 --     6 h    0.832     5 h    0.816
     5   1 h    0.888 --     4 o    0.816
     6   1 h    0.887 --     4 o    0.832
     7   8 o    1.827 --     9 h    0.835     8 h    0.813
     8   1 h    0.879 --     7 o    0.813
     9   1 h    0.888 --     7 o    0.835
    10   8 o    1.854 --    11 h    0.815    12 h    0.809
    11   1 h    0.878 --    10 o    0.815
    12   1 h    0.880 --    10 o    0.809
    13   8 o    1.789 --    15 h    0.866    14 h    0.826
    14   1 h    0.888 --    13 o    0.826
    15   1 h    0.894 --    13 o    0.866
    16   8 o    1.868 --    17 h    0.840    18 h    0.785
    17   1 h    0.886 --    16 o    0.840
    18   1 h    0.871 --    16 o    0.785
    19   8 o    1.827 --    21 h    0.845    20 h    0.824
    20   1 h    0.881 --    19 o    0.824
    21   1 h    0.898 --    19 o    0.845
    22   8 o    1.859 --    23 h    0.819    24 h    0.806
    23   1 h    0.880 --    22 o    0.819
    24   1 h    0.881 --    22 o    0.806
    25   8 o    1.868 --    26 h    0.827    27 h    0.804
    26   1 h    0.883 --    25 o    0.827
    27   1 h    0.881 --    25 o    0.804
    28   8 o    1.837 --    30 h    0.833    29 h    0.777
    29   1 h    0.874 --    28 o    0.777
    30   1 h    0.874 --    28 o    0.833
    31   8 o    1.841 --    33 h    0.811    32 h    0.797
    32   1 h    0.877 --    31 o    0.797
    33   1 h    0.878 --    31 o    0.811
    34   8 o    1.867 --    35 h    0.824    36 h    0.816
    35   1 h    0.878 --    34 o    0.824
    36   1 h    0.874 --    34 o    0.816
    37   8 o    1.847 --    38 h    0.832    39 h    0.807
    38   1 h    0.889 --    37 o    0.832
    39   1 h    0.872 --    37 o    0.807
    40   8 o    1.819 --    41 h    0.853    42 h    0.813
    41   1 h    0.889 --    40 o    0.853
    42   1 h    0.877 --    40 o    0.813
    43   8 o    1.866 --    44 h    0.811    45 h    0.805   248 h    0.102
    44   1 h    0.882 --    43 o    0.811
    45   1 h    0.878 --    43 o    0.805
    46   8 o    1.835 --    47 h    0.863    48 h    0.846
    47   1 h    0.889 --    46 o    0.863
    48   1 h    0.883 --    46 o    0.846
    49   8 o    1.857 --    51 h    0.873    50 h    0.797
    50   1 h    0.879 --    49 o    0.797
    51   1 h    0.893 --    49 o    0.873
    52   8 o    1.837 --    53 h    0.865    54 h    0.837
    53   1 h    0.893 --    52 o    0.865
    54   1 h    0.884 --    52 o    0.837
    55   8 o    1.863 --    57 h    0.822    56 h    0.813
    56   1 h    0.879 --    55 o    0.813
    57   1 h    0.884 --    55 o    0.822
    58   8 o    1.877 --    60 h    0.815    59 h    0.808
    59   1 h    0.882 --    58 o    0.808
    60   1 h    0.885 --    58 o    0.815
    61   8 o    1.848 --    62 h    0.833    63 h    0.826
    62   1 h    0.886 --    61 o    0.833
    63   1 h    0.883 --    61 o    0.826
    64   8 o    1.870 --    66 h    0.843    65 h    0.792
    65   1 h    0.871 --    64 o    0.792
    66   1 h    0.885 --    64 o    0.843
    67   8 o    1.807 --    68 h    0.840    69 h    0.820
    68   1 h    0.887 --    67 o    0.840
    69   1 h    0.888 --    67 o    0.820
    70   8 o    1.827 --    71 h    0.853    72 h    0.847
    71   1 h    0.893 --    70 o    0.853
    72   1 h    0.894 --    70 o    0.847
    73   8 o    1.827 --    75 h    0.889    74 h    0.836
    74   1 h    0.879 --    73 o    0.836
    75   1 h    0.896 --    73 o    0.889
    76   8 o    1.855 --    78 h    0.826    77 h    0.779
    77   1 h    0.875 --    76 o    0.779
    78   1 h    0.880 --    76 o    0.826
    79   8 o    1.891 --    81 h    0.805    80 h    0.784
    80   1 h    0.866 --    79 o    0.784
    81   1 h    0.878 --    79 o    0.805
    82   8 o    1.838 --    84 h    0.799    83 h    0.784
    83   1 h    0.873 --    82 o    0.784
    84   1 h    0.868 --    82 o    0.799
    85   8 o    1.836 --    87 h    0.845    86 h    0.836
    86   1 h    0.886 --    85 o    0.836
    87   1 h    0.882 --    85 o    0.845
    88   8 o    1.825 --    89 h    0.823    90 h    0.790
    89   1 h    0.884 --    88 o    0.823
    90   1 h    0.876 --    88 o    0.790
    91   8 o    1.864 --    93 h    0.820    92 h    0.800
    92   1 h    0.882 --    91 o    0.800
    93   1 h    0.894 --    91 o    0.820
    94   8 o    1.899 --    96 h    0.854    95 h    0.796
    95   1 h    0.870 --    94 o    0.796
    96   1 h    0.879 --    94 o    0.854
    97   8 o    1.862 --    98 h    0.820    99 h    0.815
    98   1 h    0.880 --    97 o    0.820
    99   1 h    0.879 --    97 o    0.815
   100   8 o    1.837 --   101 h    0.825   102 h    0.805
   101   1 h    0.893 --   100 o    0.825
   102   1 h    0.873 --   100 o    0.805
   103   8 o    1.839 --   104 h    0.818   105 h    0.800
   104   1 h    0.883 --   103 o    0.818
   105   1 h    0.881 --   103 o    0.800
   106   8 o    1.890 --   107 h    0.851   108 h    0.842
   107   1 h    0.886 --   106 o    0.851
   108   1 h    0.888 --   106 o    0.842
   109   8 o    1.858 --   111 h    0.827   110 h    0.805
   110   1 h    0.872 --   109 o    0.805
   111   1 h    0.892 --   109 o    0.827
   112   8 o    1.851 --   113 h    0.847   114 h    0.828
   113   1 h    0.896 --   112 o    0.847
   114   1 h    0.882 --   112 o    0.828
   115   8 o    1.855 --   116 h    0.861   117 h    0.842
   116   1 h    0.894 --   115 o    0.861
   117   1 h    0.875 --   115 o    0.842
   118   8 o    1.883 --   120 h    0.818   119 h    0.786
   119   1 h    0.872 --   118 o    0.786
   120   1 h    0.884 --   118 o    0.818
   121   8 o    1.871 --   122 h    0.817   123 h    0.811
   122   1 h    0.883 --   121 o    0.817
   123   1 h    0.880 --   121 o    0.811
   124   8 o    1.797 --   126 h    0.814   125 h    0.807
   125   1 h    0.875 --   124 o    0.807
   126   1 h    0.883 --   124 o    0.814
   127   8 o    1.824 --   129 h    0.849   128 h    0.828
   128   1 h    0.889 --   127 o    0.828
   129   1 h    0.888 --   127 o    0.849
   130   8 o    1.868 --   132 h    0.825   131 h    0.806
   131   1 h    0.881 --   130 o    0.806
   132   1 h    0.876 --   130 o    0.825
   133   8 o    1.860 --   134 h    0.846   135 h    0.816
   134   1 h    0.897 --   133 o    0.846
   135   1 h    0.878 --   133 o    0.816
   136   8 o    1.861 --   137 h    0.839   138 h    0.809
   137   1 h    0.892 --   136 o    0.839
   138   1 h    0.878 --   136 o    0.809
   139   8 o    1.877 --   140 h    0.818   141 h    0.804
   140   1 h    0.888 --   139 o    0.818
   141   1 h    0.878 --   139 o    0.804
   142   8 o    1.859 --   143 h    0.883   144 h    0.848
   143   1 h    0.896 --   142 o    0.883
   144   1 h    0.888 --   142 o    0.848
   145   8 o    1.832 --   147 h    0.873   146 h    0.818
   146   1 h    0.878 --   145 o    0.818
   147   1 h    0.893 --   145 o    0.873
   148   8 o    1.858 --   150 h    0.823   149 h    0.804
   149   1 h    0.872 --   148 o    0.804
   150   1 h    0.877 --   148 o    0.823
   151   8 o    1.879 --   153 h    0.804   152 h    0.792
   152   1 h    0.872 --   151 o    0.792
   153   1 h    0.882 --   151 o    0.804
   154   8 o    1.822 --   156 h    0.827   155 h    0.809
   155   1 h    0.890 --   154 o    0.809
   156   1 h    0.889 --   154 o    0.827
   157   8 o    1.859 --   158 h    0.843   159 h    0.815
   158   1 h    0.884 --   157 o    0.843
   159   1 h    0.873 --   157 o    0.815
   160   8 o    1.825 --   161 h    0.852   162 h    0.838
   161   1 h    0.887 --   160 o    0.852
   162   1 h    0.881 --   160 o    0.838
   163   8 o    1.860 --   164 h    0.856   165 h    0.811
   164   1 h    0.885 --   163 o    0.856
   165   1 h    0.871 --   163 o    0.811
   166   8 o    1.882 --   168 h    0.792   167 h    0.780
   167   1 h    0.874 --   166 o    0.780
   168   1 h    0.871 --   166 o    0.792
   169   8 o    1.856 --   170 h    0.846   171 h    0.814
   170   1 h    0.889 --   169 o    0.846
   171   1 h    0.882 --   169 o    0.814
   172   8 o    1.835 --   174 h    0.829   173 h    0.811
   173   1 h    0.873 --   172 o    0.811
   174   1 h    0.897 --   172 o    0.829
   175   8 o    1.848 --   177 h    0.838   176 h    0.806
   176   1 h    0.867 --   175 o    0.806
   177   1 h    0.877 --   175 o    0.838
   178   8 o    1.826 --   179 h    0.823   180 h    0.814
   179   1 h    0.891 --   178 o    0.823
   180   1 h    0.882 --   178 o    0.814
   181   8 o    1.861 --   182 h    0.825   183 h    0.808
   182   1 h    0.888 --   181 o    0.825
   183   1 h    0.875 --   181 o    0.808
   184   8 o    1.829 --   186 h    0.875   185 h    0.827
   185   1 h    0.881 --   184 o    0.827
   186   1 h    0.896 --   184 o    0.875
   187   8 o    1.873 --   189 h    0.844   188 h    0.795
   188   1 h    0.872 --   187 o    0.795
   189   1 h    0.881 --   187 o    0.844
   190   8 o    1.851 --   192 h    0.800   191 h    0.795
   191   1 h    0.869 --   190 o    0.795
   192   1 h    0.884 --   190 o    0.800
   193   8 o    1.848 --   195 h    0.874   194 h    0.832
   194   1 h    0.883 --   193 o    0.832
   195   1 h    0.892 --   193 o    0.874
   196   8 o    1.830 --   197 h    0.828   198 h    0.820
   197   1 h    0.880 --   196 o    0.828
   198   1 h    0.888 --   196 o    0.820
   199   8 o    1.835 --   200 h    0.842   201 h    0.779
   200   1 h    0.882 --   199 o    0.842
   201   1 h    0.874 --   199 o    0.779
   202   8 o    1.859 --   203 h    0.836   204 h    0.832
   203   1 h    0.879 --   202 o    0.836
   204   1 h    0.890 --   202 o    0.832
   205   8 o    1.834 --   207 h    0.887   206 h    0.796
   206   1 h    0.869 --   205 o    0.796
   207   1 h    0.901 --   205 o    0.887
   208   8 o    1.861 --   209 h    0.893   210 h    0.786
   209   1 h    0.902 --   208 o    0.893
   210   1 h    0.864 --   208 o    0.786
   211   8 o    1.834 --   212 h    0.847   213 h    0.846
   212   1 h    0.888 --   211 o    0.847
   213   1 h    0.884 --   211 o    0.846
   214   8 o    1.823 --   216 h    0.822   215 h    0.815
   215   1 h    0.878 --   214 o    0.815
   216   1 h    0.880 --   214 o    0.822
   217   8 o    1.856 --   219 h    0.816   218 h    0.804
   218   1 h    0.881 --   217 o    0.804
   219   1 h    0.883 --   217 o    0.816
   220   8 o    1.834 --   221 h    0.838   222 h    0.813
   221   1 h    0.895 --   220 o    0.838
   222   1 h    0.881 --   220 o    0.813
   223   8 o    1.855 --   225 h    0.860   224 h    0.836
   224   1 h    0.871 --   223 o    0.836
   225   1 h    0.891 --   223 o    0.860
   226   8 o    1.866 --   227 h    0.843   228 h    0.836
   227   1 h    0.885 --   226 o    0.843
   228   1 h    0.884 --   226 o    0.836
   229   8 o    1.814 --   231 h    0.862   230 h    0.845
   230   1 h    0.892 --   229 o    0.845
   231   1 h    0.890 --   229 o    0.862
   232   8 o    1.830 --   234 h    0.847   233 h    0.835
   233   1 h    0.886 --   232 o    0.835
   234   1 h    0.888 --   232 o    0.847
   235   8 o    1.877 --   236 h    0.826   237 h    0.797
   236   1 h    0.894 --   235 o    0.826
   237   1 h    0.874 --   235 o    0.797
   238   8 o    1.858 --   240 h    0.796   239 h    0.788
   239   1 h    0.881 --   238 o    0.788
   240   1 h    0.872 --   238 o    0.796
   241   8 o    1.834 --   243 h    0.871   242 h    0.840
   242   1 h    0.883 --   241 o    0.840
   243   1 h    0.893 --   241 o    0.871
   244   8 o    1.841 --   246 h    0.859   245 h    0.835
   245   1 h    0.885 --   244 o    0.835
   246   1 h    0.892 --   244 o    0.859
   247   8 o    1.830 --   249 h    0.831   248 h    0.760
   248   1 h    0.874 --   247 o    0.760    43 o    0.102
   249   1 h    0.888 --   247 o    0.831
   250   8 o    1.805 --   252 h    0.865   251 h    0.847
   251   1 h    0.891 --   250 o    0.847
   252   1 h    0.889 --   250 o    0.865
   253   8 o    1.863 --   254 h    0.828   255 h    0.827
   254   1 h    0.879 --   253 o    0.828
   255   1 h    0.884 --   253 o    0.827
   256   8 o    1.837 --   258 h    0.868   257 h    0.822
   257   1 h    0.874 --   256 o    0.822
   258   1 h    0.898 --   256 o    0.868
   259   8 o    1.813 --   261 h    0.862   260 h    0.842
   260   1 h    0.881 --   259 o    0.842
   261   1 h    0.893 --   259 o    0.862
   262   8 o    1.850 --   263 h    0.826   264 h    0.810
   263   1 h    0.880 --   262 o    0.826
   264   1 h    0.882 --   262 o    0.810
   265   8 o    1.804 --   266 h    0.894   267 h    0.755
   266   1 h    0.905 --   265 o    0.894
   267   1 h    0.864 --   265 o    0.755   655 o    0.100
   268   8 o    1.838 --   270 h    0.865   269 h    0.841
   269   1 h    0.883 --   268 o    0.841
   270   1 h    0.891 --   268 o    0.865
   271   8 o    1.858 --   273 h    0.828   272 h    0.792
   272   1 h    0.869 --   271 o    0.792
   273   1 h    0.885 --   271 o    0.828
   274   8 o    1.835 --   276 h    0.845   275 h    0.817
   275   1 h    0.881 --   274 o    0.817
   276   1 h    0.893 --   274 o    0.845
   277   8 o    1.876 --   279 h    0.878   278 h    0.777
   278   1 h    0.866 --   277 o    0.777
   279   1 h    0.894 --   277 o    0.878
   280   8 o    1.880 --   282 h    0.823   281 h    0.822
   281   1 h    0.879 --   280 o    0.822
   282   1 h    0.886 --   280 o    0.823
   283   8 o    1.841 --   285 h    0.882   284 h    0.784
   284   1 h    0.873 --   283 o    0.784
   285   1 h    0.902 --   283 o    0.882
   286   8 o    1.823 --   287 h    0.878   288 h    0.791
   287   1 h    0.902 --   286 o    0.878
   288   1 h    0.866 --   286 o    0.791
   289   8 o    1.829 --   290 h    0.875   291 h    0.806
   290   1 h    0.899 --   289 o    0.875
   291   1 h    0.867 --   289 o    0.806
   292   8 o    1.816 --   293 h    0.878   294 h    0.847
   293   1 h    0.896 --   292 o    0.878
   294   1 h    0.883 --   292 o    0.847
   295   8 o    1.841 --   297 h    0.855   296 h    0.811
   296   1 h    0.871 --   295 o    0.811
   297   1 h    0.891 --   295 o    0.855
   298   8 o    1.855 --   299 h    0.842   300 h    0.839
   299   1 h    0.897 --   298 o    0.842
   300   1 h    0.880 --   298 o    0.839
   301   8 o    1.832 --   303 h    0.868   302 h    0.795
   302   1 h    0.870 --   301 o    0.795
   303   1 h    0.900 --   301 o    0.868
   304   8 o    1.825 --   306 h    0.881   305 h    0.815
   305   1 h    0.872 --   304 o    0.815
   306   1 h    0.897 --   304 o    0.881
   307   8 o    1.876 --   308 h    0.855   309 h    0.796
   308   1 h    0.885 --   307 o    0.855
   309   1 h    0.873 --   307 o    0.796
   310   8 o    1.877 --   311 h    0.836   312 h    0.831
   311   1 h    0.885 --   310 o    0.836
   312   1 h    0.888 --   310 o    0.831
   313   8 o    1.873 --   314 h    0.840   315 h    0.814
   314   1 h    0.887 --   313 o    0.840
   315   1 h    0.871 --   313 o    0.814
   316   8 o    1.822 --   317 h    0.887   318 h    0.812
   317   1 h    0.899 --   316 o    0.887
   318   1 h    0.885 --   316 o    0.812
   319   8 o    1.838 --   320 h    0.853   321 h    0.804
   320   1 h    0.893 --   319 o    0.853
   321   1 h    0.879 --   319 o    0.804
   322   8 o    1.846 --   323 h    0.813   324 h    0.813
   323   1 h    0.886 --   322 o    0.813
   324   1 h    0.882 --   322 o    0.813
   325   8 o    1.827 --   326 h    0.873   327 h    0.774
   326   1 h    0.897 --   325 o    0.873
   327   1 h    0.870 --   325 o    0.774
   328   8 o    1.881 --   329 h    0.827   330 h    0.826
   329   1 h    0.882 --   328 o    0.827
   330   1 h    0.868 --   328 o    0.826
   331   8 o    1.829 --   332 h    0.864   333 h    0.839
   332   1 h    0.889 --   331 o    0.864
   333   1 h    0.880 --   331 o    0.839
   334   8 o    1.862 --   335 h    0.835   336 h    0.802
   335   1 h    0.895 --   334 o    0.835
   336   1 h    0.874 --   334 o    0.802
   337   8 o    1.859 --   338 h    0.825   339 h    0.811
   338   1 h    0.877 --   337 o    0.825
   339   1 h    0.876 --   337 o    0.811
   340   8 o    1.809 --   342 h    0.864   341 h    0.803
   341   1 h    0.877 --   340 o    0.803
   342   1 h    0.897 --   340 o    0.864
   343   8 o    1.901 --   345 h    0.829   344 h    0.822   582 h    0.100
   344   1 h    0.885 --   343 o    0.822
   345   1 h    0.883 --   343 o    0.829
   346   8 o    1.862 --   348 h    0.820   347 h    0.794
   347   1 h    0.873 --   346 o    0.794
   348   1 h    0.886 --   346 o    0.820
   349   8 o    1.822 --   350 h    0.839   351 h    0.832
   350   1 h    0.895 --   349 o    0.839
   351   1 h    0.896 --   349 o    0.832
   352   8 o    1.825 --   353 h    0.860   354 h    0.821
   353   1 h    0.896 --   352 o    0.860
   354   1 h    0.878 --   352 o    0.821
   355   8 o    1.849 --   357 h    0.889   356 h    0.818
   356   1 h    0.881 --   355 o    0.818
   357   1 h    0.899 --   355 o    0.889
   358   8 o    1.839 --   359 h    0.831   360 h    0.817
   359   1 h    0.890 --   358 o    0.831
   360   1 h    0.879 --   358 o    0.817
   361   8 o    1.836 --   362 h    0.841   363 h    0.839
   362   1 h    0.884 --   361 o    0.841
   363   1 h    0.881 --   361 o    0.839
[...]
   370   8 o    1.817 --   372 h    0.858   371 h    0.831
   371   1 h    0.882 --   370 o    0.831
   372   1 h    0.894 --   370 o    0.858
   373   8 o    1.813 --   375 h    0.897   374 h    0.793
   374   1 h    0.874 --   373 o    0.793
   375   1 h    0.903 --   373 o    0.897
   376   8 o    1.853 --   377 h    0.849   378 h    0.799
   377   1 h    0.896 --   376 o    0.849
   378   1 h    0.868 --   376 o    0.799
   379   8 o    1.858 --   380 h    0.820   381 h    0.816
   380   1 h    0.881 --   379 o    0.820
   381   1 h    0.893 --   379 o    0.816
   382   8 o    1.888 --   384 h    0.832   383 h    0.802
   383   1 h    0.877 --   382 o    0.802
   384   1 h    0.892 --   382 o    0.832
   385   8 o    1.809 --   386 h    0.894   387 h    0.784
   386   1 h    0.903 --   385 o    0.894
   387   1 h    0.871 --   385 o    0.784
   388   8 o    1.883 --   390 h    0.829   389 h    0.812
   389   1 h    0.870 --   388 o    0.812
   390   1 h    0.882 --   388 o    0.829
   391   8 o    1.845 --   393 h    0.850   392 h    0.809
   392   1 h    0.865 --   391 o    0.809
   393   1 h    0.892 --   391 o    0.850
   394   8 o    1.852 --   396 h    0.847   395 h    0.816
   395   1 h    0.877 --   394 o    0.816
   396   1 h    0.893 --   394 o    0.847
   397   8 o    1.811 --   398 h    0.837   399 h    0.816
   398   1 h    0.891 --   397 o    0.837
   399   1 h    0.887 --   397 o    0.816
   400   8 o    1.852 --   402 h    0.897   401 h    0.805
   401   1 h    0.879 --   400 o    0.805
   402   1 h    0.903 --   400 o    0.897
   403   8 o    1.850 --   404 h    0.825   405 h    0.803
   404   1 h    0.886 --   403 o    0.825
   405   1 h    0.877 --   403 o    0.803
   406   8 o    1.852 --   407 h    0.809   408 h    0.795
   407   1 h    0.878 --   406 o    0.809
   408   1 h    0.872 --   406 o    0.795
   409   8 o    1.867 --   410 h    0.809   411 h    0.794
   410   1 h    0.886 --   409 o    0.809
   411   1 h    0.865 --   409 o    0.794
   412   8 o    1.849 --   414 h    0.819   413 h    0.775
   413   1 h    0.875 --   412 o    0.775
   414   1 h    0.873 --   412 o    0.819
   415   8 o    1.821 --   416 h    0.874   417 h    0.803
   416   1 h    0.899 --   415 o    0.874
   417   1 h    0.880 --   415 o    0.803
   418   8 o    1.840 --   420 h    0.858   419 h    0.808
   419   1 h    0.869 --   418 o    0.808
   420   1 h    0.890 --   418 o    0.858
   421   8 o    1.853 --   423 h    0.847   422 h    0.788
   422   1 h    0.872 --   421 o    0.788
   423   1 h    0.888 --   421 o    0.847
   424   8 o    1.866 --   425 h    0.820   426 h    0.801
   425   1 h    0.893 --   424 o    0.820
   426   1 h    0.874 --   424 o    0.801
   427   8 o    1.843 --   429 h    0.819   428 h    0.798
   428   1 h    0.877 --   427 o    0.798
   429   1 h    0.891 --   427 o    0.819
   430   8 o    1.827 --   432 h    0.853   431 h    0.786
   431   1 h    0.863 --   430 o    0.786
   432   1 h    0.897 --   430 o    0.853
   433   8 o    1.826 --   434 h    0.869   435 h    0.796
   434   1 h    0.897 --   433 o    0.869
   435   1 h    0.869 --   433 o    0.796
   436   8 o    1.822 --   437 h    0.898   438 h    0.796
   437   1 h    0.907 --   436 o    0.898
   438   1 h    0.872 --   436 o    0.796
   439   8 o    1.829 --   441 h    0.868   440 h    0.788
   440   1 h    0.871 --   439 o    0.788
   441   1 h    0.896 --   439 o    0.868
   442   8 o    1.832 --   444 h    0.818   443 h    0.791
   443   1 h    0.875 --   442 o    0.791
   444   1 h    0.889 --   442 o    0.818
   445   8 o    1.815 --   446 h    0.893   447 h    0.795
   446   1 h    0.904 --   445 o    0.893
   447   1 h    0.874 --   445 o    0.795
   448   8 o    1.888 --   449 h    0.826   450 h    0.821
   449   1 h    0.880 --   448 o    0.826
   450   1 h    0.888 --   448 o    0.821
   451   8 o    1.839 --   453 h    0.850   452 h    0.844
   452   1 h    0.897 --   451 o    0.844
   453   1 h    0.895 --   451 o    0.850
   454   8 o    1.844 --   455 h    0.826   456 h    0.786
   455   1 h    0.881 --   454 o    0.826
   456   1 h    0.872 --   454 o    0.786
   457   8 o    1.845 --   458 h    0.834   459 h    0.796
   458   1 h    0.883 --   457 o    0.834
   459   1 h    0.878 --   457 o    0.796
   460   8 o    1.867 --   462 h    0.826   461 h    0.814
   461   1 h    0.866 --   460 o    0.814
   462   1 h    0.880 --   460 o    0.826
   463   8 o    1.830 --   464 h    0.876   465 h    0.799
   464   1 h    0.896 --   463 o    0.876
   465   1 h    0.875 --   463 o    0.799
   466   8 o    1.829 --   468 h    0.857   467 h    0.853
   467   1 h    0.882 --   466 o    0.853
   468   1 h    0.886 --   466 o    0.857
   469   8 o    1.860 --   470 h    0.835   471 h    0.815
   470   1 h    0.889 --   469 o    0.835
   471   1 h    0.872 --   469 o    0.815
   472   8 o    1.807 --   474 h    0.883   473 h    0.847
   473   1 h    0.882 --   472 o    0.847
   474   1 h    0.898 --   472 o    0.883
   475   8 o    1.828 --   476 h    0.836   477 h    0.813
   476   1 h    0.892 --   475 o    0.836
   477   1 h    0.878 --   475 o    0.813
   478   8 o    1.808 --   479 h    0.883   480 h    0.845
   479   1 h    0.897 --   478 o    0.883
   480   1 h    0.885 --   478 o    0.845
   481   8 o    1.825 --   482 h    0.857   483 h    0.842
   482   1 h    0.890 --   481 o    0.857
   483   1 h    0.888 --   481 o    0.842
   484   8 o    1.878 --   485 h    0.889   486 h    0.804
   485   1 h    0.900 --   484 o    0.889
   486   1 h    0.880 --   484 o    0.804
   487   8 o    1.794 --   489 h    0.854   488 h    0.849
   488   1 h    0.886 --   487 o    0.849
   489   1 h    0.893 --   487 o    0.854
   490   8 o    1.836 --   492 h    0.832   491 h    0.804
   491   1 h    0.884 --   490 o    0.804
   492   1 h    0.889 --   490 o    0.832
   493   8 o    1.835 --   494 h    0.874   495 h    0.810
   494   1 h    0.899 --   493 o    0.874
   495   1 h    0.888 --   493 o    0.810
   496   8 o    1.833 --   498 h    0.867   497 h    0.851
   497   1 h    0.885 --   496 o    0.851
   498   1 h    0.893 --   496 o    0.867
   499   8 o    1.838 --   500 h    0.846   501 h    0.800
   500   1 h    0.888 --   499 o    0.846
   501   1 h    0.882 --   499 o    0.800
   502   8 o    1.867 --   503 h    0.850   504 h    0.791
   503   1 h    0.894 --   502 o    0.850
   504   1 h    0.882 --   502 o    0.791
   505   8 o    1.841 --   507 h    0.853   506 h    0.840
   506   1 h    0.883 --   505 o    0.840
   507   1 h    0.889 --   505 o    0.853
   508   8 o    1.868 --   509 h    0.818   510 h    0.815
   509   1 h    0.877 --   508 o    0.818
   510   1 h    0.875 --   508 o    0.815
   511   8 o    1.804 --   512 h    0.870   513 h    0.867
   512   1 h    0.891 --   511 o    0.870
   513   1 h    0.889 --   511 o    0.867
   514   8 o    1.787 --   515 h    0.865   516 h    0.825
   515   1 h    0.893 --   514 o    0.865
   516   1 h    0.890 --   514 o    0.825
   517   8 o    1.832 --   518 h    0.873   519 h    0.867
   518   1 h    0.890 --   517 o    0.873
   519   1 h    0.887 --   517 o    0.867
   520   8 o    1.814 --   521 h    0.841   522 h    0.840
   521   1 h    0.887 --   520 o    0.841
   522   1 h    0.887 --   520 o    0.840
   523   8 o    1.830 --   525 h    0.895   524 h    0.802
   524   1 h    0.881 --   523 o    0.802
   525   1 h    0.905 --   523 o    0.895
   526   8 o    1.822 --   527 h    0.895   528 h    0.813
   527   1 h    0.902 --   526 o    0.895
   528   1 h    0.882 --   526 o    0.813
   529   8 o    1.815 --   531 h    0.837   530 h    0.837
   530   1 h    0.874 --   529 o    0.837
   531   1 h    0.891 --   529 o    0.837
   532   8 o    1.859 --   533 h    0.806   534 h    0.791
   533   1 h    0.889 --   532 o    0.806
   534   1 h    0.866 --   532 o    0.791
   535   8 o    1.862 --   536 h    0.821   537 h    0.815
   536   1 h    0.887 --   535 o    0.821
   537   1 h    0.881 --   535 o    0.815
   538   8 o    1.836 --   540 h    0.853   539 h    0.845
   539   1 h    0.886 --   538 o    0.845
   540   1 h    0.889 --   538 o    0.853
   541   8 o    1.815 --   543 h    0.868   542 h    0.834
   542   1 h    0.882 --   541 o    0.834
   543   1 h    0.893 --   541 o    0.868
   544   8 o    1.839 --   546 h    0.848   545 h    0.838
   545   1 h    0.880 --   544 o    0.838
   546   1 h    0.889 --   544 o    0.848
   547   8 o    1.842 --   549 h    0.852   548 h    0.833
   548   1 h    0.889 --   547 o    0.833
   549   1 h    0.886 --   547 o    0.852
   550   8 o    1.836 --   552 h    0.878   551 h    0.813
   551   1 h    0.883 --   550 o    0.813
   552   1 h    0.896 --   550 o    0.878
   553   8 o    1.837 --   554 h    0.886   555 h    0.795
   554   1 h    0.895 --   553 o    0.886
   555   1 h    0.881 --   553 o    0.795
   556   8 o    1.861 --   557 h    0.840   558 h    0.824
   557   1 h    0.896 --   556 o    0.840
   558   1 h    0.878 --   556 o    0.824
   559   8 o    1.878 --   561 h    0.814   560 h    0.787
   560   1 h    0.867 --   559 o    0.787
   561   1 h    0.888 --   559 o    0.814
   562   8 o    1.832 --   563 h    0.840   564 h    0.803
   563   1 h    0.898 --   562 o    0.840
   564   1 h    0.881 --   562 o    0.803
   565   8 o    1.879 --   566 h    0.814   567 h    0.810
   566   1 h    0.886 --   565 o    0.814
   567   1 h    0.867 --   565 o    0.810
   568   8 o    1.849 --   569 h    0.860   570 h    0.849
   569   1 h    0.888 --   568 o    0.860
   570   1 h    0.883 --   568 o    0.849
   571   8 o    1.838 --   573 h    0.811   572 h    0.788
   572   1 h    0.875 --   571 o    0.788
   573   1 h    0.878 --   571 o    0.811
   574   8 o    1.822 --   575 h    0.862   576 h    0.841
   575   1 h    0.892 --   574 o    0.862
   576   1 h    0.888 --   574 o    0.841
   577   8 o    1.833 --   579 h    0.886   578 h    0.786
   578   1 h    0.865 --   577 o    0.786
   579   1 h    0.903 --   577 o    0.886
   580   8 o    1.837 --   581 h    0.903   582 h    0.764
   581   1 h    0.905 --   580 o    0.903
   582   1 h    0.869 --   580 o    0.764   343 o    0.100
   583   8 o    1.838 --   584 h    0.837   585 h    0.771
   584   1 h    0.888 --   583 o    0.837
   585   1 h    0.866 --   583 o    0.771
   586   8 o    1.821 --   587 h    0.869   588 h    0.778
   587   1 h    0.897 --   586 o    0.869
   588   1 h    0.873 --   586 o    0.778
   589   8 o    1.889 --   590 h    0.838   591 h    0.791
   590   1 h    0.886 --   589 o    0.838
   591   1 h    0.874 --   589 o    0.791
   592   8 o    1.868 --   594 h    0.829   593 h    0.823
   593   1 h    0.887 --   592 o    0.823
   594   1 h    0.878 --   592 o    0.829
   595   8 o    1.805 --   596 h    0.858   597 h    0.852
   596   1 h    0.894 --   595 o    0.858
   597   1 h    0.892 --   595 o    0.852
   598   8 o    1.841 --   600 h    0.866   599 h    0.857
   599   1 h    0.888 --   598 o    0.857
   600   1 h    0.893 --   598 o    0.866
   601   8 o    1.815 --   603 h    0.879   602 h    0.790
   602   1 h    0.869 --   601 o    0.790
   603   1 h    0.903 --   601 o    0.879
   604   8 o    1.860 --   606 h    0.886   605 h    0.820
   605   1 h    0.873 --   604 o    0.820
   606   1 h    0.897 --   604 o    0.886
   607   8 o    1.860 --   608 h    0.876   609 h    0.836
   608   1 h    0.896 --   607 o    0.876
   609   1 h    0.884 --   607 o    0.836
   610   8 o    1.828 --   611 h    0.889   612 h    0.796
   611   1 h    0.905 --   610 o    0.889
   612   1 h    0.868 --   610 o    0.796
   613   8 o    1.844 --   614 h    0.856   615 h    0.826
   614   1 h    0.885 --   613 o    0.856
   615   1 h    0.881 --   613 o    0.826
   616   8 o    1.834 --   617 h    0.821   618 h    0.797
   617   1 h    0.893 --   616 o    0.821
   618   1 h    0.871 --   616 o    0.797
   619   8 o    1.823 --   620 h    0.854   621 h    0.831
   620   1 h    0.889 --   619 o    0.854
   621   1 h    0.881 --   619 o    0.831
   622   8 o    1.828 --   624 h    0.827   623 h    0.825
   623   1 h    0.882 --   622 o    0.825
   624   1 h    0.897 --   622 o    0.827
   625   8 o    1.812 --   627 h    0.878   626 h    0.804
   626   1 h    0.878 --   625 o    0.804
   627   1 h    0.900 --   625 o    0.878
   628   8 o    1.838 --   630 h    0.814   629 h    0.799
   629   1 h    0.873 --   628 o    0.799
   630   1 h    0.878 --   628 o    0.814
   631   8 o    1.862 --   632 h    0.831   633 h    0.768
   632   1 h    0.886 --   631 o    0.831
   633   1 h    0.871 --   631 o    0.768
   634   8 o    1.853 --   635 h    0.836   636 h    0.822
   635   1 h    0.886 --   634 o    0.836
   636   1 h    0.887 --   634 o    0.822
   637   8 o    1.860 --   639 h    0.822   638 h    0.814
   638   1 h    0.872 --   637 o    0.814
   639   1 h    0.892 --   637 o    0.822
   640   8 o    1.873 --   642 h    0.840   641 h    0.771
   641   1 h    0.868 --   640 o    0.771
   642   1 h    0.897 --   640 o    0.840
   643   8 o    1.836 --   645 h    0.865   644 h    0.825
   644   1 h    0.882 --   643 o    0.825
   645   1 h    0.893 --   643 o    0.865
   646   8 o    1.831 --   648 h    0.898   647 h    0.835
   647   1 h    0.879 --   646 o    0.835
   648   1 h    0.901 --   646 o    0.898
   649   8 o    1.836 --   651 h    0.892   650 h    0.786
   650   1 h    0.875 --   649 o    0.786
   651   1 h    0.900 --   649 o    0.892
   652   8 o    1.850 --   653 h    0.856   654 h    0.843
   653   1 h    0.891 --   652 o    0.856
   654   1 h    0.888 --   652 o    0.843
   655   8 o    1.898 --   656 h    0.837   657 h    0.811   267 h    0.100
   656   1 h    0.878 --   655 o    0.837
   657   1 h    0.870 --   655 o    0.811
   658   8 o    1.844 --   660 h    0.891   659 h    0.831
   659   1 h    0.876 --   658 o    0.831
   660   1 h    0.898 --   658 o    0.891
   661   8 o    1.817 --   663 h    0.845   662 h    0.826
   662   1 h    0.880 --   661 o    0.826
   663   1 h    0.889 --   661 o    0.845
   664   8 o    1.804 --   665 h    0.856   666 h    0.856
   665   1 h    0.891 --   664 o    0.856
   666   1 h    0.890 --   664 o    0.856
   667   8 o    1.823 --   668 h    0.844   669 h    0.821
   668   1 h    0.898 --   667 o    0.844
   669   1 h    0.873 --   667 o    0.821
   670   8 o    1.855 --   671 h    0.832   672 h    0.829
   671   1 h    0.895 --   670 o    0.832
   672   1 h    0.882 --   670 o    0.829
   673   8 o    1.841 --   675 h    0.847   674 h    0.821
   674   1 h    0.887 --   673 o    0.821
   675   1 h    0.887 --   673 o    0.847
   676   8 o    1.866 --   678 h    0.834   677 h    0.826
   677   1 h    0.886 --   676 o    0.826
   678   1 h    0.888 --   676 o    0.834
   679   8 o    1.850 --   680 h    0.859   681 h    0.822
   680   1 h    0.892 --   679 o    0.859
   681   1 h    0.885 --   679 o    0.822
   682   8 o    1.875 --   684 h    0.836   683 h    0.808
   683   1 h    0.878 --   682 o    0.808
   684   1 h    0.893 --   682 o    0.836
   685   8 o    1.857 --   686 h    0.853   687 h    0.851
   686   1 h    0.885 --   685 o    0.853
   687   1 h    0.887 --   685 o    0.851
   688   8 o    1.826 --   689 h    0.871   690 h    0.831
   689   1 h    0.894 --   688 o    0.871
   690   1 h    0.879 --   688 o    0.831
   691   8 o    1.807 --   693 h    0.861   692 h    0.820
   692   1 h    0.883 --   691 o    0.820
   693   1 h    0.892 --   691 o    0.861
   694   8 o    1.833 --   695 h    0.898   696 h    0.766
   695   1 h    0.906 --   694 o    0.898
   696   1 h    0.870 --   694 o    0.766
   697   8 o    1.787 --   699 h    0.848   698 h    0.847
   698   1 h    0.896 --   697 o    0.847
   699   1 h    0.889 --   697 o    0.848
   700   8 o    1.811 --   702 h    0.844   701 h    0.825
   701   1 h    0.886 --   700 o    0.825
   702   1 h    0.888 --   700 o    0.844
   703   8 o    1.871 --   705 h    0.865   704 h    0.800
   704   1 h    0.877 --   703 o    0.800
   705   1 h    0.884 --   703 o    0.865
   706   8 o    1.832 --   708 h    0.839   707 h    0.830
   707   1 h    0.883 --   706 o    0.830
   708   1 h    0.891 --   706 o    0.839
   709   8 o    1.860 --   711 h    0.869   710 h    0.814
   710   1 h    0.885 --   709 o    0.814
   711   1 h    0.893 --   709 o    0.869
   712   8 o    1.848 --   713 h    0.864   714 h    0.796
   713   1 h    0.892 --   712 o    0.864
   714   1 h    0.878 --   712 o    0.796
   715   8 o    1.868 --   716 h    0.900   717 h    0.797
   716   1 h    0.904 --   715 o    0.900
   717   1 h    0.882 --   715 o    0.797
   718   8 o    1.831 --   719 h    0.876   720 h    0.823
   719   1 h    0.891 --   718 o    0.876
   720   1 h    0.881 --   718 o    0.823
   721   8 o    1.848 --   723 h    0.829   722 h    0.812
   722   1 h    0.880 --   721 o    0.812
   723   1 h    0.894 --   721 o    0.829
   724   8 o    1.840 --   725 h    0.838   726 h    0.813
   725   1 h    0.890 --   724 o    0.838
   726   1 h    0.891 --   724 o    0.813
   727   8 o    1.839 --   728 h    0.843   729 h    0.829
   728   1 h    0.882 --   727 o    0.843
   729   1 h    0.885 --   727 o    0.829
   730   8 o    1.814 --   731 h    0.868   732 h    0.821
   731   1 h    0.892 --   730 o    0.868
   732   1 h    0.881 --   730 o    0.821
   733   8 o    1.834 --   735 h    0.838   734 h    0.831
   734   1 h    0.883 --   733 o    0.831
   735   1 h    0.894 --   733 o    0.838
   736   8 o    1.818 --   738 h    0.887   737 h    0.793
   737   1 h    0.868 --   736 o    0.793
   738   1 h    0.902 --   736 o    0.887
   739   8 o    1.847 --   740 h    0.843   741 h    0.832
   740   1 h    0.894 --   739 o    0.843
   741   1 h    0.886 --   739 o    0.832
   742   8 o    1.842 --   744 h    0.892   743 h    0.819
   743   1 h    0.870 --   742 o    0.819
   744   1 h    0.899 --   742 o    0.892
   745   8 o    1.897 --   747 h    0.833   746 h    0.828
   746   1 h    0.871 --   745 o    0.828
   747   1 h    0.885 --   745 o    0.833
   748   8 o    1.868 --   749 h    0.812   750 h    0.798
   749   1 h    0.879 --   748 o    0.812
   750   1 h    0.870 --   748 o    0.798
   751   8 o    1.827 --   752 h    0.866   753 h    0.850
   752   1 h    0.892 --   751 o    0.866
   753   1 h    0.884 --   751 o    0.850
   754   8 o    1.809 --   756 h    0.901   755 h    0.849
   755   1 h    0.889 --   754 o    0.849
   756   1 h    0.907 --   754 o    0.901
 ---------------------------------------------------------------------------

Topologies differ in total number of bonds
Writing topology from bond orders to xtbtopo.mol

molecular dipole:
                 x           y           z       tot (Debye)
 q only:       -0.732       1.086       2.170
   full:       -1.548       1.302       2.292       7.770
molecular quadrupole (traceless):
                xx          xy          yy          xz          yz          zz
 q only:      157.454     -21.650     -95.001      -6.227     -10.737     -62.453
  q+dip:      227.712       1.039    -122.443     -11.148      -7.230    -105.269
   full:      231.414       2.743    -124.533     -11.306      -7.529    -106.881


           -------------------------------------------------
          | TOTAL ENERGY            -1283.547309936132 Eh   |
          | GRADIENT NORM               0.127412915736 Eh/α |
          | HOMO-LUMO GAP               7.117174886111 eV   |
           -------------------------------------------------

------------------------------------------------------------------------
 * finished run on 2022/11/24 at 12:21:39.529     
------------------------------------------------------------------------
 total:
 * wall-time:     0 d,  0 h,  0 min, 22.842 sec
 *  cpu-time:     0 d,  0 h,  0 min, 37.196 sec
 * ratio c/w:     1.628 speedup
 SCF:
 * wall-time:     0 d,  0 h,  0 min, 21.836 sec
 *  cpu-time:     0 d,  0 h,  0 min, 35.486 sec
 * ratio c/w:     1.625 speedup

