      -----------------------------------------------------------      
     |                   =====================                   |     
     |                           x T B                           |     
     |                   =====================                   |     
     |                         S. Grimme                         |     
     |          Mulliken Center for Theoretical Chemistry        |     
     |                    University of Bonn                     |     
      -----------------------------------------------------------      

   * xtb version 6.5.1 (579679a) compiled by 'ehlert@majestix' on 2022-07-11

   xtb is free software: you can redistribute it and/or modify it under
   the terms of the GNU Lesser General Public License as published by
   the Free Software Foundation, either version 3 of the License, or
   (at your option) any later version.
   
   xtb is distributed in the hope that it will be useful,
   but WITHOUT ANY WARRANTY; without even the implied warranty of
   MERCHANTABILITY or FITNESS FOR A PARTICULAR PURPOSE.  See the
   GNU Lesser General Public License for more details.
   
   Cite this work as:
   * C. Bannwarth, E. Caldeweyher, S. Ehlert, A. Hansen, P. Pracht,
     J. Seibert, S. Spicher, S. Grimme, WIREs Comput. Mol. Sci., 2020, 11,
     e01493. DOI: 10.1002/wcms.1493
   
   for GFN2-xTB:
   * C. Bannwarth, S. Ehlert and S. Grimme., J. Chem. Theory Comput., 2019,
     15, 1652-1671. DOI: 10.1021/acs.jctc.8b01176
   for GFN1-xTB:
   * S. Grimme, C. Bannwarth, P. Shushkov, J. Chem. Theory Comput., 2017,
     13, 1989-2009. DOI: 10.1021/acs.jctc.7b00118
   for GFN0-xTB:
   * P. Pracht, E. Caldeweyher, S. Ehlert, S. Grimme, ChemRxiv, 2019, preprint.
     DOI: 10.26434/chemrxiv.8326202.v1
   for GFN-FF:
   * S. Spicher and S. Grimme, Angew. Chem. Int. Ed., 2020, 59, 15665-15673.
     DOI: 10.1002/anie.202004239
   
   for ALPB and GBSA implicit solvation:
   * S. Ehlert, M. Stahn, S. Spicher, S. Grimme, J. Chem. Theory Comput.,
     2021, 17, 4250-4261. DOI: 10.1021/acs.jctc.1c00471
   
   for DFT-D4:
   * E. Caldeweyher, C. Bannwarth and S. Grimme, J. Chem. Phys., 2017,
     147, 034112. DOI: 10.1063/1.4993215
   * E. Caldeweyher, S. Ehlert, A. Hansen, H. Neugebauer, S. Spicher,
     C. Bannwarth and S. Grimme, J. Chem. Phys., 2019, 150, 154122.
     DOI: 10.1063/1.5090222
   * E. Caldeweyher, J.-M. Mewes, S. Ehlert and S. Grimme, Phys. Chem. Chem. Phys.
     2020, 22, 8499-8512. DOI: 10.1039/D0CP00502A
   
   for sTDA-xTB:
   * S. Grimme and C. Bannwarth, J. Chem. Phys., 2016, 145, 054103.
     DOI: 10.1063/1.4959605
   
   in the mass-spec context:
   * V. Asgeirsson, C. Bauer and S. Grimme, Chem. Sci., 2017, 8, 4879.
     DOI: 10.1039/c7sc00601b
   * J. Koopman and S. Grimme, ACS Omega 2019, 4, 12, 15120-15133.
     DOI: 10.1021/acsomega.9b02011
   
   for metadynamics refer to:
   * S. Grimme, J. Chem. Theory Comput., 2019, 155, 2847-2862
     DOI: 10.1021/acs.jctc.9b00143
   
   for SPH calculations refer to:
   * S. Spicher and S. Grimme, J. Chem. Theory Comput., 2021, 17, 1701-1714
     DOI: 10.1021/acs.jctc.0c01306
   
   with help from (in alphabetical order)
   P. Atkinson, C. Bannwarth, F. Bohle, G. Brandenburg, E. Caldeweyher
   M. Checinski, S. Dohm, S. Ehlert, S. Ehrlich, I. Gerasimov, C. Hölzer
   A. Katbashev, J. Koopman, C. Lavigne, S. Lehtola, F. März, M. Müller,
   F. Musil, H. Neugebauer, J. Pisarek, C. Plett, P. Pracht, F. Pultar,
   J. Seibert, P. Shushkov, S. Spicher, M. Stahn, M. Steiner, T. Strunk,
   J. Stückrath, T. Rose, and J. Unsleber
   
 * started run on 2022/11/24 at 12:21:40.832     

           -------------------------------------------------
          |                Calculation Setup                |
           -------------------------------------------------

          program call               : xtb solvent_cluster.coord --gfn2 --sp --lmo --chrg 0
          hostname                   : cn0430
          coordinate file            : solvent_cluster.coord
          omp threads                :                     2

   ID    Z sym.   atoms
    1    8 o      1, 4, 7, 10, 13, 16, 19, 22, 25, 28, 31, 34, 37, 40, 43,
                  46, 49, 52, 55, 58, 61, 64, 67, 70, 73, 76, 79, 82, 85, 88,
                  91, 94, 97, 100, 103, 106, 109, 112, 115, 118, 121, 124,
                  127, 130, 133, 136, 139, 142, 145, 148, 151, 154, 157, 160,
                  163, 166, 169, 172, 175, 178, 181, 184, 187, 190, 193, 196,
                  199, 202, 205, 208, 211, 214, 217, 220, 223, 226, 229, 232,
                  235, 238, 241, 244, 247, 250, 253, 256, 259, 262, 265, 268,
                  271, 274, 277, 280, 283, 286, 289, 292, 295, 298, 301, 304,
                  307, 310, 313, 316, 319, 322, 325, 328, 331, 334, 337, 340,
                  343, 346, 349, 352, 355, 358, 361, 364, 367, 370, 373, 376,
                  379, 382, 385, 388, 391, 394, 397, 400, 403, 406, 409, 412,
                  415, 418, 421, 424, 427, 430, 433, 436, 439, 442, 445, 448,
                  451, 454, 457, 460, 463, 466, 469, 472, 475, 478, 481, 484,
                  487, 490, 493, 496, 499, 502, 505, 508, 511, 514, 517, 520,
                  523, 526, 529, 532, 535, 538, 541, 544, 547, 550, 553, 556,
                  559, 562, 565, 568, 571, 574, 577, 580, 583, 586, 589, 592,
                  595, 598, 601, 604, 607, 610, 613, 616, 619, 622, 625, 628,
                  631, 634, 637, 640, 643, 646, 649, 652, 655, 658, 661, 664,
                  667, 670, 673, 676, 679, 682, 685, 688, 691, 694, 697, 700,
                  703, 706, 709, 712, 715, 718, 721, 724, 727, 730, 733, 736,
                  739, 742, 745, 748, 751, 754
    2    1 h      2, 3, 5, 6, 8, 9, 11, 12, 14, 15, 17, 18, 20, 21, 23, 24,
                  26, 27, 29, 30, 32, 33, 35, 36, 38, 39, 41, 42, 44, 45, 47,
                  48, 50, 51, 53, 54, 56, 57, 59, 60, 62, 63, 65, 66, 68, 69,
                  71, 72, 74, 75, 77, 78, 80, 81, 83, 84, 86, 87, 89, 90, 92,
                  93, 95, 96, 98, 99, 101, 102, 104, 105, 107, 108, 110, 111,
                  113, 114, 116, 117, 119, 120, 122, 123, 125, 126, 128, 129,
                  131, 132, 134, 135, 137, 138, 140, 141, 143, 144, 146, 147,
                  149, 150, 152, 153, 155, 156, 158, 159, 161, 162, 164, 165,
                  167, 168, 170, 171, 173, 174, 176, 177, 179, 180, 182, 183,
                  185, 186, 188, 189, 191, 192, 194, 195, 197, 198, 200, 201,
                  203, 204, 206, 207, 209, 210, 212, 213, 215, 216, 218, 219,
                  221, 222, 224, 225, 227, 228, 230, 231, 233, 234, 236, 237,
                  239, 240, 242, 243, 245, 246, 248, 249, 251, 252, 254, 255,
                  257, 258, 260, 261, 263, 264, 266, 267, 269, 270, 272, 273,
                  275, 276, 278, 279, 281, 282, 284, 285, 287, 288, 290, 291,
                  293, 294, 296, 297, 299, 300, 302, 303, 305, 306, 308, 309,
                  311, 312, 314, 315, 317, 318, 320, 321, 323, 324, 326, 327,
                  329, 330, 332, 333, 335, 336, 338, 339, 341, 342, 344, 345,
                  347, 348, 350, 351, 353, 354, 356, 357, 359, 360, 362, 363,
                  365, 366, 368, 369, 371, 372, 374, 375, 377, 378, 380, 381,
                  383, 384, 386, 387, 389, 390, 392, 393, 395, 396, 398, 399,
                  401, 402, 404, 405, 407, 408, 410, 411, 413, 414, 416, 417,
                  419, 420, 422, 423, 425, 426, 428, 429, 431, 432, 434, 435,
                  437, 438, 440, 441, 443, 444, 446, 447, 449, 450, 452, 453,
                  455, 456, 458, 459, 461, 462, 464, 465, 467, 468, 470, 471,
                  473, 474, 476, 477, 479, 480, 482, 483, 485, 486, 488, 489,
                  491, 492, 494, 495, 497, 498, 500, 501, 503, 504, 506, 507,
                  509, 510, 512, 513, 515, 516, 518, 519, 521, 522, 524, 525,
                  527, 528, 530, 531, 533, 534, 536, 537, 539, 540, 542, 543,
                  545, 546, 548, 549, 551, 552, 554, 555, 557, 558, 560, 561,
                  563, 564, 566, 567, 569, 570, 572, 573, 575, 576, 578, 579,
                  581, 582, 584, 585, 587, 588, 590, 591, 593, 594, 596, 597,
                  599, 600, 602, 603, 605, 606, 608, 609, 611, 612, 614, 615,
                  617, 618, 620, 621, 623, 624, 626, 627, 629, 630, 632, 633,
                  635, 636, 638, 639, 641, 642, 644, 645, 647, 648, 650, 651,
                  653, 654, 656, 657, 659, 660, 662, 663, 665, 666, 668, 669,
                  671, 672, 674, 675, 677, 678, 680, 681, 683, 684, 686, 687,
                  689, 690, 692, 693, 695, 696, 698, 699, 701, 702, 704, 705,
                  707, 708, 710, 711, 713, 714, 716, 717, 719, 720, 722, 723,
                  725, 726, 728, 729, 731, 732, 734, 735, 737, 738, 740, 741,
                  743, 744, 746, 747, 749, 750, 752, 753, 755, 756

molecular fragmentation (1/2 indicates fragments):
111222222222222222222222222222222222222222222222222222222222222222222222
222222222222222222222222222222222222222222222222222222222222222222222222
222222222222222222222222222222222222222222222222222222222222222222222222
222222222222222222222222222222222222222222222222222222222222222222222222
222222222222222222222222222222222222222222222222222222222222222222222222
222222222222222222222222222222222222222222222222222222222222222222222222
222222222222222222222222222222222222222222222222222222222222222222222222
222222222222222222222222222222222222222222222222222222222222222222222222
222222222222222222222222222222222222222222222222222222222222222222222222
222222222222222222222222222222222222222222222222222222222222222222222222
222222222222222222222222222222222222
# atoms in fragment 1/2:     3   753
 fragment masses (1/2) :       18.02     4521.84
CMA distance (Bohr)    :  17.858
constraining FC (au)   :  0.0500

           -------------------------------------------------
          |                 G F N 2 - x T B                 |
           -------------------------------------------------

        Reference                      10.1021/acs.jctc.8b01176
      * Hamiltonian:
        H0-scaling (s, p, d)           1.850000    2.230000    2.230000
        zeta-weighting                 0.500000
      * Dispersion:
        s8                             2.700000
        a1                             0.520000
        a2                             5.000000
        s9                             5.000000
      * Repulsion:
        kExp                           1.500000    1.000000
        rExp                           1.000000
      * Coulomb:
        alpha                          2.000000
        third order                    shell-resolved
        anisotropic                    true
        a3                             3.000000
        a5                             4.000000
        cn-shift                       1.200000
        cn-exp                         4.000000
        max-rad                        5.000000


          ...................................................
          :                      SETUP                      :
          :.................................................:
          :  # basis functions                1512          :
          :  # atomic orbitals                1512          :
          :  # shells                         1008          :
          :  # electrons                      2016          :
          :  max. iterations                   250          :
          :  Hamiltonian                  GFN2-xTB          :
          :  restarted?                      false          :
          :  GBSA solvation                  false          :
          :  PC potential                    false          :
          :  electronic temp.          300.0000000     K    :
          :  accuracy                    1.0000000          :
          :  -> integral cutoff          0.2500000E+02      :
          :  -> integral neglect         0.1000000E-07      :
          :  -> SCF convergence          0.1000000E-05 Eh   :
          :  -> wf. convergence          0.1000000E-03 e    :
          :  Broyden damping             0.4000000          :
          ...................................................

 iter      E             dE          RMSdq      gap      omega  full diag
   1  -1290.9970127 -0.129100E+04  0.407E+00    8.35       0.0  T
   2  -1291.0743521 -0.773394E-01  0.242E+00    7.35       1.0  T
   3  -1291.1060703 -0.317183E-01  0.212E-01    5.73       1.0  T
   4  -1291.1114523 -0.538194E-02  0.461E-02    6.21       1.0  T
   5  -1291.1115357 -0.833821E-04  0.311E-02    6.13       1.0  T
   6  -1291.1115763 -0.406060E-04  0.443E-03    6.16       1.0  T
   7  -1291.1115789 -0.260579E-05  0.750E-04    6.16       4.9  T
   8  -1291.1115789 -0.298637E-07  0.389E-04    6.16       9.3  T
   9  -1291.1115789 -0.146367E-07  0.673E-05    6.16      54.1  T

   *** convergence criteria satisfied after 9 iterations ***

         #    Occupation            Energy/Eh            Energy/eV
      -------------------------------------------------------------
         1        2.0000           -0.6960640             -18.9409
       ...           ...                  ...                  ...
      1002        2.0000           -0.3615141              -9.8373
      1003        2.0000           -0.3569217              -9.7123
      1004        2.0000           -0.3541420              -9.6367
      1005        2.0000           -0.3519044              -9.5758
      1006        2.0000           -0.3504821              -9.5371
      1007        2.0000           -0.3376488              -9.1879
      1008        2.0000           -0.3212270              -8.7410 (HOMO)
      1009                         -0.0948205              -2.5802 (LUMO)
      1010                         -0.0802850              -2.1847
      1011                         -0.0733444              -1.9958
      1012                         -0.0622844              -1.6948
      1013                         -0.0569869              -1.5507
       ...                                ...                  ...
      1512                          0.4852620              13.2047
      -------------------------------------------------------------
                  HL-Gap            0.2264066 Eh            6.1608 eV
             Fermi-level           -0.2080237 Eh           -5.6606 eV
 
 localization/xTB-IFF output generation
 averaging CT terms over            1  occ. levels
 averaging CT terms over            1  virt. levels
 dipole moment from electron density (au)
     X       Y       Z   
  -1.4975   1.2655   2.2691  total (Debye):    7.622
cpu  time for init local    0.79 s
wall time for init local    0.40 s
 doing rotations ...
 initialization of trafo matrix to unity

 converged in     16 iterations, threshold :   0.99994585D-06
 doing transformations ...
 lmo centers(Z=2) and atoms on file <lmocent.coord>
 LMO Fii/eV  ncent    charge center   contributions...
    1 LP   *******   0.00  -8.86589  -9.13859  -6.12240   91O : 25.76  256O : 20.57  121O : 20.24   82O : 18.69   31O : 18.45  355O : 16.57  100O : 16.39   19O : 15.26   10O : 14.56  538O : 13.80  493O : 13.27  619O : 13.14
    4O : 12.89  148O : 12.85   22O : 12.72  220O : 12.61  211O : 12.37  706O : 12.30   40O : 11.86  439O : 11.84  142O : 11.82  253O : 11.74   73O : 11.40  295O : 11.17
  643O : 11.03  436O : 10.85  721O : 10.76  379O : 10.74  325O : 10.64  118O : 10.32  571O : 10.26   49O :  9.99  463O :  9.97  388O :  9.93  559O :  9.81   70O :  9.74
  670O :  9.67  514O :  9.51  592O :  9.38  373O :  9.35  628O :  9.25  667O :  9.04  307O :  9.04  709O :  8.79  232O :  8.74  751O :  8.70  448O :  8.45   76O :  8.43
  145O :  8.42   37O :  8.41  292O :  8.39  406O :  8.36  697O :  8.28  613O :  8.22  487O :  8.11  703O :  7.96  268O :  7.77  244O :  7.75   46O :  7.68  541O :  7.48
    7O :  7.29  112O :  7.28  115O :  7.27  304O :  7.14  397O :  7.13   97O :  7.13  298O :  7.02   28O :  6.94  547O :  6.88  283O :  6.88  274O :  6.83  745O :  6.80
  157O :  6.73  754O :  6.60   16O :  6.53  385O :  6.50  190O :  6.38  445O :  6.37  166O :  6.29  103O :  6.22   85O :  6.18  577O :  6.14  529O :  6.09   25O :  6.07
  691O :  5.99  523O :  5.96  481O :  5.82  130O :  5.82  202O :  5.73  409O :  5.69  631O :  5.66  364O :  5.62  250O :  5.61  226O :  5.56  511O :  5.50  316O :  5.36
  337O :  5.26  598O :  5.24  544O :  5.23  217O :  5.23  508O :  5.23  433O :  5.19  358O :  5.13  133O :  5.00  682O :  4.99  334O :  4.98  277O :  4.97  319O :  4.94
  586O :  4.94  562O :  4.88  280O :  4.87  637O :  4.77  730O :  4.66  163O :  4.62  520O :  4.61  370O :  4.60  346O :  4.56  322O :  4.51  499O :  4.49   94O :  4.48
  604O :  4.42  580O :  4.37  331O :  4.33   43O :  4.27  430O :  4.20   79O :  4.20  223O :  4.18  490O :  4.17  160O :  4.05  361O :  3.95  172O :  3.95  634O :  3.94
  535O :  3.92  526O :  3.89  109O :  3.85  313O :  3.81   67O :  3.78  574O :  3.74   13O :  3.69  247O :  3.63  457O :  3.56  610O :  3.49  622O :  3.47  454O :  3.47
  655O :  3.43  733O :  3.36  382O :  3.33  625O :  3.32  310O :  3.31  694O :  3.19  259O :  3.16  484O :  3.13  658O :  3.12   55O :  3.07  229O :  3.07  742O :  2.94
   58O :  2.93  124O :  2.92    1O :  2.87  196O :  2.82  595O :  2.76   88O :  2.76  427O :  2.76  262O :  2.75  661O :  2.74   52O :  2.72  123H :  2.71  151O :  2.69
  565O :  2.67  469O :  2.62  748O :  2.55  424O :  2.52  478O :  2.50  451O :  2.49  286O :  2.47  715O :  2.47  553O :  2.46  199O :  2.43   71H :  2.40  727O :  2.35
  589O :  2.33  640O :  2.33  394O :  2.32   93H :  2.30  616O :  2.28  184O :  2.28  415O :  2.27  442O :  2.26  496O :  2.25   61O :  2.24  169O :  2.24  502O :  2.23
  739O :  2.20  472O :  2.06  460O :  2.05   32H :  2.05  718O :  2.01  601O :  1.99  187O :  1.98  700O :  1.94   47H :  1.94  736O :  1.91  676O :  1.88   64O :  1.86
  265O :  1.86  238O :  1.85  724O :  1.81  664O :  1.80  178O :  1.80  328O :  1.79  181O :  1.75  418O :  1.75  594H :  1.74  162H :  1.70  679O :  1.69  629H :  1.65
  548H :  1.64  340O :  1.63  568O :  1.61  403O :  1.60  349O :  1.59  343O :  1.56  652O :  1.56  649O :  1.56  583O :  1.54  235O :  1.50  175O :  1.46  106O :  1.37
  271O :  1.32  400O :  1.32   11H :  1.31  671H :  1.30  482H :  1.29  275H :  1.26  560H :  1.24  154O :  1.23  352O :  1.22   34O :  1.18  517O :  1.16   50H :  1.15
  639H :  1.13   26H :  1.13  573H :  1.11  252H :  1.09  556O :  1.08  102H :  1.06  410H :  1.05  712O :  1.04  285H :  1.04  136O :  1.02   72H :  1.02  607O :  1.00
  685O :  0.98  318H :  0.95  158H :  0.95  390H :  0.92  333H :  0.91  249H :  0.90  673O :  0.87  438H :  0.85  564H :  0.85  752H :  0.85  284H :  0.85  164H :  0.84
  204H :  0.83  550O :  0.83  466O :  0.82   98H :  0.81  646O :  0.80  621H :  0.80  522H :  0.80  131H :  0.80  479H :  0.80  212H :  0.79  126H :  0.79  127O :  0.78
  257H :  0.78   83H :  0.76  407H :  0.75  446H :  0.75  360H :  0.74  301O :  0.74   35H :  0.74  305H :  0.73   66H :  0.73   44H :  0.73  214O :  0.73  186H :  0.72
  276H :  0.71  120H :  0.71  367O :  0.71  182H :  0.70  221H :  0.69  421O :  0.68  611H :  0.68   18H :  0.68  657H :  0.67  500H :  0.66  219H :  0.65    5H :  0.65
  545H :  0.65  615H :  0.64  117H :  0.64  263H :  0.63   75H :  0.61  245H :  0.61  191H :  0.61  753H :  0.60  443H :  0.60  660H :  0.60  624H :  0.60  437H :  0.59
  205O :  0.59  537H :  0.59   69H :  0.57  542H :  0.56  435H :  0.56  113H :  0.56  255H :  0.55  146H :  0.53  270H :  0.52    3H :  0.52  317H :  0.52  258H :  0.50
  339H :  0.50  744H :  0.49  683H :  0.49  363H :  0.47  738H :  0.47   96H :  0.46  458H :  0.46  669H :  0.45  688O :  0.45  475O :  0.45  396H :  0.44  638H :  0.44
  698H :  0.43  731H :  0.43  593H :  0.42  272H :  0.42  197H :  0.41  239H :  0.41  228H :  0.41  603H :  0.41  444H :  0.41  391O :  0.41  362H :  0.40  569H :  0.40
  168H :  0.40  494H :  0.40  504H :  0.40  618H :  0.38  289O :  0.38  412O :  0.38  399H :  0.37  144H :  0.37   74H :  0.37   56H :  0.37  626H :  0.36  693H :  0.36
  174H :  0.36   12H :  0.36  329H :  0.36  193O :  0.35  210H :  0.35  597H :  0.34  308H :  0.34  459H :  0.34  524H :  0.33  530H :  0.33  734H :  0.32  449H :  0.32
  505O :  0.32  710H :  0.32  254H :  0.32  756H :  0.32  208O :  0.31  684H :  0.31  434H :  0.30  672H :  0.30  324H :  0.29  501H :  0.29  627H :  0.28  668H :  0.28
   30H :  0.28  491H :  0.28  531H :  0.28  188H :  0.28  431H :  0.28   63H :  0.27  429H :  0.27  297H :  0.27  155H :  0.27  585H :  0.26  636H :  0.26  326H :  0.26
   38H :  0.26  720H :  0.25   27H :  0.25  273H :  0.25  114H :  0.25  749H :  0.25   62H :  0.25  488H :  0.25  483H :  0.25  380H :  0.25  527H :  0.25  332H :  0.24
  432H :  0.24  173H :  0.24   48H :  0.24  101H :  0.24  139O :  0.24  455H :  0.23  170H :  0.23  590H :  0.23  260H :  0.23  612H :  0.23  314H :  0.23  189H :  0.22
  241O :  0.22  687H :  0.22   33H :  0.21  267H :  0.21  327H :  0.21  351H :  0.21  620H :  0.20  578H :  0.20  726H :  0.20  143H :  0.20  302H :  0.20  356H :  0.20
   99H :  0.19  722H :  0.19  234H :  0.19  296H :  0.19   17H :  0.19  222H :  0.18  422H :  0.18  134H :  0.18  230H :  0.18  309H :  0.18  579H :  0.18  425H :  0.18
  198H :  0.18  372H :  0.18  464H :  0.18  414H :  0.17  741H :  0.17  246H :  0.17  650H :  0.17   24H :  0.17  116H :  0.17  471H :  0.17   86H :  0.17  605H :  0.16
  110H :  0.16  426H :  0.16  206H :  0.15  311H :  0.15  366H :  0.15   51H :  0.15   95H :  0.15   39H :  0.15  576H :  0.14  536H :  0.14  236H :  0.14  707H :  0.14
  728H :  0.14  176H :  0.14   65H :  0.13  563H :  0.13  371H :  0.13  282H :  0.13  287H :  0.13   45H :  0.13  125H :  0.13  689H :  0.13  596H :  0.13  755H :  0.12
  713H :  0.12  702H :  0.12  357H :  0.12  368H :  0.12  716H :  0.11  518H :  0.11  342H :  0.11  179H :  0.11  376O :  0.11  428H :  0.11  653H :  0.11  737H :  0.11
  519H :  0.11  506H :  0.11  248H :  0.10  122H :  0.10  699H :  0.10  381H :  0.10  617H :  0.10  159H :  0.10  416H :  0.10  201H :  0.10  525H :  0.10  599H :  0.10
  704H :  0.09  290H :  0.09  581H :  0.09  402H :  0.09  567H :  0.09  743H :  0.09  423H :  0.09   41H :  0.09  350H :  0.09  711H :  0.09  539H :  0.08  470H :  0.08
  279H :  0.08  725H :  0.08  335H :  0.08  566H :  0.08  353H :  0.08  695H :  0.08   87H :  0.08  555H :  0.08  719H :  0.07  450H :  0.07  338H :  0.07  165H :  0.07
  152H :  0.07  680H :  0.07  461H :  0.07  651H :  0.07   21H :  0.07
    2 LP   *******   0.00  48.74072  -0.51429  32.11941   91O : 16.08  100O : 15.27  256O : 15.16  121O : 14.89   82O : 13.77   31O : 13.60  355O : 12.21   19O : 11.24   10O : 10.73  538O : 10.17  493O :  9.78  619O :  9.68
    4O :  9.50  148O :  9.47   22O :  9.37  220O :  9.29  211O :  9.12  706O :  9.06   40O :  8.74  142O :  8.71  439O :  8.70  253O :  8.66   73O :  8.40  295O :  8.23
  643O :  8.13  436O :  8.00  721O :  7.93  325O :  7.84  379O :  7.81  118O :  7.60  571O :  7.56   49O :  7.36  463O :  7.35  388O :  7.32  559O :  7.23   70O :  7.18
  670O :  7.13  514O :  7.01  592O :  6.91  373O :  6.89  628O :  6.85  307O :  6.67  667O :  6.66   37O :  6.51  709O :  6.48  232O :  6.44  751O :  6.41  448O :  6.23
   76O :  6.22  145O :  6.20  292O :  6.19  406O :  6.16  697O :  6.10  613O :  6.06  487O :  5.98  703O :  5.87  268O :  5.72  244O :  5.71   46O :  5.66  541O :  5.51
    7O :  5.37  112O :  5.37  115O :  5.35  304O :  5.26  397O :  5.25   97O :  5.25  298O :  5.16   28O :  5.11  283O :  5.07  547O :  5.07  274O :  5.03  745O :  5.01
  157O :  4.96  754O :  4.86   16O :  4.81  385O :  4.79  190O :  4.74  445O :  4.69  166O :  4.64  103O :  4.59   85O :  4.53  577O :  4.53  529O :  4.49   25O :  4.47
  691O :  4.41  523O :  4.40  481O :  4.29  130O :  4.23  202O :  4.22  409O :  4.19  631O :  4.17  364O :  4.14  250O :  4.14  226O :  4.10  511O :  4.05  316O :  3.95
  337O :  3.87  598O :  3.86  508O :  3.86  217O :  3.85  433O :  3.82  358O :  3.78  544O :  3.77  133O :  3.69  682O :  3.67  334O :  3.67  277O :  3.67  319O :  3.64
  586O :  3.64  562O :  3.60  280O :  3.53  637O :  3.52  730O :  3.44  163O :  3.41  520O :  3.40  370O :  3.39  346O :  3.36  322O :  3.32  499O :  3.31   94O :  3.30
  604O :  3.26  580O :  3.22  331O :  3.19   43O :  3.15  430O :  3.10   79O :  3.09  490O :  3.08  223O :  3.06  160O :  2.98  361O :  2.91  172O :  2.91  634O :  2.91
  535O :  2.88  526O :  2.86  109O :  2.83  313O :  2.81   67O :  2.78  574O :  2.76   13O :  2.72  247O :  2.68  457O :  2.62  610O :  2.58  622O :  2.56  454O :  2.55
  655O :  2.53  733O :  2.48  625O :  2.45  310O :  2.44  694O :  2.35  259O :  2.33  484O :  2.31  658O :  2.30  382O :  2.27   55O :  2.26  229O :  2.26  742O :  2.17
   58O :  2.16  124O :  2.15    1O :  2.12  196O :  2.09  595O :  2.03   88O :  2.03  427O :  2.03  262O :  2.03  661O :  2.02   52O :  2.00  123H :  2.00  151O :  1.98
  565O :  1.97  469O :  1.93  748O :  1.88  424O :  1.86  478O :  1.84   93H :  1.84  451O :  1.83  286O :  1.82  715O :  1.82  553O :  1.81  199O :  1.81   71H :  1.77
  727O :  1.73  589O :  1.72  640O :  1.72  394O :  1.71  616O :  1.68  184O :  1.68  415O :  1.68  442O :  1.67  169O :  1.66  496O :  1.66   61O :  1.65  502O :  1.65
  739O :  1.62  472O :  1.52  460O :  1.51   32H :  1.51  718O :  1.48  601O :  1.47  187O :  1.46  700O :  1.43   47H :  1.43  736O :  1.41  676O :  1.39   64O :  1.37
  265O :  1.37  238O :  1.36  724O :  1.34  664O :  1.33  178O :  1.32  328O :  1.32  181O :  1.29  418O :  1.29  594H :  1.28  162H :  1.25  679O :  1.24  629H :  1.21
  548H :  1.21  340O :  1.20  568O :  1.18  403O :  1.18  349O :  1.17  343O :  1.15  652O :  1.15  649O :  1.15  583O :  1.13  235O :  1.11  175O :  1.08  106O :  1.01
  271O :  0.97  400O :  0.97   11H :  0.96  671H :  0.96  482H :  0.95  275H :  0.93  560H :  0.91  154O :  0.91  352O :  0.90   34O :  0.87  517O :  0.85   50H :  0.85
  639H :  0.84   26H :  0.83  573H :  0.82  252H :  0.80  556O :  0.80  410H :  0.77  712O :  0.77  285H :  0.76  136O :  0.75   72H :  0.75  607O :  0.74  685O :  0.72
  318H :  0.70  158H :  0.70  390H :  0.67  333H :  0.67  249H :  0.66  102H :  0.66  673O :  0.64  438H :  0.63  564H :  0.63  752H :  0.63  284H :  0.63  164H :  0.62
  204H :  0.61  550O :  0.61  466O :  0.61   98H :  0.60  646O :  0.59  621H :  0.59  479H :  0.59  522H :  0.59  301O :  0.59  212H :  0.59  126H :  0.58  127O :  0.58
  257H :  0.58  131H :  0.57   83H :  0.56  407H :  0.56  446H :  0.55  360H :  0.55   35H :  0.54  305H :  0.54   66H :  0.54   44H :  0.54  214O :  0.54  186H :  0.53
  120H :  0.53  276H :  0.53  367O :  0.52  182H :  0.52  421O :  0.51  221H :  0.51  611H :  0.50   18H :  0.50  657H :  0.49  500H :  0.49  219H :  0.48    5H :  0.48
  615H :  0.47  117H :  0.47  545H :  0.47  263H :  0.46  191H :  0.46   75H :  0.45  245H :  0.45  753H :  0.44  660H :  0.44  443H :  0.44  624H :  0.44  437H :  0.44
  205O :  0.43  537H :  0.43   69H :  0.42  542H :  0.41  435H :  0.41  113H :  0.41  255H :  0.41  146H :  0.39  270H :  0.39    3H :  0.38  317H :  0.38  258H :  0.37
  339H :  0.37  744H :  0.36  683H :  0.36  363H :  0.35  738H :  0.34   96H :  0.34  458H :  0.34  669H :  0.34  688O :  0.33  475O :  0.33  396H :  0.33  638H :  0.32
  698H :  0.32  731H :  0.32  593H :  0.31   38H :  0.31  272H :  0.31  197H :  0.31  239H :  0.31  228H :  0.30  603H :  0.30  391O :  0.30  444H :  0.30  362H :  0.30
  569H :  0.30  168H :  0.30  494H :  0.29  504H :  0.29  618H :  0.28  289O :  0.28  412O :  0.28  399H :  0.28  144H :  0.27   56H :  0.27   74H :  0.27  626H :  0.27
  693H :  0.27  174H :  0.27   12H :  0.27  329H :  0.27  210H :  0.26  597H :  0.25  308H :  0.25  459H :  0.25  193O :  0.24  524H :  0.24  530H :  0.24  734H :  0.24
  449H :  0.24  710H :  0.23  254H :  0.23  208O :  0.23  756H :  0.23  684H :  0.23  434H :  0.22  672H :  0.22  324H :  0.22  501H :  0.22  505O :  0.21  627H :  0.21
  668H :  0.21   30H :  0.21  491H :  0.21  531H :  0.21  188H :  0.20  431H :  0.20   63H :  0.20  429H :  0.20  297H :  0.20  155H :  0.20  585H :  0.19  636H :  0.19
  326H :  0.19  720H :  0.19   27H :  0.19  380H :  0.19  273H :  0.18  114H :  0.18  749H :  0.18   62H :  0.18  488H :  0.18  483H :  0.18  170H :  0.18  527H :  0.18
  332H :  0.18  432H :  0.18  173H :  0.18   48H :  0.18  139O :  0.17  455H :  0.17  590H :  0.17  260H :  0.17  612H :  0.17  314H :  0.17  189H :  0.17  241O :  0.16
  687H :  0.16   33H :  0.16  267H :  0.16  327H :  0.15  351H :  0.15  620H :  0.15  578H :  0.15  726H :  0.15  143H :  0.15  302H :  0.15  356H :  0.14   99H :  0.14
  722H :  0.14  234H :  0.14  296H :  0.14   17H :  0.14  222H :  0.14  134H :  0.13  422H :  0.13  230H :  0.13  309H :  0.13  579H :  0.13  425H :  0.13  198H :  0.13
  372H :  0.13  464H :  0.13  414H :  0.13  741H :  0.13  246H :  0.13  650H :  0.13   24H :  0.12  116H :  0.12  471H :  0.12  101H :  0.12  605H :  0.11  110H :  0.11
  426H :  0.11  206H :  0.11  311H :  0.11  366H :  0.11   51H :  0.11   95H :  0.11   86H :  0.11  576H :  0.11  536H :  0.10   39H :  0.10  236H :  0.10  707H :  0.10
  728H :  0.10  282H :  0.10  176H :  0.10  563H :  0.10  371H :  0.10   65H :  0.10  287H :  0.09   45H :  0.09  125H :  0.09  689H :  0.09  596H :  0.09  755H :  0.09
  713H :  0.09  702H :  0.09  357H :  0.09  368H :  0.09  506H :  0.08  716H :  0.08  518H :  0.08  342H :  0.08  179H :  0.08  376O :  0.08  428H :  0.08  653H :  0.08
  737H :  0.08  519H :  0.08  248H :  0.08  122H :  0.08  699H :  0.07  617H :  0.07  381H :  0.07  416H :  0.07  159H :  0.07  201H :  0.07  525H :  0.07  599H :  0.07
    3 LP   *******   0.00  35.60419  34.04856  19.15450   91O : 15.47   82O : 15.07  256O : 14.58  121O : 14.36   31O : 13.09  355O : 11.74  100O : 11.62   19O : 10.81   10O : 10.32  538O :  9.79  493O :  9.41  619O :  9.31
  148O :  9.20    4O :  9.14   22O :  9.02  220O :  8.94  211O :  8.77  706O :  8.74   40O :  8.40  439O :  8.39  142O :  8.38  253O :  8.34   73O :  8.08  295O :  7.92
  643O :  7.82  436O :  7.69  721O :  7.63  379O :  7.61  325O :  7.54  118O :  7.31  571O :  7.28   49O :  7.08  463O :  7.07  388O :  7.04  559O :  6.96   70O :  6.91
  670O :  6.86  514O :  6.74  592O :  6.65  373O :  6.63  628O :  6.56  667O :  6.41  307O :  6.41   37O :  6.26  709O :  6.23  232O :  6.20  751O :  6.17  448O :  5.99
   76O :  5.98  145O :  5.97  292O :  5.95  406O :  5.92  697O :  5.88  613O :  5.83  487O :  5.75  703O :  5.64  268O :  5.50  244O :  5.50   46O :  5.44  541O :  5.30
    7O :  5.16  112O :  5.16  115O :  5.16  304O :  5.06  397O :  5.05   97O :  5.05  298O :  4.97   28O :  4.92  283O :  4.88  547O :  4.87  274O :  4.84  745O :  4.82
  157O :  4.77  754O :  4.68   16O :  4.63  385O :  4.60  190O :  4.56  445O :  4.51  166O :  4.46  103O :  4.41   85O :  4.36  577O :  4.36  529O :  4.31   25O :  4.30
  691O :  4.24  523O :  4.23  481O :  4.12  130O :  4.12  202O :  4.06  409O :  4.03  631O :  4.01  250O :  3.98  364O :  3.96  226O :  3.94  511O :  3.90  316O :  3.80
  337O :  3.73  598O :  3.71  508O :  3.71  433O :  3.67  358O :  3.64  544O :  3.63  217O :  3.58  133O :  3.55  334O :  3.53  277O :  3.53  682O :  3.52  319O :  3.51
  586O :  3.50  562O :  3.46  280O :  3.45  637O :  3.38  730O :  3.31  163O :  3.28  520O :  3.27  370O :  3.26  346O :  3.23  322O :  3.19  499O :  3.18   94O :  3.17
  604O :  3.13  580O :  3.10  331O :  3.07   43O :  3.02  430O :  2.98   79O :  2.98  223O :  2.96  490O :  2.96  160O :  2.87  361O :  2.80  172O :  2.80  634O :  2.79
  535O :  2.78  526O :  2.75  109O :  2.73  313O :  2.70   67O :  2.68  574O :  2.65   13O :  2.61  247O :  2.57  457O :  2.53  610O :  2.48  622O :  2.46  655O :  2.43
  733O :  2.38  382O :  2.36  625O :  2.36  454O :  2.35  310O :  2.35  694O :  2.26  259O :  2.24  484O :  2.22  658O :  2.21   55O :  2.18  229O :  2.17  742O :  2.09
   58O :  2.07    1O :  2.04  196O :  2.01  262O :  1.98  595O :  1.96   88O :  1.95  427O :  1.95  661O :  1.94   52O :  1.93  123H :  1.92  151O :  1.91  565O :  1.90
  124O :  1.89  469O :  1.86  748O :  1.81  424O :  1.79  478O :  1.77  451O :  1.77   93H :  1.77  286O :  1.75  715O :  1.75  553O :  1.75  199O :  1.74   71H :  1.70
  727O :  1.66  589O :  1.65  640O :  1.65  394O :  1.65  616O :  1.62  184O :  1.61  415O :  1.61  442O :  1.60  496O :  1.60   61O :  1.59  502O :  1.58  169O :  1.58
  739O :  1.56  472O :  1.46  460O :  1.46   32H :  1.45  718O :  1.43  601O :  1.41  187O :  1.38  700O :  1.38   47H :  1.38  736O :  1.36  676O :  1.33   64O :  1.32
  265O :  1.32  238O :  1.31  724O :  1.28  664O :  1.28  178O :  1.27  328O :  1.27  181O :  1.24  418O :  1.24  594H :  1.23  162H :  1.20  679O :  1.20  629H :  1.17
  548H :  1.16  340O :  1.16  568O :  1.14  403O :  1.13  349O :  1.13  343O :  1.11  652O :  1.11  649O :  1.10  583O :  1.09  235O :  1.07  175O :  1.04  106O :  0.96
  271O :  0.94  400O :  0.93   11H :  0.93  671H :  0.92  482H :  0.91  275H :  0.89  560H :  0.88  154O :  0.87  352O :  0.87   34O :  0.84  517O :  0.82   50H :  0.82
  639H :  0.80   26H :  0.80  573H :  0.79  252H :  0.77  556O :  0.77  102H :  0.75  410H :  0.74  712O :  0.74  285H :  0.73  136O :  0.72   72H :  0.72  607O :  0.71
  685O :  0.69  318H :  0.68  158H :  0.68  390H :  0.65  333H :  0.64  249H :  0.64  673O :  0.62  438H :  0.61  564H :  0.60  752H :  0.60  284H :  0.60  164H :  0.60
  204H :  0.59  550O :  0.59  466O :  0.58   98H :  0.58  646O :  0.57  621H :  0.57  479H :  0.57  522H :  0.57  131H :  0.57  301O :  0.57  212H :  0.56  127O :  0.56
  126H :  0.56  257H :  0.56  214O :  0.55  407H :  0.53  446H :  0.53  360H :  0.53   35H :  0.52  305H :  0.52   44H :  0.52  186H :  0.51  120H :  0.51  276H :  0.51
  367O :  0.50   66H :  0.50  182H :  0.50  221H :  0.49  421O :  0.48  611H :  0.48   18H :  0.48  657H :  0.47  500H :  0.47    5H :  0.46  219H :  0.46  615H :  0.45
  117H :  0.45  545H :  0.45   83H :  0.45  263H :  0.44  191H :  0.44   75H :  0.44  245H :  0.43  753H :  0.43  443H :  0.42  660H :  0.42  624H :  0.42  437H :  0.42
  205O :  0.42  537H :  0.42   69H :  0.40  542H :  0.40  435H :  0.40  113H :  0.40  255H :  0.39  146H :  0.37  270H :  0.37    3H :  0.37  317H :  0.37  258H :  0.36
  339H :  0.35  744H :  0.35  683H :  0.35  363H :  0.34  738H :  0.33   96H :  0.33  669H :  0.32  458H :  0.32  688O :  0.32  475O :  0.32  396H :  0.31  638H :  0.31
  698H :  0.31  731H :  0.30  593H :  0.30   38H :  0.30  272H :  0.30  197H :  0.29  239H :  0.29  228H :  0.29  603H :  0.29  444H :  0.29  391O :  0.29  362H :  0.29
  168H :  0.29  569H :  0.28  494H :  0.28  504H :  0.28  618H :  0.27  289O :  0.27  412O :  0.27  399H :  0.27  144H :  0.26   74H :  0.26   56H :  0.26  626H :  0.26
  693H :  0.26  174H :  0.26   12H :  0.26  329H :  0.26  193O :  0.25  210H :  0.25  459H :  0.25  597H :  0.24  308H :  0.24  524H :  0.23  530H :  0.23  734H :  0.23
  449H :  0.23  710H :  0.22  254H :  0.22  756H :  0.22  208O :  0.22  684H :  0.22  434H :  0.21  672H :  0.21  324H :  0.21  501H :  0.21  505O :  0.20  627H :  0.20
  668H :  0.20   30H :  0.20  491H :  0.20  531H :  0.20  188H :  0.20  431H :  0.20   63H :  0.19  429H :  0.19  297H :  0.19  155H :  0.19  585H :  0.19  636H :  0.19
  326H :  0.18  720H :  0.18   27H :  0.18  273H :  0.18  114H :  0.18  749H :  0.18   62H :  0.18  488H :  0.18  483H :  0.18  380H :  0.17  527H :  0.17  332H :  0.17
  432H :  0.17  173H :  0.17  101H :  0.17   48H :  0.17  139O :  0.17  170H :  0.16  590H :  0.16  260H :  0.16  455H :  0.16  612H :  0.16  314H :  0.16  241O :  0.16
  687H :  0.16   33H :  0.15  267H :  0.15  327H :  0.15  351H :  0.15  620H :  0.14  578H :  0.14  726H :  0.14  143H :  0.14  302H :  0.14  356H :  0.14   99H :  0.14
  722H :  0.14  234H :  0.14  296H :  0.13   17H :  0.13  189H :  0.13  222H :  0.13  414H :  0.13  134H :  0.13  422H :  0.13  230H :  0.13  309H :  0.13  579H :  0.13
  425H :  0.13  198H :  0.13  372H :  0.12  464H :  0.12  741H :  0.12  246H :  0.12  650H :  0.12   24H :  0.12  116H :  0.12   65H :  0.12  471H :  0.12  605H :  0.11
  110H :  0.11  426H :  0.11  206H :  0.11  311H :  0.11   51H :  0.11   95H :  0.11   86H :  0.10  576H :  0.10  536H :  0.10  366H :  0.10   39H :  0.10  236H :  0.10
  707H :  0.10  728H :  0.10  176H :  0.10  563H :  0.09  371H :  0.09  282H :  0.09  287H :  0.09  689H :  0.09  596H :  0.09   45H :  0.09  755H :  0.09  702H :  0.08
  713H :  0.08  357H :  0.08  368H :  0.08  506H :  0.08  716H :  0.08  518H :  0.08  342H :  0.08  179H :  0.08  376O :  0.08  428H :  0.08  653H :  0.08  737H :  0.08
  519H :  0.08  248H :  0.07  122H :  0.07  699H :  0.07  381H :  0.07  617H :  0.07
    4 LP   *******   0.00  11.60532  15.96035  64.59238   91O : 15.12  256O : 14.26  121O : 14.04  355O : 13.71   82O : 12.95   31O : 12.79  100O : 11.36   19O : 10.57   10O : 10.09  538O :  9.57  493O :  9.20  619O :  9.10
    4O :  8.94  148O :  8.91   22O :  8.82  220O :  8.74  211O :  8.58  706O :  8.52   40O :  8.22  439O :  8.20  142O :  8.19  253O :  8.14  295O :  7.74   73O :  7.70
  643O :  7.65  436O :  7.48  721O :  7.46  379O :  7.44  325O :  7.38  118O :  7.15  571O :  7.11   49O :  6.92  463O :  6.91  388O :  6.88  559O :  6.80   70O :  6.75
  670O :  6.70  514O :  6.59  592O :  6.50  373O :  6.48  628O :  6.41  667O :  6.27  307O :  6.27   37O :  6.12  709O :  6.10  232O :  6.05  751O :  6.03  448O :  5.86
   76O :  5.84  145O :  5.83  292O :  5.82  406O :  5.79  697O :  5.74  613O :  5.70  487O :  5.62  703O :  5.52  268O :  5.38  244O :  5.37   46O :  5.32  541O :  5.18
  115O :  5.08    7O :  5.05  112O :  5.05  304O :  4.95   97O :  4.94  397O :  4.93  298O :  4.86   28O :  4.81  547O :  4.77  283O :  4.77  274O :  4.73  745O :  4.71
  157O :  4.67  754O :  4.58   16O :  4.52  385O :  4.50  190O :  4.45  445O :  4.42  166O :  4.36  103O :  4.31   85O :  4.26  577O :  4.26  529O :  4.22   25O :  4.21
  691O :  4.15  523O :  4.13  130O :  4.04  481O :  4.03  202O :  3.97  409O :  3.94  631O :  3.93  364O :  3.89  250O :  3.89  226O :  3.86  511O :  3.81  316O :  3.71
  337O :  3.64  598O :  3.63  508O :  3.62  217O :  3.62  433O :  3.60  544O :  3.55  358O :  3.54  133O :  3.47  682O :  3.46  334O :  3.45  277O :  3.45  319O :  3.42
  586O :  3.42  562O :  3.39  280O :  3.37  637O :  3.31  730O :  3.23  163O :  3.21  520O :  3.19  370O :  3.19  346O :  3.16  322O :  3.12  499O :  3.11   94O :  3.10
  604O :  3.06  580O :  3.03  331O :  3.00   43O :  2.96  430O :  2.91   79O :  2.91  223O :  2.90  490O :  2.89  160O :  2.81  361O :  2.74  172O :  2.74  634O :  2.73
  535O :  2.71  526O :  2.69  109O :  2.67  313O :  2.64   67O :  2.62  574O :  2.59   13O :  2.56  247O :  2.52  457O :  2.47  610O :  2.42  622O :  2.41  454O :  2.40
  655O :  2.38  733O :  2.33  382O :  2.31  625O :  2.30  310O :  2.30  694O :  2.21  259O :  2.19  484O :  2.17  658O :  2.16   55O :  2.13  229O :  2.13  742O :  2.04
  124O :  2.03   58O :  2.00    1O :  1.99  196O :  1.96  595O :  1.91   88O :  1.91  427O :  1.91  262O :  1.91  661O :  1.90   52O :  1.88  123H :  1.88  151O :  1.86
  565O :  1.85  469O :  1.81  748O :  1.77  424O :  1.75  478O :  1.73   93H :  1.73  451O :  1.72  286O :  1.72  715O :  1.71  553O :  1.71  199O :  1.70   71H :  1.66
  589O :  1.63  727O :  1.63  640O :  1.61  394O :  1.61  616O :  1.58  184O :  1.58  415O :  1.58  442O :  1.57  496O :  1.56   61O :  1.56  169O :  1.55  502O :  1.55
  739O :  1.52  472O :  1.43  460O :  1.42   32H :  1.42  718O :  1.39  601O :  1.38  187O :  1.38  700O :  1.35   47H :  1.35  736O :  1.33  676O :  1.30  181O :  1.29
   64O :  1.29  265O :  1.29  238O :  1.28  724O :  1.26  664O :  1.25  178O :  1.24  328O :  1.24  418O :  1.21  594H :  1.21  162H :  1.17  679O :  1.17  629H :  1.14
  548H :  1.13  340O :  1.13  568O :  1.11  403O :  1.10  349O :  1.10  343O :  1.08  652O :  1.08  649O :  1.08  583O :  1.06  235O :  1.04  175O :  1.01  106O :  0.95
  271O :  0.91  400O :  0.91   11H :  0.90  671H :  0.90  482H :  0.89  275H :  0.87  560H :  0.86  154O :  0.85  352O :  0.85   34O :  0.82  517O :  0.80   50H :  0.80
  639H :  0.79   26H :  0.78  573H :  0.77  252H :  0.75  556O :  0.75  102H :  0.74  410H :  0.72  712O :  0.72  285H :  0.72  136O :  0.71   72H :  0.71  607O :  0.69
  685O :  0.68  318H :  0.66  158H :  0.66  390H :  0.63  333H :  0.63  249H :  0.62  673O :  0.60  564H :  0.59  752H :  0.59  284H :  0.59  164H :  0.58  204H :  0.58
  550O :  0.58  438H :  0.57  466O :  0.57   98H :  0.56  646O :  0.56  621H :  0.56  479H :  0.56  522H :  0.56  131H :  0.55  301O :  0.55  212H :  0.55  126H :  0.55
  127O :  0.54  257H :  0.54   83H :  0.53  407H :  0.52  360H :  0.52  446H :  0.52   35H :  0.51  305H :  0.51   66H :  0.51   44H :  0.51  214O :  0.50  186H :  0.50
  120H :  0.50  276H :  0.50  367O :  0.49  182H :  0.49  221H :  0.48  421O :  0.47  611H :  0.47   18H :  0.47  657H :  0.46  500H :  0.46  219H :  0.45    5H :  0.45
  117H :  0.45  615H :  0.44  545H :  0.44  263H :  0.43  191H :  0.43   75H :  0.43  245H :  0.42  753H :  0.42  660H :  0.41  443H :  0.41  624H :  0.41  205O :  0.41
  537H :  0.41  437H :  0.40   69H :  0.39  542H :  0.39  435H :  0.39  113H :  0.39  255H :  0.38  146H :  0.36  270H :  0.36    3H :  0.36  317H :  0.36  258H :  0.35
  339H :  0.35  744H :  0.34  683H :  0.34  363H :  0.33  738H :  0.32   96H :  0.32  458H :  0.32  669H :  0.32  688O :  0.31  475O :  0.31  396H :  0.31  638H :  0.30
  698H :  0.30  731H :  0.30  593H :  0.29   38H :  0.29  272H :  0.29  197H :  0.29  239H :  0.29  228H :  0.28  603H :  0.28  444H :  0.28  391O :  0.28  362H :  0.28
  569H :  0.28  168H :  0.28  494H :  0.28  504H :  0.28  618H :  0.26  289O :  0.26  399H :  0.26  412O :  0.26  144H :  0.26   56H :  0.25  626H :  0.25  693H :  0.25
  174H :  0.25   12H :  0.25  329H :  0.25   74H :  0.25  193O :  0.25  210H :  0.24  597H :  0.24  308H :  0.24  459H :  0.23  524H :  0.23  530H :  0.23  734H :  0.23
  449H :  0.22  710H :  0.22  254H :  0.22  756H :  0.22  208O :  0.22  684H :  0.21  434H :  0.21  672H :  0.21  324H :  0.20  501H :  0.20  505O :  0.20  627H :  0.20
  668H :  0.20   30H :  0.20  491H :  0.20  531H :  0.19  188H :  0.19  431H :  0.19   63H :  0.19  429H :  0.19  297H :  0.19  155H :  0.19  116H :  0.18  585H :  0.18
  636H :  0.18  326H :  0.18  720H :  0.18   27H :  0.18  273H :  0.17  114H :  0.17  749H :  0.17   62H :  0.17  488H :  0.17  483H :  0.17  380H :  0.17  527H :  0.17
  332H :  0.17  432H :  0.17  173H :  0.17   48H :  0.17  101H :  0.17  139O :  0.16  590H :  0.16  455H :  0.16  170H :  0.16  260H :  0.16  612H :  0.16  314H :  0.16
  189H :  0.16  241O :  0.15  687H :  0.15   33H :  0.15  267H :  0.15  327H :  0.14  351H :  0.14  620H :  0.14  578H :  0.14  726H :  0.14  143H :  0.14  302H :  0.14
   99H :  0.13  722H :  0.13  234H :  0.13  296H :  0.13   17H :  0.13  222H :  0.13  422H :  0.13  134H :  0.13  230H :  0.12  309H :  0.12  579H :  0.12  425H :  0.12
  198H :  0.12  372H :  0.12  464H :  0.12  414H :  0.12  741H :  0.12  650H :  0.12  246H :  0.12   24H :  0.12  471H :  0.11  605H :  0.11  110H :  0.11  426H :  0.11
  206H :  0.11  311H :  0.11  366H :  0.11   51H :  0.10   95H :  0.10   86H :  0.10  576H :  0.10  356H :  0.10  536H :  0.10   39H :  0.10  236H :  0.10  707H :  0.10
  728H :  0.10  176H :  0.09   65H :  0.09  563H :  0.09  371H :  0.09  282H :  0.09  287H :  0.09   45H :  0.09  125H :  0.09  689H :  0.09  596H :  0.09  755H :  0.08
  713H :  0.08  702H :  0.08  368H :  0.08  506H :  0.08  716H :  0.08  518H :  0.08  342H :  0.08  179H :  0.08  376O :  0.08  428H :  0.07  653H :  0.07  737H :  0.07
  519H :  0.07  248H :  0.07  122H :  0.07  699H :  0.07  617H :  0.07  381H :  0.07
    5 LP   *******   0.00  -6.36458  14.12858   0.56915   91O : 14.96  256O : 14.11   31O : 14.01  121O : 13.89   82O : 12.82  355O : 11.37  100O : 11.24   19O : 10.46   10O : 10.00  538O :  9.47  493O :  9.11  619O :  9.01
    4O :  8.84  148O :  8.82   22O :  8.73  220O :  8.61  211O :  8.49  706O :  8.44   40O :  8.21  439O :  8.12  142O :  8.11  253O :  8.06   73O :  7.82  295O :  7.66
  643O :  7.57  436O :  7.44  721O :  7.38  379O :  7.37  325O :  7.30  118O :  7.08  571O :  7.04   49O :  6.85  463O :  6.84  388O :  6.81  559O :  6.73   70O :  6.68
  670O :  6.63  514O :  6.52  592O :  6.43  373O :  6.42  628O :  6.34  667O :  6.20  307O :  6.20   37O :  6.09  709O :  6.03  232O :  6.00  751O :  5.96  448O :  5.80
   76O :  5.79  145O :  5.77  292O :  5.76  406O :  5.73  697O :  5.68  613O :  5.64  487O :  5.56  703O :  5.46  268O :  5.33  244O :  5.32   46O :  5.26  541O :  5.13
  112O :  5.00    7O :  4.99  115O :  4.98  304O :  4.89  397O :  4.89   97O :  4.89  298O :  4.81   28O :  4.76  547O :  4.72  283O :  4.72  274O :  4.69  745O :  4.66
  157O :  4.62  754O :  4.53   16O :  4.48  385O :  4.46  190O :  4.41  445O :  4.37  166O :  4.32  103O :  4.26  577O :  4.21   85O :  4.20  529O :  4.18   25O :  4.17
  691O :  4.11  523O :  4.09  202O :  4.08  481O :  3.99  130O :  3.99  409O :  3.90  631O :  3.89  364O :  3.85  250O :  3.85  226O :  3.82  511O :  3.77  316O :  3.68
  337O :  3.61  598O :  3.59  508O :  3.59  217O :  3.59  433O :  3.56  358O :  3.52  544O :  3.51  133O :  3.43  682O :  3.42  334O :  3.41  277O :  3.41  319O :  3.39
  586O :  3.39  562O :  3.36  280O :  3.34  637O :  3.27  730O :  3.20  163O :  3.19  520O :  3.16  370O :  3.16  346O :  3.13  322O :  3.09  499O :  3.08  604O :  3.03
   94O :  3.01  580O :  3.00  331O :  2.97   43O :  2.93  430O :  2.88   79O :  2.88  223O :  2.87  490O :  2.86  160O :  2.78  361O :  2.71  172O :  2.71  634O :  2.70
  535O :  2.69  526O :  2.66  109O :  2.64   67O :  2.60  574O :  2.57  313O :  2.54   13O :  2.53  247O :  2.49  457O :  2.44  610O :  2.40  622O :  2.38  454O :  2.38
  655O :  2.36  733O :  2.30  382O :  2.28  625O :  2.28  310O :  2.27  694O :  2.19  259O :  2.17  484O :  2.15  658O :  2.14   55O :  2.11  229O :  2.11  742O :  2.02
   58O :  2.01  124O :  2.01    1O :  1.97  196O :  1.93  595O :  1.89   88O :  1.89  427O :  1.89  262O :  1.89  661O :  1.88   52O :  1.86  123H :  1.86  151O :  1.84
  565O :  1.84  469O :  1.80  748O :  1.75  424O :  1.73  478O :  1.72   93H :  1.71  451O :  1.71  199O :  1.70  286O :  1.70  715O :  1.70  553O :  1.69   71H :  1.64
  727O :  1.61  589O :  1.60  640O :  1.60  394O :  1.59  616O :  1.57  184O :  1.56  415O :  1.56  442O :  1.55  496O :  1.54   61O :  1.54  169O :  1.54  502O :  1.53
  739O :  1.51  472O :  1.41  460O :  1.41  718O :  1.38  601O :  1.37  187O :  1.36  700O :  1.33   47H :  1.33  736O :  1.31  676O :  1.29   64O :  1.28  265O :  1.28
  238O :  1.27   32H :  1.26  724O :  1.24  664O :  1.24  178O :  1.23  328O :  1.23  181O :  1.20  418O :  1.20  594H :  1.19  162H :  1.16  679O :  1.16  629H :  1.13
  548H :  1.12  340O :  1.12  568O :  1.10  403O :  1.09  349O :  1.09  343O :  1.07  652O :  1.07  649O :  1.07  583O :  1.05  235O :  1.03  175O :  1.00  106O :  0.94
  271O :  0.90  400O :  0.90   11H :  0.90  671H :  0.89  482H :  0.88  275H :  0.86  560H :  0.85  154O :  0.85  352O :  0.84   34O :  0.81  517O :  0.79   50H :  0.79
  639H :  0.78   26H :  0.77  573H :  0.76  252H :  0.75  556O :  0.74  102H :  0.73  410H :  0.72  712O :  0.71  285H :  0.71  136O :  0.70   72H :  0.70  607O :  0.69
  685O :  0.67  158H :  0.65  318H :  0.65  390H :  0.63  333H :  0.62  249H :  0.62  673O :  0.60  438H :  0.59  752H :  0.58  564H :  0.58  284H :  0.58  164H :  0.58
  301O :  0.57  204H :  0.57  550O :  0.57  466O :  0.56   98H :  0.56  646O :  0.55  621H :  0.55  522H :  0.55  479H :  0.55  131H :  0.55  212H :  0.54  126H :  0.54
  127O :  0.54  257H :  0.54   83H :  0.52  407H :  0.52  446H :  0.51  360H :  0.51   35H :  0.50  305H :  0.50   66H :  0.50   44H :  0.50  214O :  0.50  186H :  0.50
  120H :  0.49  276H :  0.49  367O :  0.49  182H :  0.48  221H :  0.47  421O :  0.47  611H :  0.46   18H :  0.46  657H :  0.46  500H :  0.45  219H :  0.45    5H :  0.44
  615H :  0.44  117H :  0.44  545H :  0.43  263H :  0.43  191H :  0.43   75H :  0.42  245H :  0.42  753H :  0.41  660H :  0.41  443H :  0.41  624H :  0.41  437H :  0.41
  205O :  0.40  537H :  0.40   69H :  0.39  542H :  0.39  435H :  0.38  113H :  0.38  255H :  0.38  146H :  0.36  270H :  0.36    3H :  0.36  317H :  0.36  258H :  0.35
  339H :  0.34  744H :  0.34  683H :  0.33  363H :  0.33  738H :  0.32  458H :  0.31  669H :  0.31   96H :  0.31  688O :  0.31  475O :  0.31  396H :  0.30  638H :  0.30
  698H :  0.30  731H :  0.29  593H :  0.29  272H :  0.29  197H :  0.29  239H :  0.28  228H :  0.28  603H :  0.28   38H :  0.28  444H :  0.28  391O :  0.28  362H :  0.28
  569H :  0.28  168H :  0.28  494H :  0.27  504H :  0.27  618H :  0.26  289O :  0.26  412O :  0.26  399H :  0.26  144H :  0.25   74H :  0.25   56H :  0.25  626H :  0.25
  693H :  0.25  174H :  0.25  329H :  0.25   12H :  0.25  193O :  0.24  210H :  0.24  597H :  0.23  308H :  0.23  459H :  0.23  524H :  0.23  530H :  0.22  734H :  0.22
  449H :  0.22  710H :  0.22  254H :  0.22  756H :  0.22  208O :  0.22  684H :  0.21  434H :  0.21  672H :  0.20  324H :  0.20  501H :  0.20  505O :  0.20  627H :  0.20
  668H :  0.19   30H :  0.19  491H :  0.19  531H :  0.19  188H :  0.19  431H :  0.19   63H :  0.19  429H :  0.19  297H :  0.18  155H :  0.18  585H :  0.18  636H :  0.18
  326H :  0.18   39H :  0.18  720H :  0.17   27H :  0.17  273H :  0.17  114H :  0.17   62H :  0.17  749H :  0.17  488H :  0.17  483H :  0.17  380H :  0.17  527H :  0.17
  332H :  0.17  432H :  0.17  173H :  0.16   48H :  0.16  101H :  0.16  139O :  0.16  455H :  0.16  170H :  0.16  590H :  0.16  260H :  0.16  612H :  0.16  189H :  0.15
  241O :  0.15  687H :  0.15  314H :  0.15  267H :  0.14  327H :  0.14  351H :  0.14  620H :  0.14  222H :  0.14  578H :  0.14  726H :  0.14  143H :  0.14  302H :  0.14
  356H :  0.13   99H :  0.13  722H :  0.13  234H :  0.13  296H :  0.13   17H :  0.13  422H :  0.13  134H :  0.13  230H :  0.12  309H :  0.12  579H :  0.12  425H :  0.12
  198H :  0.12  372H :  0.12  464H :  0.12  414H :  0.12  741H :  0.12  650H :  0.12  246H :  0.12   24H :  0.12  116H :  0.12   33H :  0.11  471H :  0.11  605H :  0.11
  110H :  0.11  426H :  0.11  206H :  0.11  311H :  0.10  366H :  0.10   51H :  0.10   95H :  0.10  576H :  0.10  536H :  0.10   86H :  0.10  236H :  0.10  707H :  0.09
  728H :  0.09  176H :  0.09  563H :  0.09   65H :  0.09  371H :  0.09  282H :  0.09  287H :  0.09   45H :  0.09  125H :  0.09  689H :  0.09  596H :  0.09  755H :  0.08
  713H :  0.08  702H :  0.08  357H :  0.08  368H :  0.08  506H :  0.08  716H :  0.08  518H :  0.08  342H :  0.08  179H :  0.08  376O :  0.07  428H :  0.07  653H :  0.07
  737H :  0.07  519H :  0.07  248H :  0.07  122H :  0.07
    6 LP   *******   0.00  15.58314  10.96035  34.10476   91O : 13.89  121O : 13.88  256O : 13.10   82O : 11.90   31O : 11.75  355O : 10.59  100O : 10.43   19O :  9.71   10O :  9.27  538O :  8.79  493O :  8.46  619O :  8.36
    4O :  8.21  148O :  8.18   22O :  8.10  220O :  8.03  211O :  7.87  706O :  7.83   40O :  7.55  439O :  7.54  142O :  7.49  253O :  7.47   73O :  7.25  295O :  7.11
  643O :  7.02  436O :  6.91  721O :  6.85  379O :  6.84  325O :  6.77  118O :  6.58  571O :  6.53   49O :  6.37  463O :  6.35  388O :  6.32  559O :  6.25   70O :  6.20
  670O :  6.16  514O :  6.05  592O :  5.97  373O :  5.96  628O :  5.89  667O :  5.76  307O :  5.76   37O :  5.63  709O :  5.59  232O :  5.57  751O :  5.54  448O :  5.38
   76O :  5.37  145O :  5.36  292O :  5.34  406O :  5.32  697O :  5.27  613O :  5.24  487O :  5.16  703O :  5.07  268O :  4.95  244O :  4.94   46O :  4.89  541O :  4.76
    7O :  4.64  112O :  4.64  115O :  4.62   97O :  4.55  304O :  4.54  397O :  4.54  298O :  4.47   28O :  4.42  547O :  4.38  283O :  4.38  274O :  4.35  745O :  4.33
  157O :  4.29  754O :  4.20   16O :  4.17  385O :  4.14  190O :  4.09  445O :  4.05  166O :  4.01   85O :  3.92  577O :  3.91  529O :  3.88  103O :  3.86   25O :  3.86
  691O :  3.81  523O :  3.80  481O :  3.70  130O :  3.70  202O :  3.65  409O :  3.62  631O :  3.61  364O :  3.58  250O :  3.57  226O :  3.54  511O :  3.50  316O :  3.41
  337O :  3.35  598O :  3.33  217O :  3.33  508O :  3.33  433O :  3.30  358O :  3.26  544O :  3.26  133O :  3.19  682O :  3.17  334O :  3.17  277O :  3.17  319O :  3.15
  586O :  3.14  562O :  3.11  637O :  3.04  730O :  2.97  280O :  2.96  163O :  2.95  520O :  2.93  370O :  2.93  346O :  2.91  322O :  2.87  499O :  2.86   94O :  2.85
  604O :  2.81  580O :  2.78  331O :  2.76   43O :  2.72  430O :  2.68   79O :  2.67  223O :  2.66  490O :  2.66  160O :  2.58  361O :  2.52  172O :  2.51  634O :  2.51
  535O :  2.50  526O :  2.47  109O :  2.45  313O :  2.43   67O :  2.40  574O :  2.38   13O :  2.35  247O :  2.31  457O :  2.27  610O :  2.23  622O :  2.21  454O :  2.21
  655O :  2.19  733O :  2.14  382O :  2.12  625O :  2.12  310O :  2.11  694O :  2.03  259O :  2.01  484O :  2.00  658O :  1.99   55O :  1.96  229O :  1.95  742O :  1.87
  124O :  1.87   58O :  1.86    1O :  1.83  196O :  1.80  595O :  1.76   88O :  1.76  427O :  1.75  262O :  1.75  661O :  1.75   52O :  1.73  151O :  1.71  565O :  1.70
  469O :  1.67  748O :  1.62  424O :  1.60  478O :  1.59   93H :  1.59  451O :  1.58  286O :  1.58  715O :  1.57  553O :  1.57  199O :  1.56  123H :  1.54   71H :  1.53
  727O :  1.49  640O :  1.48  589O :  1.48  394O :  1.48  616O :  1.45  184O :  1.45  415O :  1.45  442O :  1.44  496O :  1.43   61O :  1.42  502O :  1.42  169O :  1.42
  739O :  1.40  472O :  1.31  460O :  1.31   32H :  1.30  718O :  1.28  601O :  1.27  187O :  1.26  700O :  1.24   47H :  1.24  736O :  1.22  676O :  1.20   64O :  1.18
  265O :  1.18  238O :  1.18  724O :  1.15  664O :  1.15  178O :  1.14  328O :  1.14  418O :  1.11  594H :  1.11  162H :  1.08  679O :  1.07  629H :  1.05  548H :  1.04
  181O :  1.04  340O :  1.04  568O :  1.02  349O :  1.01  403O :  1.01  343O :  1.00  652O :  0.99  649O :  0.99  583O :  0.98  235O :  0.96  175O :  0.93  106O :  0.87
  271O :  0.84  400O :  0.84   11H :  0.83  671H :  0.83  482H :  0.82  275H :  0.80  560H :  0.79  154O :  0.78  352O :  0.78   34O :  0.75  517O :  0.74   50H :  0.73
  639H :  0.72   26H :  0.72  573H :  0.71  252H :  0.69  556O :  0.69  102H :  0.68  410H :  0.67  712O :  0.66  285H :  0.66  136O :  0.65   72H :  0.65  607O :  0.64
  685O :  0.62  158H :  0.61  318H :  0.61  390H :  0.58  333H :  0.58  249H :  0.57  673O :  0.56  438H :  0.54  752H :  0.54  564H :  0.54  284H :  0.54  164H :  0.54
  204H :  0.53  550O :  0.53  466O :  0.52   98H :  0.52  646O :  0.51  621H :  0.51  479H :  0.51  522H :  0.51  301O :  0.51  131H :  0.51  212H :  0.51  126H :  0.50
  127O :  0.50  257H :  0.50   83H :  0.49  407H :  0.48  446H :  0.47  360H :  0.47   35H :  0.47  305H :  0.47   44H :  0.47   66H :  0.47  214O :  0.46  186H :  0.46
  276H :  0.45  120H :  0.45  367O :  0.45  221H :  0.44  182H :  0.44  421O :  0.43  611H :  0.43   18H :  0.43  657H :  0.43  500H :  0.42  219H :  0.42    5H :  0.41
  117H :  0.41  615H :  0.41  545H :  0.40  263H :  0.40  191H :  0.40   75H :  0.39  245H :  0.39  660H :  0.38  443H :  0.38  753H :  0.38  624H :  0.38  437H :  0.38
  205O :  0.38  537H :  0.37  542H :  0.36  435H :  0.36  113H :  0.36   69H :  0.35  255H :  0.35  146H :  0.33  270H :  0.33    3H :  0.33  317H :  0.33  258H :  0.32
  339H :  0.32  744H :  0.31  683H :  0.31  363H :  0.30  738H :  0.30   96H :  0.29  458H :  0.29  669H :  0.29  688O :  0.29  475O :  0.28  396H :  0.28  638H :  0.28
  698H :  0.28  731H :  0.27  593H :  0.27   38H :  0.27  272H :  0.27  197H :  0.26  239H :  0.26  228H :  0.26  603H :  0.26  444H :  0.26  391O :  0.26  362H :  0.26
  569H :  0.26  168H :  0.26  494H :  0.25  504H :  0.25   62H :  0.25  618H :  0.24  289O :  0.24  399H :  0.24  412O :  0.24  144H :  0.24   74H :  0.23  626H :  0.23
  693H :  0.23  174H :  0.23   12H :  0.23   56H :  0.23  329H :  0.23  193O :  0.23  210H :  0.22  597H :  0.22  308H :  0.22  459H :  0.21  524H :  0.21  530H :  0.21
  734H :  0.21  449H :  0.21  756H :  0.20  710H :  0.20  254H :  0.20  208O :  0.20  684H :  0.20  434H :  0.19  672H :  0.19  324H :  0.19  501H :  0.19  505O :  0.18
  627H :  0.18  668H :  0.18   30H :  0.18  491H :  0.18  531H :  0.18  188H :  0.18   63H :  0.18  431H :  0.18  429H :  0.17  297H :  0.17  155H :  0.17  585H :  0.17
  636H :  0.17  326H :  0.17  720H :  0.16   27H :  0.16  273H :  0.16  114H :  0.16  749H :  0.16  488H :  0.16  483H :  0.16  380H :  0.16  527H :  0.16  332H :  0.15
  432H :  0.15  173H :  0.15   48H :  0.15  101H :  0.15  139O :  0.15  455H :  0.15  170H :  0.15  590H :  0.15  260H :  0.15  612H :  0.14  314H :  0.14  189H :  0.14
  241O :  0.14  687H :  0.14   33H :  0.14  267H :  0.13  327H :  0.13  351H :  0.13  620H :  0.13  578H :  0.13  726H :  0.13  143H :  0.13  302H :  0.13  356H :  0.12
   99H :  0.12  722H :  0.12  234H :  0.12  296H :  0.12   17H :  0.12  222H :  0.12  422H :  0.12  134H :  0.12  230H :  0.11  122H :  0.11  309H :  0.11  579H :  0.11
  425H :  0.11  198H :  0.11  372H :  0.11  464H :  0.11  414H :  0.11  741H :  0.11  246H :  0.11  650H :  0.11   24H :  0.11  116H :  0.11  471H :  0.11  605H :  0.10
  110H :  0.10  426H :  0.10  206H :  0.10  311H :  0.10  366H :  0.10   51H :  0.10   95H :  0.09   86H :  0.09  576H :  0.09  536H :  0.09   39H :  0.09  236H :  0.09
  707H :  0.09  728H :  0.09  282H :  0.09  176H :  0.09   65H :  0.08  563H :  0.08  371H :  0.08  287H :  0.08  125H :  0.08   45H :  0.08  689H :  0.08  596H :  0.08
  755H :  0.08  713H :  0.08  702H :  0.08  357H :  0.08  368H :  0.07  506H :  0.07  716H :  0.07  518H :  0.07  342H :  0.07  179H :  0.07
    7 LP   *******   0.00  15.17089  45.72753  45.12194   91O : 13.67  256O : 12.88  121O : 12.68   82O : 11.70   31O : 11.56  355O : 10.38  100O : 10.27    4O :  9.77   19O :  9.55   10O :  9.13  538O :  8.65  493O :  8.32
  619O :  8.23  148O :  8.05   22O :  7.97  211O :  7.95  220O :  7.90  706O :  7.70  253O :  7.56   40O :  7.43  439O :  7.41  142O :  7.40   73O :  7.15  295O :  7.00
  643O :  6.91  436O :  6.80  721O :  6.74  379O :  6.73  325O :  6.67  118O :  6.46  571O :  6.43   49O :  6.25  463O :  6.24  388O :  6.21  559O :  6.16   70O :  6.11
  670O :  6.06  514O :  5.96  592O :  5.87  373O :  5.86  628O :  5.79  667O :  5.66  307O :  5.66   37O :  5.53  709O :  5.50  232O :  5.47  751O :  5.44   76O :  5.29
  145O :  5.27  448O :  5.27  292O :  5.26  406O :  5.23  697O :  5.19  613O :  5.15  487O :  5.08  703O :  4.99  268O :  4.86  244O :  4.86   46O :  4.81  541O :  4.68
    7O :  4.56  112O :  4.56  115O :  4.55   97O :  4.51  304O :  4.47  397O :  4.47  298O :  4.40   28O :  4.35  547O :  4.31  283O :  4.31  274O :  4.28  745O :  4.26
  157O :  4.22  754O :  4.13   16O :  4.09  385O :  4.07  166O :  4.05  190O :  4.02  445O :  3.99  103O :  3.89   85O :  3.85  577O :  3.85  529O :  3.81   25O :  3.80
  691O :  3.75  523O :  3.74  481O :  3.64  130O :  3.64  202O :  3.59  409O :  3.56  631O :  3.55  250O :  3.52  364O :  3.52  226O :  3.48  511O :  3.44  316O :  3.36
  337O :  3.29  598O :  3.28  508O :  3.28  217O :  3.28  433O :  3.25  358O :  3.21  544O :  3.20  133O :  3.13  682O :  3.12  334O :  3.12  277O :  3.11  319O :  3.09
  586O :  3.09  562O :  3.06  280O :  3.05  637O :  2.99  730O :  2.92  163O :  2.90  520O :  2.89  370O :  2.88  346O :  2.86  322O :  2.82  499O :  2.81   94O :  2.80
  604O :  2.77  580O :  2.74  331O :  2.71   43O :  2.67  430O :  2.63   79O :  2.63  223O :  2.62  490O :  2.61  160O :  2.54  361O :  2.47  172O :  2.47  634O :  2.47
  535O :  2.45  526O :  2.43  109O :  2.41  313O :  2.39   67O :  2.37  574O :  2.34   13O :  2.31  247O :  2.28  457O :  2.23  610O :  2.19  622O :  2.17  454O :  2.17
  655O :  2.15  733O :  2.10  382O :  2.09  625O :  2.08  310O :  2.08  694O :  2.00  259O :  1.98  484O :  1.96  658O :  1.95   55O :  1.92  229O :  1.92  742O :  1.84
   58O :  1.83    1O :  1.80  124O :  1.79  196O :  1.77  595O :  1.73   88O :  1.73  427O :  1.73  262O :  1.72  661O :  1.72   52O :  1.70  123H :  1.70  151O :  1.68
  565O :  1.67  469O :  1.65  748O :  1.60  424O :  1.58  478O :  1.57   93H :  1.56  451O :  1.55  286O :  1.55  715O :  1.55  553O :  1.54  199O :  1.53   71H :  1.50
  727O :  1.47  589O :  1.46  640O :  1.46  394O :  1.46  616O :  1.43  184O :  1.43  415O :  1.42  442O :  1.42  496O :  1.41   61O :  1.40  169O :  1.40  502O :  1.40
  739O :  1.38  472O :  1.29  460O :  1.29   32H :  1.28  718O :  1.26  601O :  1.25  187O :  1.24  700O :  1.22   47H :  1.22  736O :  1.20  676O :  1.18   64O :  1.17
  265O :  1.16  238O :  1.16  724O :  1.14  664O :  1.13  178O :  1.12  328O :  1.12  181O :  1.10  418O :  1.09  594H :  1.09  162H :  1.06  679O :  1.06  629H :  1.03
  548H :  1.03  340O :  1.02  568O :  1.01  403O :  1.00  349O :  1.00  343O :  0.98  652O :  0.98  649O :  0.97  583O :  0.96  235O :  0.94  175O :  0.92  106O :  0.86
  271O :  0.83  400O :  0.82   11H :  0.82  671H :  0.82  482H :  0.81  275H :  0.79  560H :  0.78  154O :  0.77  352O :  0.77   34O :  0.74  517O :  0.72   50H :  0.72
  639H :  0.71   26H :  0.70  573H :  0.70  252H :  0.69  556O :  0.68  102H :  0.67  410H :  0.65  285H :  0.65  712O :  0.65  136O :  0.64   72H :  0.64  607O :  0.63
  685O :  0.61  318H :  0.60  158H :  0.60  390H :  0.57  333H :  0.57  249H :  0.56  673O :  0.55  212H :  0.54  438H :  0.54  564H :  0.53  752H :  0.53  284H :  0.53
  164H :  0.53  204H :  0.52  550O :  0.52  466O :  0.52   98H :  0.51  646O :  0.50  621H :  0.50  479H :  0.50  522H :  0.50  131H :  0.50  301O :  0.50  127O :  0.49
  257H :  0.49  126H :  0.48   83H :  0.48  407H :  0.47  446H :  0.47  360H :  0.47   35H :  0.46  305H :  0.46   66H :  0.46   44H :  0.46  214O :  0.46  186H :  0.45
  120H :  0.45  276H :  0.45  367O :  0.45  182H :  0.44  221H :  0.43  421O :  0.43  611H :  0.42   18H :  0.42  657H :  0.42  500H :  0.41  219H :  0.41  615H :  0.40
  117H :  0.40  545H :  0.40  263H :  0.39  191H :  0.39   75H :  0.38  245H :  0.38  753H :  0.38  660H :  0.37  443H :  0.37  624H :  0.37  437H :  0.37  205O :  0.37
  537H :  0.37   69H :  0.36  255H :  0.35  542H :  0.35  435H :  0.35  113H :  0.35  146H :  0.33  270H :  0.33    3H :  0.33  317H :  0.32  258H :  0.32  339H :  0.31
  744H :  0.31  683H :  0.31  363H :  0.30    5H :  0.30  738H :  0.29   96H :  0.29  458H :  0.29  669H :  0.28  688O :  0.28  475O :  0.28  396H :  0.28  638H :  0.27
  698H :  0.27  731H :  0.27  593H :  0.26   38H :  0.26  272H :  0.26  197H :  0.26  239H :  0.26  228H :  0.26  603H :  0.26  444H :  0.25  391O :  0.25  362H :  0.25
  569H :  0.25  494H :  0.25  504H :  0.25  168H :  0.25  618H :  0.24  289O :  0.24  399H :  0.23  412O :  0.23  144H :  0.23   56H :  0.23   74H :  0.23  626H :  0.23
  693H :  0.23  174H :  0.23   12H :  0.23  329H :  0.23  193O :  0.22  210H :  0.22  597H :  0.21  308H :  0.21  459H :  0.21  254H :  0.21  524H :  0.21  530H :  0.20
  449H :  0.20  734H :  0.20  710H :  0.20  756H :  0.20  208O :  0.20  684H :  0.19  434H :  0.19  672H :  0.19  324H :  0.18  501H :  0.18  505O :  0.18  627H :  0.18
  668H :  0.18   30H :  0.18  491H :  0.18  531H :  0.18  188H :  0.17  431H :  0.17   63H :  0.17  429H :  0.17  297H :  0.17  155H :  0.17  585H :  0.16  636H :  0.16
  326H :  0.16  720H :  0.16   27H :  0.16  273H :  0.16  114H :  0.16  749H :  0.16   62H :  0.16  488H :  0.16  483H :  0.16  380H :  0.15  527H :  0.15  332H :  0.15
  432H :  0.15  173H :  0.15   48H :  0.15  101H :  0.15  139O :  0.15  455H :  0.15  170H :  0.15  260H :  0.15  612H :  0.14  314H :  0.14  189H :  0.14  241O :  0.14
  687H :  0.14   33H :  0.13  267H :  0.13  327H :  0.13  351H :  0.13  590H :  0.13  620H :  0.13  578H :  0.13  726H :  0.13  143H :  0.13  302H :  0.12  356H :  0.12
  722H :  0.12  234H :  0.12  296H :  0.12   17H :  0.12  222H :  0.12  422H :  0.11  134H :  0.11  230H :  0.11  309H :  0.11  579H :  0.11  425H :  0.11  198H :  0.11
  372H :  0.11  464H :  0.11  414H :  0.11  741H :  0.11  246H :  0.11  650H :  0.11  471H :  0.11   24H :  0.11  116H :  0.11   99H :  0.10  605H :  0.10  110H :  0.10
  426H :  0.10  206H :  0.10  311H :  0.10  366H :  0.10   51H :  0.09   95H :  0.09   86H :  0.09  576H :  0.09  536H :  0.09   39H :  0.09  236H :  0.09  707H :  0.09
  728H :  0.09  176H :  0.08   65H :  0.08  563H :  0.08  371H :  0.08  282H :  0.08  287H :  0.08   45H :  0.08  689H :  0.08  596H :  0.08  125H :  0.08  755H :  0.08
  702H :  0.07  357H :  0.07  368H :  0.07  713H :  0.07  506H :  0.07
    8 LP   *******   0.00  -2.10545   9.90615 -13.02749  256O : 14.98   91O : 12.98  121O : 12.04   82O : 11.12   31O : 10.98  355O :  9.86  100O :  9.75   19O :  9.07   10O :  8.66  538O :  8.21  493O :  7.90  619O :  7.82
    4O :  7.67  148O :  7.65   22O :  7.57  220O :  7.50  211O :  7.36  706O :  7.32   40O :  7.05  439O :  7.04  142O :  7.03  253O :  6.99   73O :  6.78  295O :  6.65
  643O :  6.56  436O :  6.45  721O :  6.40  379O :  6.39  325O :  6.33  118O :  6.14  571O :  6.11   49O :  5.94  463O :  5.93  388O :  5.91  559O :  5.84   70O :  5.80
  670O :  5.75  514O :  5.66  592O :  5.58  373O :  5.57  628O :  5.50  667O :  5.38  307O :  5.38   37O :  5.26  709O :  5.23  232O :  5.20  751O :  5.17  448O :  5.03
   76O :  5.02  145O :  5.01  292O :  5.00  406O :  4.97  697O :  4.93  613O :  4.89  487O :  4.83  703O :  4.74  244O :  4.61  268O :  4.59   46O :  4.57  541O :  4.45
    7O :  4.33  112O :  4.33  115O :  4.32  304O :  4.25  397O :  4.24   97O :  4.24  298O :  4.17  547O :  4.09  283O :  4.09  274O :  4.06  745O :  4.04   28O :  4.04
  157O :  4.01  754O :  3.93   16O :  3.88  385O :  3.86  190O :  3.82  445O :  3.79  166O :  3.74  103O :  3.70   85O :  3.66  577O :  3.66  529O :  3.62   25O :  3.61
  691O :  3.56  523O :  3.55  481O :  3.46  130O :  3.46  202O :  3.41  409O :  3.39  631O :  3.37  364O :  3.34  250O :  3.34  226O :  3.31  511O :  3.27  316O :  3.19
  337O :  3.13  598O :  3.12  508O :  3.11  217O :  3.11  433O :  3.09  358O :  3.05  544O :  3.04  133O :  2.98  682O :  2.97  334O :  2.96  277O :  2.96  319O :  2.94
  586O :  2.94  562O :  2.90  280O :  2.90  637O :  2.84  730O :  2.78  163O :  2.75  520O :  2.74  370O :  2.74  346O :  2.71  322O :  2.68  499O :  2.67   94O :  2.66
  604O :  2.63  580O :  2.60  331O :  2.58   43O :  2.53  430O :  2.50   79O :  2.50  223O :  2.49  490O :  2.48  361O :  2.42  160O :  2.41  172O :  2.35  634O :  2.35
  535O :  2.33  526O :  2.31  109O :  2.29  313O :  2.27   67O :  2.25  574O :  2.22   13O :  2.19  247O :  2.16  457O :  2.12  610O :  2.08  622O :  2.07  454O :  2.06
  733O :  2.00  655O :  2.00  382O :  1.98  625O :  1.98  310O :  1.97  694O :  1.90  259O :  1.87  484O :  1.86  658O :  1.86   55O :  1.83  229O :  1.83  742O :  1.75
   58O :  1.74  124O :  1.74    1O :  1.71  196O :  1.68  595O :  1.64   88O :  1.64  427O :  1.64  262O :  1.64  661O :  1.63   52O :  1.62  123H :  1.61  151O :  1.60
  565O :  1.59  469O :  1.56  748O :  1.52  424O :  1.50  478O :  1.49   93H :  1.48  451O :  1.48  286O :  1.47  715O :  1.47  553O :  1.46  199O :  1.46   71H :  1.43
  727O :  1.40  589O :  1.39  640O :  1.38  394O :  1.38  616O :  1.36  184O :  1.35  415O :  1.35  442O :  1.35  496O :  1.34   61O :  1.33  169O :  1.33  502O :  1.33
  739O :  1.31  472O :  1.22  460O :  1.22   32H :  1.22  718O :  1.20  601O :  1.18  187O :  1.18  700O :  1.16   47H :  1.15  265O :  1.14  736O :  1.14  676O :  1.12
   64O :  1.11  238O :  1.10  724O :  1.08  664O :  1.07  178O :  1.07  328O :  1.07  181O :  1.04  418O :  1.04  594H :  1.03  162H :  1.01  679O :  1.00  629H :  0.98
  548H :  0.97  340O :  0.97  568O :  0.96  403O :  0.95  349O :  0.95  343O :  0.93  652O :  0.93  649O :  0.93  583O :  0.91  235O :  0.90  175O :  0.87  106O :  0.82
  271O :  0.78  400O :  0.78   11H :  0.78  671H :  0.78  482H :  0.77  275H :  0.75  560H :  0.74  154O :  0.73  352O :  0.73   34O :  0.72  517O :  0.69   50H :  0.69
  639H :  0.68   26H :  0.67  573H :  0.66  252H :  0.65  556O :  0.64  102H :  0.63  410H :  0.62  712O :  0.62  285H :  0.62  136O :  0.61   72H :  0.61  607O :  0.59
  685O :  0.58  318H :  0.57  158H :  0.57  390H :  0.54  333H :  0.54  249H :  0.54  673O :  0.52  438H :  0.51  564H :  0.51  752H :  0.51  284H :  0.50  164H :  0.50
  204H :  0.49  550O :  0.49  466O :  0.49   98H :  0.48  646O :  0.48  621H :  0.48  479H :  0.48  522H :  0.48  131H :  0.47  301O :  0.47  212H :  0.47  126H :  0.47
  127O :  0.47   35H :  0.46   83H :  0.45  407H :  0.45  446H :  0.44  360H :  0.44  305H :  0.44   66H :  0.44   44H :  0.43  214O :  0.43  186H :  0.43  120H :  0.43
  276H :  0.43  367O :  0.42  182H :  0.42  221H :  0.41  257H :  0.40  421O :  0.40  611H :  0.40   18H :  0.40  500H :  0.39  657H :  0.39  219H :  0.39    5H :  0.39
  615H :  0.38  117H :  0.38  545H :  0.38  263H :  0.37  191H :  0.37   75H :  0.37  362H :  0.36  245H :  0.36  753H :  0.36  443H :  0.36  660H :  0.36  624H :  0.36
  437H :  0.35  205O :  0.35  537H :  0.35   69H :  0.34  542H :  0.33  435H :  0.33  113H :  0.33  258H :  0.33  255H :  0.33  146H :  0.31  270H :  0.31    3H :  0.31
  317H :  0.31  339H :  0.30  744H :  0.29  683H :  0.29  363H :  0.28  738H :  0.28   96H :  0.27  458H :  0.27  669H :  0.27  688O :  0.27  475O :  0.26  396H :  0.26
  638H :  0.26  698H :  0.26  731H :  0.25  593H :  0.25   38H :  0.25  272H :  0.25  197H :  0.25  239H :  0.25  228H :  0.24  603H :  0.24  391O :  0.24  444H :  0.24
  569H :  0.24  168H :  0.24  494H :  0.24  504H :  0.24  618H :  0.23  289O :  0.23  412O :  0.22  399H :  0.22  144H :  0.22   74H :  0.22   56H :  0.22  626H :  0.22
  693H :  0.22  174H :  0.22   12H :  0.22  329H :  0.21  193O :  0.21  210H :  0.21  597H :  0.20  308H :  0.20  459H :  0.20  524H :  0.20  530H :  0.19  734H :  0.19
  449H :  0.19  710H :  0.19  254H :  0.19  756H :  0.19  208O :  0.19  684H :  0.18  434H :  0.18  672H :  0.18  324H :  0.17  501H :  0.17  505O :  0.17  627H :  0.17
  668H :  0.17  491H :  0.17  531H :  0.17   30H :  0.17  188H :  0.16  431H :  0.16   63H :  0.16  429H :  0.16  297H :  0.16  155H :  0.16  585H :  0.16  636H :  0.16
  326H :  0.15  720H :  0.15   27H :  0.15  273H :  0.15  114H :  0.15  749H :  0.15   62H :  0.15  488H :  0.15  483H :  0.15  380H :  0.15  527H :  0.15  332H :  0.14
  432H :  0.14  173H :  0.14   48H :  0.14  101H :  0.14  139O :  0.14  267H :  0.14  455H :  0.14  170H :  0.14  590H :  0.14  612H :  0.14  314H :  0.13  189H :  0.13
  260H :  0.13  241O :  0.13  687H :  0.13   33H :  0.13  327H :  0.12  351H :  0.12  620H :  0.12  578H :  0.12  726H :  0.12  143H :  0.12  302H :  0.12  356H :  0.12
   99H :  0.12  722H :  0.11  234H :  0.11  296H :  0.11   17H :  0.11  222H :  0.11  422H :  0.11  134H :  0.11  230H :  0.11  309H :  0.11  579H :  0.11  425H :  0.11
  198H :  0.10  372H :  0.10  464H :  0.10  414H :  0.10  741H :  0.10  246H :  0.10  650H :  0.10   24H :  0.10  116H :  0.10  471H :  0.10  605H :  0.09  110H :  0.09
  426H :  0.09  206H :  0.09  311H :  0.09  366H :  0.09   51H :  0.09   95H :  0.09   86H :  0.09  576H :  0.09  536H :  0.08   39H :  0.08  236H :  0.08  707H :  0.08
  728H :  0.08  176H :  0.08   65H :  0.08  563H :  0.08  371H :  0.08  282H :  0.08  287H :  0.08   45H :  0.08  125H :  0.07  689H :  0.07  596H :  0.07  755H :  0.07
  713H :  0.07  702H :  0.07  357H :  0.07
    9 LP   *******   0.00  44.49499 -26.01185   2.86755   91O : 12.45  256O : 11.73  121O : 11.55   82O : 10.66   31O : 10.53  619O :  9.94  355O :  9.45  100O :  9.35   19O :  8.70   10O :  8.31  538O :  7.88  493O :  7.57
    4O :  7.35  148O :  7.33   22O :  7.26  220O :  7.19  211O :  7.06  706O :  7.02   40O :  6.76  439O :  6.75  142O :  6.74  253O :  6.70   73O :  6.50  295O :  6.37
  643O :  6.29  436O :  6.19  721O :  6.14  379O :  6.13  325O :  6.07  118O :  5.89  571O :  5.86   49O :  5.70  463O :  5.69  388O :  5.67  559O :  5.60   70O :  5.56
  670O :  5.52  514O :  5.43  592O :  5.36  373O :  5.34  628O :  5.28  307O :  5.16  667O :  5.16   37O :  5.04  709O :  5.01  232O :  4.99  751O :  4.96  448O :  4.82
   76O :  4.81  145O :  4.80  292O :  4.79  406O :  4.77  697O :  4.73  613O :  4.69  487O :  4.63  703O :  4.54  268O :  4.43  244O :  4.42   46O :  4.38  541O :  4.27
    7O :  4.16  112O :  4.15  115O :  4.15  304O :  4.07  397O :  4.07   97O :  4.07  298O :  4.00   28O :  3.96  283O :  3.92  547O :  3.92  745O :  3.88  157O :  3.84
  274O :  3.83  754O :  3.77   16O :  3.72  385O :  3.71  190O :  3.67  445O :  3.63  166O :  3.59  103O :  3.55   85O :  3.51  577O :  3.50  529O :  3.47   25O :  3.46
  691O :  3.42  523O :  3.41  481O :  3.32  130O :  3.32  202O :  3.27  409O :  3.25  631O :  3.23  364O :  3.20  250O :  3.20  226O :  3.17  511O :  3.14  316O :  3.06
  337O :  3.00  598O :  2.99  217O :  2.98  508O :  2.98  433O :  2.96  358O :  2.93  544O :  2.92  133O :  2.85  682O :  2.84  334O :  2.84  277O :  2.84  319O :  2.82
  586O :  2.82  562O :  2.79  280O :  2.78  637O :  2.72  730O :  2.66  163O :  2.64  520O :  2.63  370O :  2.63  346O :  2.60  322O :  2.57  499O :  2.56   94O :  2.55
  604O :  2.52  580O :  2.49  331O :  2.47   43O :  2.44  430O :  2.40   79O :  2.39  223O :  2.38  490O :  2.38  160O :  2.31  361O :  2.25  172O :  2.25  634O :  2.25
  535O :  2.23  526O :  2.22  109O :  2.19  313O :  2.18   67O :  2.16  574O :  2.13   13O :  2.10  247O :  2.07  457O :  2.03  610O :  1.99  622O :  1.98  454O :  1.98
  655O :  1.96  733O :  1.92  382O :  1.90  625O :  1.90  310O :  1.89  694O :  1.82  259O :  1.80  484O :  1.79  658O :  1.78   55O :  1.75  229O :  1.75  742O :  1.68
   58O :  1.67  124O :  1.67  196O :  1.62    1O :  1.60  595O :  1.58   88O :  1.57  427O :  1.57  262O :  1.57  661O :  1.57   52O :  1.55  123H :  1.55  151O :  1.53
  565O :  1.52  469O :  1.49  748O :  1.45  424O :  1.44  478O :  1.43   93H :  1.42  451O :  1.42  286O :  1.41  715O :  1.41  553O :  1.40  199O :  1.40   71H :  1.37
  727O :  1.34  589O :  1.33  640O :  1.33  394O :  1.33  616O :  1.30  184O :  1.30  415O :  1.30  442O :  1.29  496O :  1.28   61O :  1.28  169O :  1.28  502O :  1.28
  739O :  1.25  472O :  1.17  460O :  1.17   32H :  1.17  718O :  1.15  601O :  1.13  187O :  1.13  700O :  1.11   47H :  1.11  736O :  1.09  676O :  1.07   64O :  1.06
  265O :  1.06  238O :  1.06  664O :  1.04  724O :  1.03  178O :  1.02  328O :  1.02  594H :  1.00  181O :  1.00  418O :  1.00  162H :  0.97  679O :  0.96  629H :  0.94
  548H :  0.93  340O :  0.93  568O :  0.92  403O :  0.91  349O :  0.91  343O :  0.89  652O :  0.89  649O :  0.89  235O :  0.86  583O :  0.84  175O :  0.84  106O :  0.78
  271O :  0.75  400O :  0.75   11H :  0.74  671H :  0.74  482H :  0.73  275H :  0.73  560H :  0.71  154O :  0.70  352O :  0.70   34O :  0.67  517O :  0.66   50H :  0.66
  639H :  0.65   26H :  0.64  573H :  0.63  252H :  0.62  556O :  0.62  102H :  0.61  410H :  0.60  712O :  0.59  285H :  0.59  136O :  0.58   72H :  0.58  607O :  0.57
  685O :  0.56  318H :  0.54  158H :  0.54  390H :  0.52  333H :  0.52  249H :  0.51  673O :  0.50  438H :  0.49  564H :  0.49  752H :  0.49  284H :  0.48  164H :  0.48
  204H :  0.47  550O :  0.47  466O :  0.47   98H :  0.46  646O :  0.46  479H :  0.46  522H :  0.46  131H :  0.46  301O :  0.45  212H :  0.45  126H :  0.45  127O :  0.45
  257H :  0.45   83H :  0.44  407H :  0.43  446H :  0.43  360H :  0.43   35H :  0.42  305H :  0.42   66H :  0.42   44H :  0.42  214O :  0.42  186H :  0.41  120H :  0.41
  367O :  0.41  182H :  0.40  276H :  0.40  221H :  0.39  621H :  0.39  421O :  0.39  611H :  0.39   18H :  0.39  657H :  0.38  500H :  0.38  219H :  0.37    5H :  0.37
  615H :  0.36  117H :  0.36  545H :  0.36  263H :  0.36  191H :  0.35   75H :  0.35  245H :  0.35  753H :  0.34  660H :  0.34  443H :  0.34  624H :  0.34  437H :  0.34
  205O :  0.34  537H :  0.34   69H :  0.32  542H :  0.32  435H :  0.32  113H :  0.32  255H :  0.32    3H :  0.30  146H :  0.30  270H :  0.30  317H :  0.30  258H :  0.29
  339H :  0.28  744H :  0.28  683H :  0.28  363H :  0.27  738H :  0.27   96H :  0.26  458H :  0.26  669H :  0.26  688O :  0.26  475O :  0.25  396H :  0.25  638H :  0.25
  698H :  0.25  731H :  0.24  593H :  0.24   38H :  0.24  272H :  0.24  197H :  0.24  239H :  0.24  228H :  0.23  603H :  0.23  444H :  0.23  391O :  0.23  362H :  0.23
  569H :  0.23  168H :  0.23  494H :  0.23  504H :  0.23  618H :  0.22  289O :  0.22  399H :  0.21  412O :  0.21  144H :  0.21   74H :  0.21   56H :  0.21  626H :  0.21
  693H :  0.21  174H :  0.21   12H :  0.21  329H :  0.21  193O :  0.20  210H :  0.20  597H :  0.19  308H :  0.19  459H :  0.19  530H :  0.19  524H :  0.19  734H :  0.19
  449H :  0.19  710H :  0.18  254H :  0.18  756H :  0.18  208O :  0.18  684H :  0.18  434H :  0.17  672H :  0.17  324H :  0.17  501H :  0.17  505O :  0.16  627H :  0.16
  668H :  0.16   30H :  0.16  491H :  0.16  531H :  0.16  188H :  0.16  431H :  0.16   63H :  0.16  429H :  0.16  297H :  0.15  155H :  0.15  636H :  0.15  326H :  0.15
  720H :  0.15   27H :  0.14  273H :  0.14  114H :  0.14  749H :  0.14   62H :  0.14  585H :  0.14  488H :  0.14  483H :  0.14  380H :  0.14  527H :  0.14  332H :  0.14
  432H :  0.14  173H :  0.14   48H :  0.14  101H :  0.14  139O :  0.13  455H :  0.13  170H :  0.13  590H :  0.13  260H :  0.13  612H :  0.13  314H :  0.13  189H :  0.13
  241O :  0.13  687H :  0.13   33H :  0.12  267H :  0.12  327H :  0.12  351H :  0.12  578H :  0.12  726H :  0.12  143H :  0.11  302H :  0.11  356H :  0.11   99H :  0.11
  722H :  0.11  234H :  0.11  296H :  0.11   17H :  0.11  222H :  0.11  422H :  0.10  134H :  0.10  230H :  0.10  309H :  0.10  579H :  0.10  425H :  0.10  198H :  0.10
  372H :  0.10  464H :  0.10  414H :  0.10  741H :  0.10  650H :  0.10  246H :  0.10   24H :  0.10  116H :  0.10  471H :  0.09  605H :  0.09  110H :  0.09  426H :  0.09
  206H :  0.09  311H :  0.09  366H :  0.09   51H :  0.09   95H :  0.08   86H :  0.08  576H :  0.08  536H :  0.08   39H :  0.08  236H :  0.08  707H :  0.08  728H :  0.08
  620H :  0.08  176H :  0.08   65H :  0.08  563H :  0.08  371H :  0.08  282H :  0.07  287H :  0.07   45H :  0.07  125H :  0.07  689H :  0.07  596H :  0.07
   10 LP   *******   0.00   1.33634  -6.09576   5.87021  121O : 13.00   91O : 11.91  256O : 11.23   82O : 10.20   31O : 10.08  355O :  9.04  100O :  8.92   19O :  8.33   10O :  7.95  538O :  7.54  493O :  7.25  619O :  7.17
    4O :  7.04  148O :  7.02   22O :  6.97  220O :  6.88  211O :  6.75  706O :  6.71   40O :  6.47  439O :  6.46  253O :  6.41  142O :  6.39   73O :  6.23  295O :  6.10
  643O :  6.02  436O :  5.92  721O :  5.87  379O :  5.87  325O :  5.81  118O :  5.63  571O :  5.60   49O :  5.46  463O :  5.44  388O :  5.42  559O :  5.36   70O :  5.32
  670O :  5.28  514O :  5.19  592O :  5.12  373O :  5.11  628O :  5.05  667O :  4.94  307O :  4.94   37O :  4.82  709O :  4.80  232O :  4.77  751O :  4.75  448O :  4.62
   76O :  4.61  145O :  4.60  292O :  4.58  406O :  4.56  697O :  4.52  613O :  4.49  487O :  4.43  703O :  4.35  268O :  4.24  244O :  4.23   46O :  4.20  541O :  4.08
    7O :  3.98  112O :  3.98  115O :  3.97  304O :  3.90  397O :  3.89   97O :  3.89  298O :  3.84   28O :  3.79  283O :  3.76  547O :  3.76  274O :  3.73  745O :  3.71
  157O :  3.68  754O :  3.61   16O :  3.57  385O :  3.55  190O :  3.51  445O :  3.48  166O :  3.44  103O :  3.39   85O :  3.36  577O :  3.35  529O :  3.32   25O :  3.31
  691O :  3.27  523O :  3.26  481O :  3.18  130O :  3.17  202O :  3.13  409O :  3.11  631O :  3.09  364O :  3.07  250O :  3.07  226O :  3.04  511O :  3.00  316O :  2.93
  337O :  2.87  598O :  2.86  508O :  2.86  217O :  2.86  433O :  2.83  358O :  2.81  544O :  2.79  133O :  2.73  682O :  2.72  334O :  2.72  277O :  2.71  319O :  2.70
[...]
   369   1 h    0.867 --   367 o    0.787
   370   8 o    1.836 --   372 h    0.865   371 h    0.841
   371   1 h    0.890 --   370 o    0.841
   372   1 h    0.900 --   370 o    0.865
   373   8 o    1.830 --   375 h    0.911   374 h    0.796
   374   1 h    0.878 --   373 o    0.796
   375   1 h    0.917 --   373 o    0.911
   376   8 o    1.858 --   377 h    0.849   378 h    0.808
   377   1 h    0.895 --   376 o    0.849
   378   1 h    0.875 --   376 o    0.808
   379   8 o    1.855 --   380 h    0.827   381 h    0.806
   380   1 h    0.886 --   379 o    0.827
   381   1 h    0.888 --   379 o    0.806
   382   8 o    1.883 --   384 h    0.826   383 h    0.801
   383   1 h    0.878 --   382 o    0.801
   384   1 h    0.889 --   382 o    0.826
   385   8 o    1.832 --   386 h    0.904   387 h    0.795
   386   1 h    0.914 --   385 o    0.904
   387   1 h    0.878 --   385 o    0.795
   388   8 o    1.881 --   390 h    0.829   389 h    0.811
   389   1 h    0.867 --   388 o    0.811
   390   1 h    0.882 --   388 o    0.829
   391   8 o    1.854 --   393 h    0.855   392 h    0.818
   392   1 h    0.872 --   391 o    0.818
   393   1 h    0.896 --   391 o    0.855
   394   8 o    1.868 --   396 h    0.847   395 h    0.826
   395   1 h    0.884 --   394 o    0.826
   396   1 h    0.894 --   394 o    0.847
   397   8 o    1.820 --   398 h    0.840   399 h    0.815
   398   1 h    0.895 --   397 o    0.840
   399   1 h    0.887 --   397 o    0.815
   400   8 o    1.860 --   402 h    0.907   401 h    0.803
   401   1 h    0.879 --   400 o    0.803
   402   1 h    0.913 --   400 o    0.907
   403   8 o    1.846 --   404 h    0.824   405 h    0.804
   404   1 h    0.886 --   403 o    0.824
   405   1 h    0.877 --   403 o    0.804
   406   8 o    1.861 --   407 h    0.810   408 h    0.803
   407   1 h    0.878 --   406 o    0.810
   408   1 h    0.877 --   406 o    0.803
   409   8 o    1.868 --   411 h    0.804   410 h    0.803
   410   1 h    0.884 --   409 o    0.803
   411   1 h    0.872 --   409 o    0.804
   412   8 o    1.849 --   414 h    0.824   413 h    0.775
   413   1 h    0.875 --   412 o    0.775
   414   1 h    0.878 --   412 o    0.824
   415   8 o    1.843 --   416 h    0.882   417 h    0.816
   416   1 h    0.906 --   415 o    0.882
   417   1 h    0.889 --   415 o    0.816
   418   8 o    1.853 --   420 h    0.860   419 h    0.819
   419   1 h    0.877 --   418 o    0.819
   420   1 h    0.892 --   418 o    0.860
   421   8 o    1.847 --   423 h    0.845   422 h    0.785
   422   1 h    0.871 --   421 o    0.785
   423   1 h    0.887 --   421 o    0.845
   424   8 o    1.868 --   425 h    0.811   426 h    0.810
   425   1 h    0.889 --   424 o    0.811
   426   1 h    0.881 --   424 o    0.810
   427   8 o    1.837 --   429 h    0.811   428 h    0.802
   428   1 h    0.879 --   427 o    0.802
   429   1 h    0.888 --   427 o    0.811
   430   8 o    1.840 --   432 h    0.853   431 h    0.796
   431   1 h    0.871 --   430 o    0.796
   432   1 h    0.898 --   430 o    0.853
   433   8 o    1.843 --   434 h    0.874   435 h    0.806
   434   1 h    0.902 --   433 o    0.874
   435   1 h    0.875 --   433 o    0.806
   436   8 o    1.837 --   437 h    0.907   438 h    0.801
   437   1 h    0.916 --   436 o    0.907
   438   1 h    0.875 --   436 o    0.801
   439   8 o    1.841 --   441 h    0.871   440 h    0.797
   440   1 h    0.877 --   439 o    0.797
   441   1 h    0.900 --   439 o    0.871
   442   8 o    1.827 --   444 h    0.817   443 h    0.787
   443   1 h    0.873 --   442 o    0.787
   444   1 h    0.889 --   442 o    0.817
   445   8 o    1.832 --   446 h    0.900   447 h    0.800
   446   1 h    0.911 --   445 o    0.900
   447   1 h    0.878 --   445 o    0.800
   448   8 o    1.885 --   449 h    0.829   450 h    0.816
   449   1 h    0.883 --   448 o    0.829
   450   1 h    0.886 --   448 o    0.816
   451   8 o    1.836 --   453 h    0.847   452 h    0.842
   452   1 h    0.896 --   451 o    0.842
   453   1 h    0.893 --   451 o    0.847
   454   8 o    1.848 --   455 h    0.829   456 h    0.793
   455   1 h    0.883 --   454 o    0.829
   456   1 h    0.876 --   454 o    0.793
   457   8 o    1.846 --   458 h    0.836   459 h    0.802
   458   1 h    0.884 --   457 o    0.836
   459   1 h    0.881 --   457 o    0.802
   460   8 o    1.863 --   462 h    0.823   461 h    0.815
   461   1 h    0.869 --   460 o    0.815
   462   1 h    0.879 --   460 o    0.823
   463   8 o    1.843 --   464 h    0.883   465 h    0.801
   464   1 h    0.903 --   463 o    0.883
   465   1 h    0.876 --   463 o    0.801
   466   8 o    1.844 --   468 h    0.861   467 h    0.859
   467   1 h    0.889 --   466 o    0.859
   468   1 h    0.892 --   466 o    0.861
   469   8 o    1.864 --   470 h    0.838   471 h    0.817
   470   1 h    0.891 --   469 o    0.838
   471   1 h    0.874 --   469 o    0.817
   472   8 o    1.824 --   474 h    0.892   473 h    0.853
   473   1 h    0.889 --   472 o    0.853
   474   1 h    0.907 --   472 o    0.892
   475   8 o    1.826 --   476 h    0.834   477 h    0.815
   476   1 h    0.891 --   475 o    0.834
   477   1 h    0.880 --   475 o    0.815
   478   8 o    1.829 --   479 h    0.890   480 h    0.857
   479   1 h    0.904 --   478 o    0.890
   480   1 h    0.895 --   478 o    0.857
   481   8 o    1.837 --   482 h    0.861   483 h    0.846
   482   1 h    0.894 --   481 o    0.861
   483   1 h    0.892 --   481 o    0.846
   484   8 o    1.885 --   485 h    0.900   486 h    0.798
   485   1 h    0.911 --   484 o    0.900
   486   1 h    0.879 --   484 o    0.798
   487   8 o    1.819 --   488 h    0.867   489 h    0.860
   488   1 h    0.901 --   487 o    0.867
   489   1 h    0.898 --   487 o    0.860
   490   8 o    1.842 --   492 h    0.833   491 h    0.806
   491   1 h    0.886 --   490 o    0.806
   492   1 h    0.890 --   490 o    0.833
   493   8 o    1.839 --   494 h    0.878   495 h    0.805
   494   1 h    0.903 --   493 o    0.878
   495   1 h    0.886 --   493 o    0.805
   496   8 o    1.848 --   498 h    0.874   497 h    0.854
   497   1 h    0.889 --   496 o    0.854
   498   1 h    0.900 --   496 o    0.874
   499   8 o    1.849 --   500 h    0.854   501 h    0.799
   500   1 h    0.896 --   499 o    0.854
   501   1 h    0.883 --   499 o    0.799
   502   8 o    1.865 --   503 h    0.847   504 h    0.790
   503   1 h    0.892 --   502 o    0.847
   504   1 h    0.882 --   502 o    0.790
   505   8 o    1.858 --   507 h    0.854   506 h    0.851
   506   1 h    0.892 --   505 o    0.851
   507   1 h    0.892 --   505 o    0.854
   508   8 o    1.863 --   509 h    0.815   510 h    0.812
   509   1 h    0.876 --   508 o    0.815
   510   1 h    0.874 --   508 o    0.812
   511   8 o    1.824 --   512 h    0.879   513 h    0.877
   512   1 h    0.899 --   511 o    0.879
   513   1 h    0.898 --   511 o    0.877
   514   8 o    1.801 --   515 h    0.872   516 h    0.828
   515   1 h    0.901 --   514 o    0.872
   516   1 h    0.893 --   514 o    0.828
   517   8 o    1.858 --   518 h    0.883   519 h    0.877
   518   1 h    0.900 --   517 o    0.883
   519   1 h    0.897 --   517 o    0.877
   520   8 o    1.837 --   522 h    0.852   521 h    0.850
   521   1 h    0.895 --   520 o    0.850
   522   1 h    0.897 --   520 o    0.852
   523   8 o    1.842 --   525 h    0.903   524 h    0.804
   524   1 h    0.884 --   523 o    0.804
   525   1 h    0.913 --   523 o    0.903
   526   8 o    1.841 --   527 h    0.908   528 h    0.816
   527   1 h    0.915 --   526 o    0.908
   528   1 h    0.885 --   526 o    0.816
   529   8 o    1.826 --   530 h    0.848   531 h    0.836
   530   1 h    0.884 --   529 o    0.848
   531   1 h    0.891 --   529 o    0.836
   532   8 o    1.860 --   533 h    0.800   534 h    0.800
   533   1 h    0.887 --   532 o    0.800
   534   1 h    0.873 --   532 o    0.800
   535   8 o    1.868 --   537 h    0.822   536 h    0.816
   536   1 h    0.885 --   535 o    0.816
   537   1 h    0.887 --   535 o    0.822
   538   8 o    1.852 --   540 h    0.857   539 h    0.853
   539   1 h    0.894 --   538 o    0.853
   540   1 h    0.893 --   538 o    0.857
   541   8 o    1.830 --   543 h    0.876   542 h    0.841
   542   1 h    0.888 --   541 o    0.841
   543   1 h    0.900 --   541 o    0.876
   544   8 o    1.860 --   545 h    0.853   546 h    0.850
   545   1 h    0.892 --   544 o    0.853
   546   1 h    0.893 --   544 o    0.850
   547   8 o    1.848 --   549 h    0.853   548 h    0.836
   548   1 h    0.893 --   547 o    0.836
   549   1 h    0.888 --   547 o    0.853
   550   8 o    1.837 --   552 h    0.879   551 h    0.811
   551   1 h    0.883 --   550 o    0.811
   552   1 h    0.899 --   550 o    0.879
   553   8 o    1.854 --   554 h    0.896   555 h    0.792
   554   1 h    0.905 --   553 o    0.896
   555   1 h    0.883 --   553 o    0.792
   556   8 o    1.858 --   557 h    0.836   558 h    0.829
   557   1 h    0.893 --   556 o    0.836
   558   1 h    0.882 --   556 o    0.829
   559   8 o    1.881 --   561 h    0.813   560 h    0.790
   560   1 h    0.870 --   559 o    0.790
   561   1 h    0.888 --   559 o    0.813
   562   8 o    1.828 --   563 h    0.836   564 h    0.804
   563   1 h    0.897 --   562 o    0.836
   564   1 h    0.883 --   562 o    0.804
   565   8 o    1.876 --   566 h    0.810   567 h    0.809
   566   1 h    0.884 --   565 o    0.810
   567   1 h    0.867 --   565 o    0.809
   568   8 o    1.868 --   570 h    0.861   569 h    0.860
   569   1 h    0.889 --   568 o    0.860
   570   1 h    0.893 --   568 o    0.861
   571   8 o    1.834 --   573 h    0.812   572 h    0.787
   572   1 h    0.876 --   571 o    0.787
   573   1 h    0.880 --   571 o    0.812
   574   8 o    1.836 --   575 h    0.865   576 h    0.847
   575   1 h    0.896 --   574 o    0.865
   576   1 h    0.892 --   574 o    0.847
   577   8 o    1.846 --   579 h    0.893   578 h    0.789
   578   1 h    0.868 --   577 o    0.789
   579   1 h    0.910 --   577 o    0.893
   580   8 o    1.853 --   581 h    0.916   582 h    0.766
   581   1 h    0.919 --   580 o    0.916
   582   1 h    0.872 --   580 o    0.766   343 o    0.101
   583   8 o    1.851 --   584 h    0.837   585 h    0.783
   584   1 h    0.889 --   583 o    0.837
   585   1 h    0.874 --   583 o    0.783
   586   8 o    1.842 --   587 h    0.874   588 h    0.790
   587   1 h    0.902 --   586 o    0.874
   588   1 h    0.881 --   586 o    0.790
   589   8 o    1.884 --   590 h    0.835   591 h    0.792
   590   1 h    0.884 --   589 o    0.835
   591   1 h    0.874 --   589 o    0.792
   592   8 o    1.871 --   594 h    0.829   593 h    0.819
   593   1 h    0.884 --   592 o    0.819
   594   1 h    0.879 --   592 o    0.829
   595   8 o    1.828 --   596 h    0.867   597 h    0.865
   596   1 h    0.901 --   595 o    0.867
   597   1 h    0.903 --   595 o    0.865
   598   8 o    1.863 --   600 h    0.876   599 h    0.867
   599   1 h    0.898 --   598 o    0.867
   600   1 h    0.902 --   598 o    0.876
   601   8 o    1.825 --   603 h    0.881   602 h    0.798
   602   1 h    0.874 --   601 o    0.798
   603   1 h    0.905 --   601 o    0.881
   604   8 o    1.874 --   606 h    0.895   605 h    0.822
   605   1 h    0.875 --   604 o    0.822
   606   1 h    0.906 --   604 o    0.895
   607   8 o    1.858 --   608 h    0.874   609 h    0.836
   608   1 h    0.895 --   607 o    0.874
   609   1 h    0.884 --   607 o    0.836
   610   8 o    1.843 --   611 h    0.896   612 h    0.802
   611   1 h    0.912 --   610 o    0.896
   612   1 h    0.872 --   610 o    0.802
   613   8 o    1.865 --   614 h    0.864   615 h    0.831
   614   1 h    0.893 --   613 o    0.864
   615   1 h    0.886 --   613 o    0.831
   616   8 o    1.844 --   617 h    0.814   618 h    0.811
   617   1 h    0.889 --   616 o    0.814
   618   1 h    0.880 --   616 o    0.811
   619   8 o    1.848 --   620 h    0.867   621 h    0.838
   620   1 h    0.901 --   619 o    0.867
   621   1 h    0.888 --   619 o    0.838
   622   8 o    1.827 --   623 h    0.827   624 h    0.819
   623   1 h    0.884 --   622 o    0.827
   624   1 h    0.893 --   622 o    0.819
   625   8 o    1.821 --   627 h    0.883   626 h    0.808
   626   1 h    0.881 --   625 o    0.808
   627   1 h    0.905 --   625 o    0.883
   628   8 o    1.835 --   630 h    0.817   629 h    0.798
   629   1 h    0.874 --   628 o    0.798
   630   1 h    0.881 --   628 o    0.817
   631   8 o    1.861 --   632 h    0.835   633 h    0.770
   632   1 h    0.890 --   631 o    0.835
   633   1 h    0.874 --   631 o    0.770
   634   8 o    1.864 --   635 h    0.839   636 h    0.827
   635   1 h    0.889 --   634 o    0.839
   636   1 h    0.892 --   634 o    0.827
   637   8 o    1.863 --   638 h    0.816   639 h    0.816
   638   1 h    0.874 --   637 o    0.816
   639   1 h    0.889 --   637 o    0.816
   640   8 o    1.870 --   642 h    0.833   641 h    0.771
   641   1 h    0.869 --   640 o    0.771
   642   1 h    0.892 --   640 o    0.833
   643   8 o    1.850 --   645 h    0.870   644 h    0.828
   644   1 h    0.885 --   643 o    0.828
   645   1 h    0.898 --   643 o    0.870
   646   8 o    1.856 --   648 h    0.917   647 h    0.843
   647   1 h    0.886 --   646 o    0.843
   648   1 h    0.919 --   646 o    0.917
   649   8 o    1.853 --   651 h    0.908   650 h    0.788
   650   1 h    0.878 --   649 o    0.788
   651   1 h    0.916 --   649 o    0.908
   652   8 o    1.845 --   653 h    0.852   654 h    0.844
   653   1 h    0.889 --   652 o    0.852
   654   1 h    0.890 --   652 o    0.844
   655   8 o    1.892 --   656 h    0.830   657 h    0.817
   656   1 h    0.874 --   655 o    0.830
   657   1 h    0.875 --   655 o    0.817
   658   8 o    1.865 --   660 h    0.905   659 h    0.836
   659   1 h    0.881 --   658 o    0.836
   660   1 h    0.911 --   658 o    0.905
   661   8 o    1.815 --   663 h    0.848   662 h    0.822
   662   1 h    0.877 --   661 o    0.822
   663   1 h    0.892 --   661 o    0.848
   664   8 o    1.814 --   665 h    0.862   666 h    0.858
   665   1 h    0.896 --   664 o    0.862
   666   1 h    0.892 --   664 o    0.858
   667   8 o    1.836 --   668 h    0.845   669 h    0.833
   668   1 h    0.899 --   667 o    0.845
   669   1 h    0.882 --   667 o    0.833
   670   8 o    1.853 --   672 h    0.834   671 h    0.828
   671   1 h    0.893 --   670 o    0.828
   672   1 h    0.886 --   670 o    0.834
   673   8 o    1.842 --   675 h    0.849   674 h    0.822
   674   1 h    0.889 --   673 o    0.822
   675   1 h    0.890 --   673 o    0.849
   676   8 o    1.870 --   678 h    0.834   677 h    0.829
   677   1 h    0.889 --   676 o    0.829
   678   1 h    0.889 --   676 o    0.834
   679   8 o    1.847 --   680 h    0.863   681 h    0.814
   680   1 h    0.896 --   679 o    0.863
   681   1 h    0.881 --   679 o    0.814
   682   8 o    1.871 --   684 h    0.828   683 h    0.812
   683   1 h    0.880 --   682 o    0.812
   684   1 h    0.889 --   682 o    0.828
   685   8 o    1.869 --   687 h    0.856   686 h    0.852
   686   1 h    0.886 --   685 o    0.852
   687   1 h    0.891 --   685 o    0.856
   688   8 o    1.851 --   689 h    0.880   690 h    0.843
   689   1 h    0.902 --   688 o    0.880
   690   1 h    0.889 --   688 o    0.843
   691   8 o    1.834 --   693 h    0.875   692 h    0.833
   692   1 h    0.892 --   691 o    0.833
   693   1 h    0.904 --   691 o    0.875
   694   8 o    1.838 --   695 h    0.907   696 h    0.761
   695   1 h    0.916 --   694 o    0.907
   696   1 h    0.868 --   694 o    0.761
   697   8 o    1.798 --   699 h    0.858   698 h    0.846
   698   1 h    0.896 --   697 o    0.846
   699   1 h    0.896 --   697 o    0.858
   700   8 o    1.836 --   702 h    0.856   701 h    0.834
   701   1 h    0.894 --   700 o    0.834
   702   1 h    0.898 --   700 o    0.856
   703   8 o    1.866 --   705 h    0.871   704 h    0.795
   704   1 h    0.875 --   703 o    0.795
   705   1 h    0.889 --   703 o    0.871
   706   8 o    1.836 --   707 h    0.839   708 h    0.834
   707   1 h    0.890 --   706 o    0.839
   708   1 h    0.888 --   706 o    0.834
   709   8 o    1.870 --   711 h    0.876   710 h    0.813
   710   1 h    0.887 --   709 o    0.813
   711   1 h    0.900 --   709 o    0.876
   712   8 o    1.860 --   713 h    0.866   714 h    0.802
   713   1 h    0.895 --   712 o    0.866
   714   1 h    0.883 --   712 o    0.802
   715   8 o    1.878 --   716 h    0.915   717 h    0.791
   716   1 h    0.920 --   715 o    0.915
   717   1 h    0.879 --   715 o    0.791
   718   8 o    1.863 --   719 h    0.887   720 h    0.837
   719   1 h    0.902 --   718 o    0.887
   720   1 h    0.893 --   718 o    0.837
   721   8 o    1.847 --   722 h    0.822   723 h    0.821
   722   1 h    0.888 --   721 o    0.822
   723   1 h    0.890 --   721 o    0.821
   724   8 o    1.832 --   725 h    0.833   726 h    0.807
   725   1 h    0.886 --   724 o    0.833
   726   1 h    0.888 --   724 o    0.807
   727   8 o    1.868 --   728 h    0.861   729 h    0.834
   728   1 h    0.897 --   727 o    0.861
   729   1 h    0.890 --   727 o    0.834
   730   8 o    1.836 --   731 h    0.879   732 h    0.831
   731   1 h    0.902 --   730 o    0.879
   732   1 h    0.889 --   730 o    0.831
   733   8 o    1.843 --   734 h    0.839   735 h    0.834
   734   1 h    0.890 --   733 o    0.839
   735   1 h    0.892 --   733 o    0.834
   736   8 o    1.835 --   738 h    0.893   737 h    0.803
   737   1 h    0.875 --   736 o    0.803
   738   1 h    0.908 --   736 o    0.893
   739   8 o    1.863 --   740 h    0.843   741 h    0.840
   740   1 h    0.895 --   739 o    0.843
   741   1 h    0.893 --   739 o    0.840
   742   8 o    1.859 --   744 h    0.907   743 h    0.820
   743   1 h    0.870 --   742 o    0.820
   744   1 h    0.915 --   742 o    0.907
   745   8 o    1.894 --   746 h    0.835   747 h    0.827
   746   1 h    0.877 --   745 o    0.835
   747   1 h    0.882 --   745 o    0.827
   748   8 o    1.863 --   749 h    0.813   750 h    0.795
   749   1 h    0.880 --   748 o    0.813
   750   1 h    0.870 --   748 o    0.795
   751   8 o    1.816 --   752 h    0.859   753 h    0.842
   752   1 h    0.885 --   751 o    0.859
   753   1 h    0.876 --   751 o    0.842
   754   8 o    1.813 --   756 h    0.897   755 h    0.856
   755   1 h    0.892 --   754 o    0.856
   756   1 h    0.904 --   754 o    0.897
 ---------------------------------------------------------------------------

Topologies differ in total number of bonds
Writing topology from bond orders to xtbtopo.mol

molecular dipole:
                 x           y           z       tot (Debye)
 q only:       -0.635       1.026       2.164
   full:       -1.498       1.265       2.269       7.622
molecular quadrupole (traceless):
                xx          xy          yy          xz          yz          zz
 q only:      132.454     -23.056     -77.495      -1.436     -10.395     -54.958
  q+dip:      210.331       0.620    -110.377      -7.725      -7.072     -99.954
   full:      214.030       2.314    -112.425      -7.912      -7.361    -101.605


           -------------------------------------------------
          | TOTAL ENERGY            -1283.300074224104 Eh   |
          | GRADIENT NORM               0.100228994069 Eh/α |
          | HOMO-LUMO GAP               6.160836120050 eV   |
           -------------------------------------------------

------------------------------------------------------------------------
 * finished run on 2022/11/24 at 12:22:38.405     
------------------------------------------------------------------------
 total:
 * wall-time:     0 d,  0 h,  0 min, 57.573 sec
 *  cpu-time:     0 d,  0 h,  1 min, 14.036 sec
 * ratio c/w:     1.286 speedup
 SCF:
 * wall-time:     0 d,  0 h,  0 min, 56.504 sec
 *  cpu-time:     0 d,  0 h,  1 min, 12.283 sec
 * ratio c/w:     1.279 speedup

