756
 energy: -1283.297644960622 gnorm: 0.019074615960 xtb: 6.5.1 (579679a)
o            5.68200925664012       -7.46524960849631        0.11493420133652
h            5.08396589032480       -7.74669516898452       -0.61614905183568
h            6.58068609996317       -7.53464513585790       -0.22879354067344
o           -0.63390205618849        3.47397408919485        4.71460924529234
h           -1.46940725487283        3.21954134420034        4.29040313204881
h           -0.16359192242267        4.03400598083659        4.07535478290053
o           -0.83456335947187       -1.93504645707190       -1.88913764693127
h           -0.29600681293717       -1.75543581353583       -1.09688072873487
h           -1.31062180660410       -2.75544993355736       -1.68051777758635
o           -6.37754164351020        2.48938724684185        0.49779030181632
h           -5.73637105419617        2.86938036958721       -0.12915882501705
h           -7.17657251767842        3.03736221680264        0.35956361684076
o           -3.64233951677441        2.73763239681046        0.59484298881235
h           -4.05853287216128        3.59338949641600        0.80904041573965
h           -3.22652674635255        2.82217772226660       -0.27230721983608
o           -3.43913487112708       -4.75842683312700        1.02333883175765
h           -4.38928666387464       -4.81019238642465        0.83987234237913
h           -3.27427126182255       -3.92109722881208        1.51128226868781
o           -0.24271578698163       -5.01950546250516       -3.31418360182004
h           -1.03324581093844       -4.51337443996235       -3.55450749392330
h           -0.44983266906560       -5.95397953360723       -3.44688443860842
o            0.15621678450643       -4.56080313926183        0.73073886900429
h           -0.31502881497263       -4.67076291606057        1.57871737043124
h            0.92321839154677       -5.16664686705384        0.80862656417788
o           -1.87094194361955       -4.36472389025350       -1.05026965665918
h           -1.06495455529685       -4.56225472052764       -0.53958744983843
h           -2.59376999335789       -4.40106773508170       -0.38559340412588
o            0.18133072187687        2.43796597361290       -6.23747314660556
h           -0.71980830971854        2.09290580492630       -6.02131101596029
h            0.75989582749904        1.88332568017063       -5.69008622669051
o           -4.37276372090782       -1.41106046328569       -2.62800647638106
h           -4.85846099534612       -0.67568096731237       -2.21167338930739
h           -3.68332598277173       -1.03531783344635       -3.20908008027091
o           -1.01330021128888        3.56324484771277       -3.76727130688364
h           -0.10025743909851        3.73588076329579       -4.04061874802342
h           -1.35651354914664        2.79530911165923       -4.25577317766209
o           -4.58619439220630       -3.90309594198231       -1.67020425644321
h           -4.70394711628143       -4.47812406883284       -2.44826292145761
h           -4.54676109306462       -2.97750718185586       -1.96321057535899
o           -3.35030691006859        1.50384564197778       -2.70799989135984
h           -3.66382741848089        1.31827146509464       -3.60112243669851
h           -2.40066718147329        1.28547538313729       -2.71244993584694
o           -1.49854901436884        2.95158668686041       -1.25490645917345
h           -1.27461658044485        3.02257231307486       -2.20009975998139
h           -0.67150445899978        3.07148483963665       -0.75341986529978
o           -0.79889302468114        0.60047252048966       -3.08697108809970
h           -0.62045805563571        0.37693929372865       -4.00554815697716
h           -0.81724321637835       -0.23738656847595       -2.60606056891718
o           -2.82742254408012        0.28656565301322        3.44057114809370
h           -3.09147547808199        0.20820526258324        4.38896706920474
h           -3.54644774017086       -0.03182323484737        2.87716610986476
o           -4.26534053897411       -1.58674392068653        7.52428720561871
h           -5.20340004074400       -1.45652043316850        7.34388447315583
h           -4.05852435006181       -2.49759029228110        7.25527003757743
o           -0.91679564244262       -5.04885125738225        3.13065712164681
h           -1.86429836993581       -4.88995180132466        3.29879955014703
h           -0.49549134352951       -4.89528233283013        3.99706576806421
o           -3.32423293438764        0.40109386958771        5.98719628052530
h           -2.40641350593985        0.62255971324061        6.24982646115938
h           -3.59587895208511       -0.36801877555653        6.53265315151979
o           -2.90022752452544       -2.45932721533098        2.23691427726546
h           -1.96780619943268       -2.41886933688452        2.50911287221176
h           -3.41209615013556       -2.40133968651063        3.06425349070732
o            3.59034393199848        0.43119727089483        2.66897056388054
h            3.25318669657900        0.03809758176543        1.83556721570154
h            2.90910161700187        0.96146136579867        3.08661060083326
o            0.37595765992000       -1.93884060201999        0.52341855213896
h            1.29873164230766       -1.64946395656782        0.50570060038247
h            0.36252935186553       -2.89815021081799        0.71434525522535
o            0.46835688324718        5.16725008809797       -1.80395152903477
h            0.51803214973843        5.67581353341469       -0.98380068352572
h           -0.19225285076321        5.59731656119720       -2.36833507047267
o           -2.42577684614363        1.25359371709528        8.76511627069816
h           -2.03569100743456        2.04759761892967        8.36272652883081
h           -3.37385463558354        1.33285415594172        8.63883273241457
o           -5.77055064972511       -0.02735196056221        4.02599343918003
h           -5.72264567116999        0.85882891052055        3.60353414337475
h           -6.40226924951627       -0.57741198572950        3.52923964626755
o           -7.88183064944695        1.58316740511851       -1.80229128248893
h           -6.97232629512830        1.28765378683524       -1.58061456835547
h           -8.38760310912281        1.65383074506245       -0.96522140234970
o            2.73151129317841        1.92453244994773        0.46481834307573
h            3.36278857391061        2.55797697007862        0.88476833561362
h            3.14374936553213        1.62927260654102       -0.36268101745149
o           -2.52516131012289       -3.58172943359741       -3.70732122364565
h           -3.37715309007745       -3.65928149450276       -4.16294033007459
h           -2.70704043384884       -3.74397352994528       -2.77355708117743
o            2.11099025544839       -1.35971200764983       -2.70199497421700
h            1.80632775131402       -2.24824152981498       -2.44556323490804
h            1.64472906600700       -0.74307024065989       -2.09288414102831
o           -4.66415518647356       -5.71428757794514       -3.66188964486052
h           -4.16298104677105       -5.67827334268623       -4.51045403803315
h           -5.57290723456197       -5.97044981657918       -3.91734768626002
o           -5.43371789357541        0.67872638822973       -1.38737680048351
h           -4.69400404200405        1.18630031873866       -1.79154835628523
h           -5.20153436741702        0.51119053387328       -0.46398339045300
o            1.86409318675506        2.79523074056668        5.33087904891688
h            2.01696394297219        1.84153535884782        5.45815432360850
h            0.91623010449504        2.94439774402736        5.17854580784957
o            4.58162120413084       -3.95485853057998        2.91586013517527
h            4.55029634293705       -4.39573902207625        3.78975509299764
h            4.59688295051474       -3.00078348829621        3.10789198645895
o            0.72592009565118       -0.02637307935297        4.50561531628248
h            0.94254914805327        0.65307160211000        3.84983163232410
h            0.33301132390409       -0.78551786212203        4.02269239678625
o            4.34321534884930        2.49592745133497        4.22590053343311
h            3.66447518142074        3.02522154712882        4.66359586412508
h            5.22437716769776        2.80569311039605        4.48809999100716
o           -3.33191511017485        4.80334686985933       -4.31676059880342
h           -2.48212734071564        4.47356771435542       -3.97336059806345
h           -3.22230346424409        4.89151261697968       -5.28610844207035
o           -5.15832999182508        3.99092895633318       -1.45450930635468
h           -5.85868158264877        4.65216095618606       -1.58838103663455
h           -5.09267262401686        3.51173633729116       -2.30047236736867
o            0.95598425800662       -1.64495461148602        6.85778328355488
h            0.22876872007568       -1.43347881470607        7.45734189892967
h            0.92586874470046       -0.99586421180688        6.14460592932177
o           -3.34489669097028       -4.65612589981857        4.08592380721987
h           -4.15844910559110       -4.36122034637868        3.62303621566546
h           -3.41139451950098       -4.34904178260843        5.00948167693474
o           -0.42243686180734       -2.10352355714107        3.33382957549702
h           -0.84982805355541       -2.28160954171918        4.19753020646535
h            0.27533987715469       -2.77869184690119        3.19738066965635
o            1.12610227192336        1.76845065952837        2.55663454790275
h            1.73276383023952        1.73530635050338        1.79416004384286
h            1.00508768385074        2.73048458777347        2.71860155397591
o            0.39660221360465       -2.98011402181368       -8.14705407754009
h            1.13601127240445       -3.58857118206273       -7.94785344272133
h            0.78400704606207       -2.09844399981266       -8.21775950258037
o            2.97365239041328       -2.06900998344314        4.74865757043360
h            3.87125564273626       -2.14056567480458        5.14013175081388
h            2.69876092441667       -1.16144925814413        4.95881080933628
o           -8.31944740524595        2.22859645763742        2.51981283791926
h           -9.00372854026054        2.48890832518638        3.15023737203014
h           -7.77733866304143        3.02925828975444        2.39805677931515
o           -7.07971328396498        4.65023759956435        2.56596140643763
h           -6.76180722375921        4.82543746231033        3.46793833145493
h           -6.31201201899020        4.84408732377959        1.99199102638912
o           -8.28479405576116       -3.02411331333149        0.97081710873023
h           -8.83714688101548       -3.52506472955491        1.60671705853347
h           -8.79815543163294       -2.26020846390473        0.63532795745635
o            1.93327606353635       -6.06428299447347        4.22053965573077
h            1.47718857465056       -5.94549410629473        5.05637620848428
h            1.44915952125128       -6.73876747769720        3.72222638586256
o            6.94200179714132       -3.87673204652841        5.26851609950236
h            6.34055959024148       -3.20874529300213        5.65632360672312
h            6.43971663884218       -4.69671000695282        5.33845136531425
o            1.40897180317957        2.58314008654373       -2.28010067575873
h            2.33945013345252        2.80682888409047       -2.07757202104911
h            0.91329363266735        3.39778330546373       -2.09862713559540
o            4.08300746909066       -4.47700551623653       -2.09988884657825
h            3.11631462567774       -4.36910905444689       -1.94687758587449
h            4.48154581291509       -4.73189567918845       -1.23946712470594
o           -7.00617169848793        5.91220498038309       -2.22898806490122
h           -6.47940290265994        6.23419796840944       -3.00085602338963
h           -7.56061636704827        5.20040255432192       -2.59956802151989
o            6.11377024598236        1.27451738775414        2.11063238108173
h            6.61662551382910        0.49100570144595        2.37504488135045
h            5.19179676372024        1.10537364904692        2.38106802419147
o           -0.13226259432922        1.31470906942508       -8.82322784960701
h           -0.97805435915918        0.84927059500717       -8.74551199401683
h           -0.04503156102215        1.82333613183607       -8.00304071330158
o           -7.03564247615376       -1.69240563178348       -1.42483761790763
h           -7.78322484339533       -1.33235399348819       -0.93541534941474
h           -6.35943239429035       -1.90731968664451       -0.75599558676099
o           -2.90310962785779        2.88864502539986        3.37160946879206
h           -2.80315724773132        1.90944134604783        3.29524108957733
h           -2.55211261382264        3.32379495562807        2.56366721665028
o            2.99071677682985       -3.47438784265669        0.64801114807944
h            3.83108970316274       -3.95154601148717        0.67401598676678
h            2.56317713149617       -3.63662051590482        1.51301174772735
o           -2.43082464527533       -7.18277246250342        1.64674374382004
h           -2.72696228290067       -6.27535600949099        1.43398063195971
h           -2.77301345112775       -7.35827921802050        2.54738946046051
o            1.76524987162519        0.92444394533302       -4.39020802768938
h            1.40764686270254        1.45152909693141       -3.64708625863406
h            1.91298024961955        0.03816107005955       -4.02307210925128
o            1.62804854045448       -0.48658521725612       -7.99318644431552
h            1.06315643386342        0.11538173079541       -8.52810862548716
h            2.37991161779875        0.06539091263334       -7.70629353353254
o           -1.73364929455692       -2.34781046337714        5.60304455426613
h           -1.64701018379536       -1.88407006290137        6.45606639452501
h           -2.66693852596934       -2.26808489487379        5.32703531187353
o            0.10168645346563       -6.16126818277573       -6.00243651471151
h           -0.43901666306943       -5.35675159371637       -6.10830135458992
h           -0.48258180992770       -6.81858015559215       -5.60886244582606
o            0.94923578053264        0.31221341013397       -1.03343107202122
h            1.00231746080795        1.15888914458166       -1.52225069777018
h            1.59381830223041        0.35304374044572       -0.32349390068721
o           -2.82831028099774       -6.68818220289015       -2.09270449314517
h           -2.45834762002197       -5.83904197227059       -1.76267537566431
h           -3.58070929049208       -6.42663958475533       -2.66985680209844
o            4.46899280748010       -5.34063346471177        5.19546975247960
h            3.75608112912164       -4.93970869610850        5.72636599952467
h            4.05159246920493       -6.07298229736653        4.72528567860199
o           -3.58836381848190       -2.31221944567900       -6.68526135976104
h           -4.26947133099116       -2.73650269811540       -6.13192517049815
h           -2.81075987322599       -2.90603911078597       -6.66326979770156
o           -6.13989551725833       -4.76623622550282        0.20263494679998
h           -6.68367255830834       -4.04890135475467        0.54532535950625
h           -5.63012432565379       -4.40613342931182       -0.56095820415613
o           -2.58999536490774       -0.94600807653229       -4.57017790809219
h           -2.13752589428657       -1.72697030117657       -4.21843475782616
h           -3.04207104256584       -1.26296742662558       -5.37398755261731
o           -9.67684350201114        5.22351767497718        2.30971929941101
h           -8.71243232008601        5.02877302114544        2.29888495481617
h           -9.75346382140217        6.04201717583933        1.81279459631435
o            2.34088709661963       -4.05562969563082        6.42654498006385
h            2.48551438420126       -3.72684102453447        7.31540395319805
h            2.42657023587004       -3.26452198172742        5.84402191600868
o           -1.53865319404843        3.44394232028103        7.35250800165591
h           -0.92158551749810        4.15724296020299        7.13347082797756
h           -2.36038901471022        3.61551025506371        6.87017743930520
o            3.78283825803954        0.71062365507051       -1.65725283644477
h            4.65237395846652        1.06275882720010       -1.38778049504594
h            3.87532603655883        0.43864638230394       -2.58344619661570
o            4.18068690882803        3.61750461457851        1.81488973381995
h            4.22498062881870        3.20064575745326        2.69823145496607
h            5.10369507819402        3.78937768413256        1.54461523179518
o           -4.79745776880601        0.69492740662659       -5.00311700692553
h           -4.95428192395628        0.41546319665433       -5.92133780853588
h           -5.44218749279006        0.17198514514387       -4.49015075901715
o            4.27607327567852       -6.66779545118149        2.36437570793991
h            4.53954770983389       -5.73746267449507        2.34609416283615
h            4.84396585759091       -7.13787740296878        1.73997222307038
o           -3.72002185416734        2.27693714085221       -7.37001855603143
h           -3.41896056569875        1.44306955801637       -7.76538326685060
h           -4.68406592182604        2.23308400642108       -7.25377550481620
o            4.38144602670242       -0.22875488257687       -4.18681271476000
h            3.99993173939806       -0.64244453879572       -4.97388748703725
h            5.06221740044231       -0.84522220078257       -3.89701389214649
o           -7.75411070149657       -5.31762710934599        4.69235470195716
h           -7.17835029551365       -5.93374127778501        4.20379021198460
h           -8.40864138007119       -4.99500367787840        4.05708941259512
o           -9.64617870895567       -1.09690663923236       -0.25707867804896
h          -10.54400802985781       -1.40700927406189       -0.02795333550655
h           -9.59126184765078       -0.16296119668074        0.05279014530216
o           -8.88175047317725       -4.63460864591482       -1.11143278128457
h           -8.49028551489628       -4.27837528096507       -1.94608899104766
h           -8.53474927227110       -4.05660910993953       -0.39690750267616
o           -8.39749662970466        6.70751996919601        0.17580837818905
h           -7.72333976695140        7.08168489788218        0.76844020030663
h           -8.05108868014346        6.80156578167093       -0.71934427846153
o           -4.95259634111255        6.98650952561223       -0.68543878330685
h           -4.25535170470121        7.23570097559316       -1.31618332378856
h           -5.73305390670409        6.78469266313614       -1.21502853807304
o           -2.72741884275808        5.15695054975354       -0.82242605059776
h           -2.17227164286280        4.39386987564970       -1.12155081944570
h           -3.62501215218206        4.93856893481402       -1.12135560316372
o            0.24295778055892        5.59275744132065        6.74401837160967
h            0.99981868753997        5.18887669969133        7.19977358702640
h            0.62288687401060        6.10571211662985        6.01940049153775
o            1.05075700731386        4.40333301347164        2.84181392734497
h            0.87430265428481        5.06296921937283        2.15146568179323
h            1.91825456912974        4.59964427305827        3.23489931877554
o           -0.41242260373658        5.16229086545776       -6.24787694764046
h           -0.18711649283995        4.22065837061971       -6.14006369204295
h            0.39261283777458        5.60453295972783       -6.54060986698141
o            2.32181405138867        3.53570070116801       -7.56272697895231
h            1.43548810431980        3.27483888857016       -7.27870643390280
h            2.39602530500362        4.48115347615193       -7.40637895795782
o            5.66239979575941        2.13909675804102       -0.48492751930974
h            5.85308295676793        1.88461416925128        0.43129898328558
h            6.52664004857754        2.28789807843578       -0.92168132808919
o            2.32838796777907        6.01624920283013       -6.21390762749208
h            2.39732403498307        6.91278314095214       -5.88208697947730
h            2.05171681494785        5.46680581980575       -5.42780982312354
o           -0.71950619124615        6.58325228672527       -3.81289091695138
h           -0.74799297650336        6.06772184235483       -4.63623096096411
h            0.15886136046105        6.98692846247334       -3.77711616737036
o           -5.54029186308776       -3.91663156902622        2.81267096984891
h           -5.43631301953472       -3.33359375571912        2.03395708169564
h           -6.17023238124412       -3.43898501514091        3.37749023764645
o            1.61902647189127       -6.89411326388459       -1.57534610594376
h            1.92933848590165       -6.60540575786988       -0.69503738301645
h            0.75627042343559       -7.29322568625610       -1.36932254545814
o            7.46187240530965       -3.22295087188431       -0.32196973002858
h            6.90820682757671       -2.49238681806392        0.04644356799091
h            7.55045802869072       -3.06674616047604       -1.26426287150518
o            1.71493797749286       -3.66455298501359        3.01122383032723
h            2.25798505511059       -3.08331156473920        3.57355466535627
h            1.81931655270921       -4.56491071158084        3.38234665349605
o            5.44604204913244        7.11905380961493       -0.42684547309839
h            5.68045422578421        6.24371156122682       -0.81966023305420
h            6.30052176045586        7.54094475427345       -0.28866340861884
o           -6.71853326127408       -0.67428437384170        6.45203908769898
h           -7.64545629357688       -0.42925297867538        6.40959683863651
h           -6.34530283940135       -0.42490766177838        5.57503085516482
o           -7.32772421305511       -2.16728018772594       -6.15233750300413
h           -8.27634731184465       -2.29693169199734       -6.04928163816546
h           -7.04903109931156       -1.72656429081454       -5.32507314755527
o           -3.13145996427211        7.63156567036593       -2.70202583621401
h           -3.80745015245590        7.64122863596930       -3.38708602245609
h           -2.35370321133036        7.20422792401276       -3.09537737642002
o           -5.37389224622627        6.52532044509981       -4.19920211711041
h           -4.60781344580074        5.93191537255406       -4.07583206775639
h           -5.76862484540374        6.20386103692393       -5.02563111513661
o            3.14618574620604        0.47115285308808        5.69562776417658
h            3.23595371937785        0.72814600494470        6.63020607926906
h            3.84276894497903        0.93043279587732        5.20224576725083
o           -5.10108624783613       -3.05719578556252       -4.56806445628826
h           -5.01063951462746       -2.33325567262749       -3.91784356831393
h           -5.93626912965029       -3.49514202403092       -4.38419227014764
o            2.28796399242955       -4.60301329984583       -7.11506425328516
h            2.37344234239915       -4.18275996233560       -6.24013722855819
h            1.71889750122570       -5.36733484043420       -6.97331708373603
o            1.53025999222709       -3.84712144397549       -1.79537436843048
h            1.35088195086933       -3.98374013020012       -0.86094263062420
h            0.85624895075999       -4.34376503089818       -2.31221905997919
o           -4.74036743870240        5.11439245380185        1.29252297288349
h           -4.91475151472356        5.59581998603631        0.46538690112285
h           -4.17457982639495        5.73877849797320        1.78498574109437
o           -6.83724179506072       -0.62500272041390       -3.95576230289585
h           -7.44907080049728        0.09564104402658       -4.18392955212706
h           -6.91610764854408       -0.81292286467943       -3.00644594757091
o          -10.44442799029689        3.76640622096367       -1.92549682125808
h          -10.04179169815227        4.16166099329319       -2.70150449146242
h          -10.87040004597596        2.93829147479414       -2.24538914167960
o            4.58823239901735        6.63461069096043        2.06710138662055
h            5.46898942050336        6.74595339743027        2.45192071731804
h            4.75887240698558        6.72347529581566        1.10245483721746
o           -5.38023955983734        3.13096624021822       -4.00736378650850
h           -4.63632523435520        3.72393207210460       -4.23593501260231
h           -5.22444104169168        2.28914126262019       -4.47316385099287
o            2.53775706965433        4.16183228487761        7.45856371261628
h            3.38110519791080        4.57769691899481        7.24761163428796
h            2.26567683539696        3.68929880141775        6.63170076503024
o            3.32544072657523        1.20136308014104       -6.75460763602756
h            3.02434120801072        2.05980722259731       -7.11245287062727
h            2.83719490017363        1.04502889254529       -5.93268088278337
o           -2.24446111596563       -6.33769946260680        6.58429584922849
h           -2.55886156799639       -6.88330611498723        5.85087418787299
h           -1.45313817848211       -5.86744271673603        6.27414182200366
o            6.31646111737725        4.82272333826179       -1.39629644115598
h            7.22219602384565        4.90070652002660       -1.74968936956889
h            6.43129156002384        4.45026880571709       -0.49823640267508
o           -5.48435673327723       -2.09641023420138        0.80712975771680
h           -4.60416947073881       -1.71455493172841        0.88077721238431
h           -6.09400679261607       -1.38316422867414        1.08752450020279
o            8.93976046669523        4.80160440712143        3.61959749888458
h            8.18259107824303        4.18619312931704        3.73092495285586
h            9.71788912360277        4.27797996510142        3.84752345163793
o           -9.54807806665744       -0.26875358246582        2.69606438516709
h          -10.19911128405666        0.44680123554708        2.52908936175867
h           -9.13364576450715       -0.01011042026200        3.54053718261944
o           -5.52334163176076        2.37684064898354        3.02612166964543
h           -5.80106962269406        2.46251028923552        2.08899291468963
h           -4.61592805774753        2.71739797808765        3.08796481360762
o           -8.39792364786538        4.03327643590463       -0.11964681909947
h           -9.09216649985564        3.89942396832296       -0.78279326137491
h           -8.36096751619417        4.99044427340135        0.05136141753477
o           -5.44726777091869        1.74433026076627        7.00422126886906
h           -5.90052076486724        0.90034731386842        7.14545654906534
h           -4.62338986345540        1.50074064926558        6.53948326618606
o           -1.55785791186662       -1.23703766073114        8.06832967034385
h           -1.81182714430415       -0.31596033898612        8.28196226032410
h           -2.19642587332208       -1.78894483582694        8.52211288614357
o           -0.24043217339352       -4.59105130195550        5.69785388686981
h            0.61896187317458       -4.33726753940085        6.08075867354483
h           -0.81492098009404       -3.80455053402516        5.79152284957971
o           -3.04706703720231        4.88534574945207       -6.97724931957126
h           -2.09775539567630        5.07769441910652       -6.96025661374758
h           -3.15266469290497        3.96797978776268       -7.27910134446644
o            3.73783889361414        3.66169804957839       -1.62454865077902
h            4.53499653525629        3.24158641045531       -1.25015906811391
h            4.03310657512014        4.30394972609198       -2.29141953380876
o            6.16537078209475        1.98994189247889       -3.71349446437297
h            6.23882774657995        1.63980978006345       -4.61394663783159
h            6.29841183005163        1.22899690247732       -3.10718196892492
o            2.23601490844908        8.02791066789378        1.89799457200942
h            3.07778733925171        7.56613278323641        2.06345910455845
h            2.32205120486671        8.35234369469397        0.98902648444118
o            4.94058384502688        4.74884745641566        6.07621923096623
h            4.36704086523890        4.97346759257653        5.30547389237355
h            5.76909226586033        5.20967900386115        5.94731599762551
o            7.02770252899024        2.94276669227873        4.01942778108950
h            7.63670014008913        2.30978412870526        4.43582049255770
h            6.74768976316933        2.49278267542719        3.19353545941327
o            5.35242175561793       -4.84305310987550        0.18748017340616
h            6.20683921614772       -4.39665755519086        0.04997352786345
h            5.52064471051085       -5.80998465136647        0.20689666870459
o            7.15450259002614       -3.52997934049879        2.60218386947722
h            6.21124468853895       -3.73741079255417        2.42778360855729