      -----------------------------------------------------------      
     |                   =====================                   |     
     |                           x T B                           |     
     |                   =====================                   |     
     |                         S. Grimme                         |     
     |          Mulliken Center for Theoretical Chemistry        |     
     |                    University of Bonn                     |     
      -----------------------------------------------------------      

   * xtb version 6.5.1 (579679a) compiled by 'ehlert@majestix' on 2022-07-11

   xtb is free software: you can redistribute it and/or modify it under
   the terms of the GNU Lesser General Public License as published by
   the Free Software Foundation, either version 3 of the License, or
   (at your option) any later version.
   
   xtb is distributed in the hope that it will be useful,
   but WITHOUT ANY WARRANTY; without even the implied warranty of
   MERCHANTABILITY or FITNESS FOR A PARTICULAR PURPOSE.  See the
   GNU Lesser General Public License for more details.
   
   Cite this work as:
   * C. Bannwarth, E. Caldeweyher, S. Ehlert, A. Hansen, P. Pracht,
     J. Seibert, S. Spicher, S. Grimme, WIREs Comput. Mol. Sci., 2020, 11,
     e01493. DOI: 10.1002/wcms.1493
   
   for GFN2-xTB:
   * C. Bannwarth, S. Ehlert and S. Grimme., J. Chem. Theory Comput., 2019,
     15, 1652-1671. DOI: 10.1021/acs.jctc.8b01176
   for GFN1-xTB:
   * S. Grimme, C. Bannwarth, P. Shushkov, J. Chem. Theory Comput., 2017,
     13, 1989-2009. DOI: 10.1021/acs.jctc.7b00118
   for GFN0-xTB:
   * P. Pracht, E. Caldeweyher, S. Ehlert, S. Grimme, ChemRxiv, 2019, preprint.
     DOI: 10.26434/chemrxiv.8326202.v1
   for GFN-FF:
   * S. Spicher and S. Grimme, Angew. Chem. Int. Ed., 2020, 59, 15665-15673.
     DOI: 10.1002/anie.202004239
   
   for ALPB and GBSA implicit solvation:
   * S. Ehlert, M. Stahn, S. Spicher, S. Grimme, J. Chem. Theory Comput.,
     2021, 17, 4250-4261. DOI: 10.1021/acs.jctc.1c00471
   
   for DFT-D4:
   * E. Caldeweyher, C. Bannwarth and S. Grimme, J. Chem. Phys., 2017,
     147, 034112. DOI: 10.1063/1.4993215
   * E. Caldeweyher, S. Ehlert, A. Hansen, H. Neugebauer, S. Spicher,
     C. Bannwarth and S. Grimme, J. Chem. Phys., 2019, 150, 154122.
     DOI: 10.1063/1.5090222
   * E. Caldeweyher, J.-M. Mewes, S. Ehlert and S. Grimme, Phys. Chem. Chem. Phys.
     2020, 22, 8499-8512. DOI: 10.1039/D0CP00502A
   
   for sTDA-xTB:
   * S. Grimme and C. Bannwarth, J. Chem. Phys., 2016, 145, 054103.
     DOI: 10.1063/1.4959605
   
   in the mass-spec context:
   * V. Asgeirsson, C. Bauer and S. Grimme, Chem. Sci., 2017, 8, 4879.
     DOI: 10.1039/c7sc00601b
   * J. Koopman and S. Grimme, ACS Omega 2019, 4, 12, 15120-15133.
     DOI: 10.1021/acsomega.9b02011
   
   for metadynamics refer to:
   * S. Grimme, J. Chem. Theory Comput., 2019, 155, 2847-2862
     DOI: 10.1021/acs.jctc.9b00143
   
   for SPH calculations refer to:
   * S. Spicher and S. Grimme, J. Chem. Theory Comput., 2021, 17, 1701-1714
     DOI: 10.1021/acs.jctc.0c01306
   
   with help from (in alphabetical order)
   P. Atkinson, C. Bannwarth, F. Bohle, G. Brandenburg, E. Caldeweyher
   M. Checinski, S. Dohm, S. Ehlert, S. Ehrlich, I. Gerasimov, C. Hölzer
   A. Katbashev, J. Koopman, C. Lavigne, S. Lehtola, F. März, M. Müller,
   F. Musil, H. Neugebauer, J. Pisarek, C. Plett, P. Pracht, F. Pultar,
   J. Seibert, P. Shushkov, S. Spicher, M. Stahn, M. Steiner, T. Strunk,
   J. Stückrath, T. Rose, and J. Unsleber
   
 * started run on 2022/11/03 at 00:49:15.947     

           -------------------------------------------------
          |                Calculation Setup                |
           -------------------------------------------------

          program call               : xtb cluster.xyz --gfn2 --ohess
          hostname                   : cn0272
          coordinate file            : cluster.xyz
          omp threads                :                     1

   ID    Z sym.   atoms
    1    1 H      1, 3, 5, 6, 8, 10-12, 14, 15, 17, 18, 20, 21, 23, 24, 26,
                  27, 29, 30, 32, 33, 35, 36, 38, 39, 41, 42, 44, 45, 47, 48,
                  50, 51, 53, 54, 56, 57, 59, 60, 62, 63, 65, 66, 68, 69, 71,
                  72, 74, 75, 77, 78, 80, 81, 83, 84, 86, 87, 89, 90, 92, 93,
                  95, 96, 98, 99, 101, 102, 104, 105, 107, 108, 110, 111,
                  113, 114, 116, 117, 119, 120, 122, 123, 125, 126, 128, 129,
                  131, 132, 134, 135, 137, 138, 140, 141, 143, 144, 146, 147,
                  149, 150, 152, 153, 155, 156, 158, 159, 161, 162, 164, 165,
                  167, 168, 170, 171, 173, 174, 176, 177, 179, 180, 182, 183,
                  185, 186, 188, 189, 191, 192, 194, 195, 197, 198, 200, 201,
                  203, 204, 206, 207, 209, 210, 212, 213, 215, 216, 218, 219,
                  221, 222, 224, 225, 227, 228, 230, 231, 233, 234, 236, 237,
                  239, 240, 242, 243, 245, 246, 248, 249, 251, 252, 254, 255,
                  257, 258, 260, 261, 263, 264, 266, 267, 269, 270, 272, 273,
                  275, 276, 278, 279, 281, 282, 284, 285, 287, 288, 290, 291,
                  293, 294, 296, 297, 299, 300, 302, 303, 305, 306, 308, 309,
                  311, 312, 314, 315, 317, 318, 320, 321, 323, 324, 326, 327,
                  329, 330, 332, 333, 335, 336, 338, 339, 341, 342, 344, 345,
                  347, 348, 350, 351, 353, 354, 356, 357, 359, 360, 362, 363,
                  365, 366, 368, 369, 371, 372, 374, 375, 377, 378, 380, 381,
                  383, 384, 386, 387, 389, 390, 392, 393, 395, 396, 398, 399,
                  401, 402, 404, 405, 407, 408, 410, 411, 413, 414, 416, 417,
                  419, 420, 422, 423, 425, 426, 428, 429, 431, 432, 434, 435,
                  437, 438, 440, 441, 443, 444, 446, 447, 449, 450, 452, 453,
                  455, 456, 458, 459, 461, 462, 464, 465, 467, 468, 470, 471,
                  473, 474, 476, 477, 479, 480, 482, 483, 485, 486, 488, 489,
                  491, 492, 494, 495, 497, 498, 500, 501, 503, 504, 506, 507,
                  509, 510, 512, 513, 515, 516, 518, 519, 521, 522, 524, 525,
                  527, 528, 530, 531, 533, 534, 536, 537, 539, 540, 542, 543,
                  545, 546, 548, 549, 551, 552, 554, 555, 557, 558, 560, 561,
                  563, 564, 566, 567, 569, 570, 572, 573, 575, 576, 578, 579,
                  581, 582, 584, 585, 587, 588, 590, 591, 593, 594, 596, 597,
                  599, 600, 602, 603, 605, 606, 608, 609, 611, 612
    2    6 C      2, 4
    3    8 O      7, 13, 16, 19, 22, 25, 28, 31, 34, 37, 40, 43, 46, 49, 52,
                  55, 58, 61, 64, 67, 70, 73, 76, 79, 82, 85, 88, 91, 94, 97,
                  100, 103, 106, 109, 112, 115, 118, 121, 124, 127, 130, 133,
                  136, 139, 142, 145, 148, 151, 154, 157, 160, 163, 166, 169,
                  172, 175, 178, 181, 184, 187, 190, 193, 196, 199, 202, 205,
                  208, 211, 214, 217, 220, 223, 226, 229, 232, 235, 238, 241,
                  244, 247, 250, 253, 256, 259, 262, 265, 268, 271, 274, 277,
                  280, 283, 286, 289, 292, 295, 298, 301, 304, 307, 310, 313,
                  316, 319, 322, 325, 328, 331, 334, 337, 340, 343, 346, 349,
                  352, 355, 358, 361, 364, 367, 370, 373, 376, 379, 382, 385,
                  388, 391, 394, 397, 400, 403, 406, 409, 412, 415, 418, 421,
                  424, 427, 430, 433, 436, 439, 442, 445, 448, 451, 454, 457,
                  460, 463, 466, 469, 472, 475, 478, 481, 484, 487, 490, 493,
                  496, 499, 502, 505, 508, 511, 514, 517, 520, 523, 526, 529,
                  532, 535, 538, 541, 544, 547, 550, 553, 556, 559, 562, 565,
                  568, 571, 574, 577, 580, 583, 586, 589, 592, 595, 598, 601,
                  604, 607, 610
    4    7 N      9

molecular fragmentation (1/2 indicates fragments):
111111111111222222222222222222222222222222222222222222222222222222222222
222222222222222222222222222222222222222222222222222222222222222222222222
222222222222222222222222222222222222222222222222222222222222222222222222
222222222222222222222222222222222222222222222222222222222222222222222222
222222222222222222222222222222222222222222222222222222222222222222222222
222222222222222222222222222222222222222222222222222222222222222222222222
222222222222222222222222222222222222222222222222222222222222222222222222
222222222222222222222222222222222222222222222222222222222222222222222222
222222222222222222222222222222222222
# atoms in fragment 1/2:    12   600
 fragment masses (1/2) :       62.09     3603.06
CMA distance (Bohr)    :   2.139
constraining FC (au)   :  0.0500

           -------------------------------------------------
          |                 G F N 2 - x T B                 |
           -------------------------------------------------

        Reference                      10.1021/acs.jctc.8b01176
      * Hamiltonian:
        H0-scaling (s, p, d)           1.850000    2.230000    2.230000
        zeta-weighting                 0.500000
      * Dispersion:
        s8                             2.700000
        a1                             0.520000
        a2                             5.000000
        s9                             5.000000
      * Repulsion:
        kExp                           1.500000    1.000000
        rExp                           1.000000
      * Coulomb:
        alpha                          2.000000
        third order                    shell-resolved
        anisotropic                    true
        a3                             3.000000
        a5                             4.000000
        cn-shift                       1.200000
        cn-exp                         4.000000
        max-rad                        5.000000


          ...................................................
          :                      SETUP                      :
          :.................................................:
          :  # basis functions                1224          :
          :  # atomic orbitals                1224          :
          :  # shells                          816          :
          :  # electrons                      1626          :
          :  max. iterations                   250          :
          :  Hamiltonian                  GFN2-xTB          :
          :  restarted?                      false          :
          :  GBSA solvation                  false          :
          :  PC potential                    false          :
          :  electronic temp.          300.0000000     K    :
          :  accuracy                    1.0000000          :
          :  -> integral cutoff          0.2500000E+02      :
          :  -> integral neglect         0.1000000E-07      :
          :  -> SCF convergence          0.1000000E-05 Eh   :
          :  -> wf. convergence          0.1000000E-03 e    :
          :  Broyden damping             0.4000000          :
          ...................................................

 iter      E             dE          RMSdq      gap      omega  full diag
   1  -1039.6339889 -0.103963E+04  0.405E+00    8.15       0.0  T
   2  -1039.7515551 -0.117566E+00  0.240E+00    8.32       1.0  T
   3  -1039.7761747 -0.246196E-01  0.228E-01    7.89       1.0  T
   4  -1039.7802413 -0.406662E-02  0.905E-02    8.01       1.0  T
   5  -1039.7807569 -0.515591E-03  0.294E-02    8.07       1.0  T
   6  -1039.7807869 -0.300195E-04  0.133E-02    8.08       1.0  T
   7  -1039.7807918 -0.489293E-05  0.191E-03    8.08       2.1  T
   8  -1039.7807922 -0.466515E-06  0.633E-04    8.08       6.4  T
   9  -1039.7807923 -0.189605E-07  0.203E-04    8.08      20.0  T

   *** convergence criteria satisfied after 9 iterations ***

         #    Occupation            Energy/Eh            Energy/eV
      -------------------------------------------------------------
         1        2.0000           -0.7370441             -20.0560
       ...           ...                  ...                  ...
       807        2.0000           -0.4589295             -12.4881
       808        2.0000           -0.4575141             -12.4496
       809        2.0000           -0.4567521             -12.4289
       810        2.0000           -0.4561345             -12.4121
       811        2.0000           -0.4527958             -12.3212
       812        2.0000           -0.4517040             -12.2915
       813        2.0000           -0.4488902             -12.2149 (HOMO)
       814                         -0.1520085              -4.1364 (LUMO)
       815                         -0.1374841              -3.7411
       816                         -0.1267057              -3.4478
       817                         -0.1258528              -3.4246
       818                         -0.1121855              -3.0527
       ...                                ...                  ...
      1224                          0.3756620              10.2223
      -------------------------------------------------------------
                  HL-Gap            0.2968817 Eh            8.0786 eV
             Fermi-level           -0.3004493 Eh           -8.1756 eV

 SCC (total)                   0 d,  0 h,  0 min, 16.945 sec
 SCC setup                      ...        0 min,  0.035 sec (  0.209%)
 Dispersion                     ...        0 min,  0.086 sec (  0.507%)
 classical contributions        ...        0 min,  0.021 sec (  0.123%)
 integral evaluation            ...        0 min,  0.718 sec (  4.234%)
 iterations                     ...        0 min,  6.360 sec ( 37.531%)
 molecular gradient             ...        0 min,  9.654 sec ( 56.973%)
 printout                       ...        0 min,  0.071 sec (  0.421%)

         :::::::::::::::::::::::::::::::::::::::::::::::::::::
         ::                     SUMMARY                     ::
         :::::::::::::::::::::::::::::::::::::::::::::::::::::
         :: total energy           -1033.467120018612 Eh    ::
         :: gradient norm              0.000305973541 Eh/a0 ::
         :: HOMO-LUMO gap              8.078562847138 eV    ::
         ::.................................................::
         :: SCC energy             -1039.780792266928 Eh    ::
         :: -> isotropic ES            5.741289003854 Eh    ::
         :: -> anisotropic ES         -1.310143238659 Eh    ::
         :: -> anisotropic XC         -0.098199295742 Eh    ::
         :: -> dispersion             -0.631882901893 Eh    ::
         :: repulsion energy           6.191893138189 Eh    ::
         :: add. restraining           0.000000000000 Eh    ::
         :: total charge               1.000000000000 e     ::
         :::::::::::::::::::::::::::::::::::::::::::::::::::::

      ----------------------------------------------------------- 
     |                       L-ANC optimizer                     |
      ----------------------------------------------------------- 
          low memory version by Sebastian Ehlert

          ...................................................
          :                      SETUP                      :
          :.................................................:
          :   energy convergence        0.5000000E-05 Eh    :
          :   grad. convergence         0.1000000E-02 Eh/a0 :
          :   optimization log               true           :
          :   writing optlog all                1     steps :
          :   Hessian reset                    20     steps :
          :   maximium step len.        1.0000000     a0    :
          :   LBFGS images                     20           :
          ...................................................
 * calculating model hessian...
Using Lindh-Hessian (1995)
 Shifting diagonal of input Hessian by   1.357177830301225E-002
 Lowest  eigenvalues of input Hessian
    0.010000    0.012824    0.000000    0.000000    0.000000    0.000000
    0.000000    0.000000    0.013577    0.013583    0.013597    0.013642
    0.013687    0.013699    0.013721    0.013738    0.013751    0.013759
 Highest eigenvalues
    1.452761    1.455735    1.456176    1.458147    1.459080    1.482479
 

........................................................................
.............................. CYCLE    1 ..............................
........................................................................
   1  -1039.7805853 -0.103978E+04  0.775E-04    8.08       0.0  T
   2  -1039.7805853 -0.939008E-08  0.471E-04    8.08       8.6  T
   3  -1039.7805853 -0.303908E-08  0.556E-05    8.08      72.7  T
     SCC iter.                  ...        0 min,  2.002 sec
     gradient                   ...        0 min,  9.479 sec
 * total energy  : -1033.4671201 Eh     change       -0.9911446E-07 Eh
   gradient norm :     0.0003306 Eh/a0  converged?    E=T G=T D=F
   step length   :     0.0101750 a0

   *** GEOMETRY OPTIMIZATION CONVERGED AFTER 1 CYCLES ***

------------------------------------------------------------------------
 total energy gain   :        -0.0000001 Eh       -0.0001 kcal/mol
 total RMSD          :         0.0004113 a0        0.0002 Å
 total power (kW/mol):        -0.0002602 (step)   -0.0000 (real)
------------------------------------------------------------------------

 L-ANCopt (total)              0 d,  0 h,  0 min, 18.784 sec
 setup                          ...        0 min,  0.022 sec (  0.117%)
 model hessian                  ...        0 min,  4.719 sec ( 25.121%)
 ANC generation                 ...        0 min,  1.622 sec (  8.637%)
 coordinate transformation      ...        0 min,  0.008 sec (  0.041%)
 Rational function              ...        0 min,  0.002 sec (  0.013%)
 singlepoint calculation        ...        0 min, 12.396 sec ( 65.992%)
 optimization log               ...        0 min,  0.011 sec (  0.056%)
                                ...        0 min,  0.000 sec (  0.000%)

================
 final structure:
================
612
 xtb: 6.5.1 (579679a)
H           -1.33065622559621        0.05391627107155       -1.55424399189234
C           -0.49946457052834        0.14037140482752       -0.85788287671753
H            0.16439755401365       -0.71647423350149       -0.96642257039637
C           -0.99603927119850        0.19834080384631        0.57357386765965
H           -0.21807231209331        0.66077237038402        1.17463494350842
H           -1.19753801850906       -0.80484323499754        0.93241500680628
O            0.22531232939007        1.32914723081865       -1.14532906186882
H            0.48566618687308        1.30390583444254       -2.09313671968510
N           -2.23094865224020        0.98152815141310        0.69694199765316
H           -2.95918599904843        0.57534582921714        0.05610972970573
H           -2.04598479680701        1.96707361821750        0.43441595922525
H           -2.56085414745917        0.92813248432068        1.68646137188731
O            2.79546130213451        5.23779391855444        1.10345622846317
H            2.49975043795912        6.13097433615211        0.83681175846441
H            3.44064042972826        4.96133739218051        0.43201128013488
O            3.50003388501588        2.30558882047074       -3.76422036171047
H            2.57734419186965        1.99333906329131       -3.70504675302237
H            3.40354533300023        3.23484332037237       -4.03950056862152
O            5.91024027010568        4.69468537765603        0.73864890158748
H            6.28799109449419        4.71180329820800        1.63965124294201
H            5.39498409483519        3.87101090799994        0.67464036812069
O            1.22980135160904        3.07237239590778        1.26164178996452
H            1.64220674995968        2.67356389957717        2.04870351007638
H            1.59938751136055        3.97613716553354        1.24283077586415
O           -6.99669743745169        3.78358297494599        0.03030698316054
H           -6.56331385663504        3.47346439254749        0.85360472550342
H           -6.44283944806306        4.47634483049631       -0.36235438624910
O           -4.03385900034301       -4.27390832143108       -5.60922966631873
H           -4.56119824237517       -3.83840545230689       -6.28259043006679
H           -3.09595795209811       -4.00591161826129       -5.73561614116838
O            3.23349192583610        0.23035009454122        2.87094027295004
H            2.94321339757371        0.23856230301286        1.94483136721184
H            2.83080357360661        1.03480771261360        3.25415361228386
O            4.93961107453985        7.15185841098431        0.20992661342470
H            5.22383615330886        6.21894255161920        0.33670971164291
H            5.65499645668463        7.58774024293119       -0.25066894994138
O            1.02060638465657       -1.36594001664948        1.82370280583979
H            1.90405646682941       -1.75894365192743        1.93954761995819
H            0.55890988038315       -1.93189483300940        1.19225647230365
O           -4.27192250350791       -2.93200593126702       -3.29233433341770
H           -4.63469407395052       -3.55171236703061       -2.62609742449819
H           -4.26667823008071       -3.44397851663851       -4.12288599339157
O            1.67451626050408        3.63067497331136       -1.39739517372725
H            1.48890813346957        2.97764305498078       -2.07921942609954
H            1.51484375766276        3.23463000366753       -0.52407546485834
O            5.75190026899855        2.83485807571816       -2.29185435484343
H            6.63780376431161        3.01051465633271       -2.65635282106701
H            5.15268556329622        2.61308734305015       -3.01690226404906
O           -6.06989779261592        0.17723839148446        0.75411294580580
H           -5.39725964483046        0.77882892892154        0.39629004405991
H           -5.98898311230818       -0.66829022549569        0.27030252239113
O            1.85810269660420        2.25500632915285        3.74216463897442
H            2.10640231638702        2.71874902948573        4.56696781548433
H            1.08659514111942        1.69578857057139        3.94386296247100
O            3.10353623816494        4.69754818063846        3.68043928225565
H            3.65991208861803        5.33126859285975        4.14989407232467
H            3.02701745947943        4.99620897596250        2.75009974555977
O            4.97633566036194       -1.05339286098876        0.30254351688148
H            4.77972942218915       -0.35496370870299       -0.34885010432228
H            5.58308670737061       -0.65459592961788        0.96901653258914
O           -4.05890264054349       -3.80348810920558        5.44998054179700
H           -3.11457178884564       -3.99769333157176        5.53092403968941
H           -4.26143867414901       -3.15612845714377        6.13660983721678
O           -0.37362137624356       -2.95236010442214        0.03601775079661
H            0.16321106727936       -3.36523791109017       -0.67236944651161
H           -0.70615296256065       -3.68798758856454        0.56201514284180
O           -0.00867556408485        0.32950796515574        3.68937925892254
H           -0.85859725547274        0.68454583077058        3.41162243015820
H            0.31547763722921       -0.28464137718138        2.99969524193216
O            1.22022541403120        1.21241452870343        7.40238787869179
H            1.96181865574999        0.58276725842191        7.42749859815842
H            0.46801648454966        0.64517303858408        7.14875072911599
O            7.10424160825744        1.82450187702324        4.76633136970988
H            6.59045225090969        1.91879867252560        3.95145676961291
H            8.03723395633340        1.73607704252892        4.49434800479988
O           -3.31498253599743        3.76314745668540        1.79508229077129
H           -2.44504836414018        3.43858363588842        2.14194421292289
H           -3.12182971752131        4.43629783713556        1.11297937206581
O           -5.60737835902244        0.78769844154392        3.27682103704182
H           -5.84699760504647        0.41053602158019        2.40368175258923
H           -5.94958094943324        0.17038152353347        3.95338262393046
O           -2.04079257278492       -2.20898999776546       -1.88948721501546
H           -2.45912414641433       -3.06562245773092       -2.07367100897005
H           -1.49133932802176       -2.37834646650295       -1.09543248092219
O            2.56707208817694       -1.96876950214947       -0.83630225162924
H            3.51556735607662       -1.99253066266236       -0.98686035703030
H            2.33545298086918       -2.84855402671233       -0.49620018881929
O            9.35877432127488        2.30744821216514       -0.07030430745393
H            9.62780402990388        3.23139577455091        0.04582890411199
H            9.61241428012107        2.03281266695202       -0.96003712354260
O           -3.00245695841192        0.68336295850228        3.28073136221856
H           -3.98805228934948        0.72244405461909        3.23412099146436
H           -2.83200203498879       -0.13565549814171        3.81246747704651
O            4.27011788189900        0.32827716702738       -1.87064860109123
H            4.67983287100613       -0.25254814693868       -2.52690777920022
H            3.93285446494126        1.09089062299271       -2.34912357798563
O           -0.35642518929522       -0.60032230162101        6.19173310416273
H           -0.09542737811846       -0.28041352803594        5.30091479029956
H            0.11526120650762       -1.43535314247721        6.34604550611594
O           -2.65367436268096       -1.24994352884446        4.99184179774532
H           -1.87690804617996       -0.99781918107544        5.52740793452413
H           -3.40360822552630       -1.27583870635599        5.60479069216476
O           -0.78867618696915       -1.69486514888492       -7.69765431771741
H            0.04916902312372       -1.70726755202699       -7.15997117003951
H           -0.54532737550078       -1.93292416158556       -8.59077895805521
O            3.91356736074813        6.66841367538047       -2.87961586775132
H            4.02136673682980        5.98533905246089       -2.16650047992426
H            3.06080171396727        7.07961857710542       -2.71225200231213
O            0.35241633968510        1.49368230155568       -7.72736509102675
H           -0.51535985255708        1.60014963924375       -8.12259660982021
H            0.62850834215350        2.35838248814788       -7.38197460615058
O            5.34108839556329       -1.60634113929561       -3.41543083331613
H            5.86193803367494       -1.89175763658675       -4.18382984345553
H            5.75190280927665       -2.05626391215822       -2.64051308576390
O           -1.98030652163176       -4.63310236945465        2.76076380795770
H           -2.08770812968316       -3.67730354611205        2.54886982784517
H           -1.79022557806298       -4.69646524347094        3.69949196232829
O          -10.77258595053748       -2.56954481853111       -1.32648309602893
H          -10.11695575216925       -2.23874239948300       -0.67782029114357
H          -10.96564468815806       -3.46652256937249       -1.04343239896447
O           -6.95322748247369       -3.14017632503680        1.77705496215149
H           -7.15246851585322       -4.09356452819977        1.71270272956404
H           -7.55206626941155       -2.69275992207299        1.14560325931801
O           -2.50549708710071       -2.07231426757258        2.14471843757874
H           -3.29392204021735       -1.93157951566332        2.71546833771097
H           -2.90513767789818       -2.35514976329726        1.29801722881758
O            0.86994705876451        2.04939981475891       -3.62781753986402
H            0.49419817247968        2.92303516697954       -3.86439638064546
H            0.51551548098658        1.38089801786253       -4.24736500867148
O           -1.42293411154834        6.70471200136398       -1.97634064288661
H           -2.01659207641200        6.19711985229382       -1.39047354965462
H           -1.81928876281746        6.67373589790329       -2.86035797137526
O           -8.20005520396591       -0.48787427587696        2.63637510709498
H           -7.40921935531680       -1.01087354169721        2.78296862365723
H           -8.87153393059449       -0.79118146464756        3.27548598427510
O            9.03449014692058       -1.09069076419829        4.95747517739514
H            9.51419008032634       -0.25733862366400        4.87294683452101
H            8.25211365550572       -0.87678304176679        5.50459742277496
O           -2.52714216519155       -4.81513752066783       -1.40226791944289
H           -3.03384789223334       -5.63498394506198       -1.27622620762663
H           -1.67526608209688       -5.02392664763863       -0.96870682842916
O            2.47294111145006        0.59337668878069        0.28423312446897
H            1.68106487567056        0.99005022311970       -0.10411858485007
H            2.54987646611730       -0.28852129851528       -0.11276801364818
O            4.53245621049409        2.29986191305188        0.70582373912981
H            5.29739100157648        1.81201153510781        0.35965267261466
H            3.75375257278992        1.75740386144035        0.48269729749485
O            0.64073584086101       -6.04385924072362        5.06310854334567
H            0.63829339346699       -6.54149420081168        4.22792982286444
H            1.45214007449616       -5.52054385262511        5.06392260019885
O           -6.12690617535556       -5.23963328552561        4.34175282301525
H           -5.63141824187378       -5.11827487490955        3.50791388489176
H           -5.47266194566217       -5.03052446544457        5.02022147362527
O            1.82454391150996       -6.50969134041684       -4.53698509157162
H            0.89680917928833       -6.23388086600253       -4.42838883000076
H            2.25612959255391       -5.81027025540103       -5.06500543321405
O            1.70902781386914        3.75212963308858       -6.73094963820216
H            2.04805334419417        4.18439700166330       -5.92794234984859
H            2.39603812827896        3.11040571372462       -6.96568414280251
O            4.10813109131469        4.63802390769757       -1.23876117521627
H            3.25354800637852        4.19017046101803       -1.39041306159375
H            4.79424327551433        4.00791651896702       -1.53914004384988
O            2.94610645583253       -2.78300801687834       -3.62624643625859
H            3.11372559342977       -3.35199882116805       -2.85916884167315
H            3.75493504380055       -2.23679035948458       -3.67939186237579
O           -1.97518583195111        1.38665854752935       -3.61434701828470
H           -1.97664052863288        0.42219420183106       -3.78722255357918
H           -1.78415713498496        1.79519311965984       -4.48397768202795
O           -1.50565120150776       -3.50409230498764       -5.72219526206498
H           -1.36628017062499       -2.96999417463157       -6.51938369409897
H           -1.16954568564275       -2.95524903487638       -4.98657365297567
O            4.00788276842495        7.74316634692147        2.77756286620928
H            4.33412978175010        7.57120655600109        1.87970464163397
H            3.03748499724092        7.62462312779802        2.75197879330397
O           -2.60917550212136        6.03607728283840       -4.38343546132906
H           -2.10695653066456        5.96258608484644       -5.20343159441212
H           -2.66854502810240        5.13925313325750       -4.01453126758189
O            6.52832782395816       -0.15519196464867        2.22939019425441
H            7.40601792005661       -0.59315698741605        2.16147936033355
H            6.71118863025126        0.80116987704224        2.12702358138729
O           -0.36909593981766        2.73561560177839        5.46282886138092
H           -1.30083354494907        2.51765196128449        5.66667490175079
H            0.16701851056312        2.34639439063429        6.16180626831639
O            5.43859590997569        3.57422393303560        6.16055346483494
H            5.37524282934763        4.45811091825144        5.78817080052270
H            6.17205413498275        3.13465006546415        5.69611823434810
O            1.70015686014413       -0.33328578104346       -2.95665359743651
H            2.17532881774342       -0.87232933025078       -2.30630279430724
H            1.00723390434629       -0.91052903349131       -3.32133217797122
O           -0.02541323379926        0.24671179156581       -5.35388972425612
H            0.05328201008969        0.59692635444543       -6.25828451668339
H           -0.80267922059923       -0.31731505019267       -5.30077198940291
O           -2.36381836956692        3.88915630748465       -2.63549396741738
H           -2.26929084873053        2.97047417346596       -2.93462387107228
H           -2.09230239904645        3.86230122608359       -1.68757925217338
O           -0.37257124798152       -5.68795021243258       -0.05894543771917
H           -0.32493614683528       -6.58161118511551       -0.42866324511125
H            0.54678325062562       -5.37457743170418        0.00823994317559
O            4.91207816189588       -4.19893572778460        0.78807075524694
H            5.78903843359969       -3.78125932370746        0.90475707508071
H            4.27477493798818       -3.59913529809705        1.23665574194448
O            3.37164474123739       -6.78675777325540        1.11322783444176
H            3.95347565915720       -6.97472503754161        0.35527661755008
H            3.97139232453951       -6.62924202553197        1.85767667627884
O           -6.61672754166401        5.69020099600116        3.21265102843656
H           -6.34823917508042        4.77423953619822        2.98235938921819
H           -6.68901042531716        5.69918178946310        4.16914179862337
O            9.72159874315188        1.57583911725089        4.03881142414594
H            9.76964340924186        2.53258116701963        3.89338845861587
H           10.08935809319282        1.20297265242075        3.21939234580107
O            9.77561726013322        5.01325556223736        0.37152212473629
H            8.98760499254551        5.17567647450871       -0.20904878210855
H           10.48512756530475        5.55963614816957        0.03686763541476
O            9.21102023350259        4.05064121662897        2.95049196616501
H            9.49039315621072        4.48035909284500        2.12979849510030
H            8.36215341506096        4.45383565312724        3.20056933706777
O           -3.82075568081762       -0.31762475615473       -1.04551074197229
H           -3.29429744551108       -1.07323818439391       -1.36017739377699
H           -4.06987840750186        0.21153547622988       -1.82173629005625
O            5.77637176657272        3.53494153840069       -5.21119403134639
H            5.99685846419947        4.27921555338080       -4.59837646903026
H            5.26313457700363        3.91773978732725       -5.92158347374482
O           -5.37644013235158        1.59252141188546        6.55050782068171
H           -5.71217556112524        0.85011906073894        6.03970228268784
H           -4.45033804630075        1.73998089396799        6.27338249698422
O           -8.35104452328694       -0.44210108941766       -1.91468219158804
H           -7.73988820119260       -0.88381635631779       -2.51709742047704
H           -7.90337496299455        0.38944893834407       -1.65277020693019
O           -8.20244613512363       -0.69588498132487       -5.02065377969948
H           -7.36933283364360       -0.77514444071397       -4.51392097147537
H           -8.54264278997773        0.18276948846337       -4.81832033600878
O            7.63857119381537       -6.21203626444458        1.27084069188545
H            8.36354784632252       -5.66639355035778        1.61114685007242
H            6.91752871011758       -6.17078352406863        1.92103018397865
O            8.56269927186114       -2.19164739648527       -3.53429298190964
H            8.18496881197880       -1.32251281365704       -3.26085791930054
H            8.02376646184599       -2.49597530693166       -4.27723403889580
O           -2.96541913756741        2.20356943276486        5.48101204941417
H           -2.92499358971218        1.67329567690341        4.65487019583837
H           -3.27417621562415        3.09148219640704        5.20357010728189
O           -0.32530282393761        5.41910986791851        1.16256826480981
H           -0.84716017858216        5.40132424158978        1.98241687241369
H           -0.45484652210717        6.30641603272960        0.77697927763174
O           -8.77130900158036        4.90588279719062        1.75290628498449
H           -8.26501838836164        4.54583945800271        0.99625457940575
H           -8.14922348638697        5.46186963592965        2.24848330917431
O           -1.04926953983185        2.81427543231626        2.68675605697324
H           -0.77615395781128        2.93922299782487        3.60489208412081
H           -0.26572423611662        3.00943611861199        2.13275061757630
O            1.34515262017732        7.13464686480745        2.87769427785880
H            0.97718173820476        6.50373840010766        2.24473507654968
H            1.09877048927256        6.80783106842580        3.74823584287135
O           -0.38153209878199       -2.43354182397469        3.87807275795380
H           -1.11828814441323       -2.06975330817555        3.36630415040144
H           -0.76781913884187       -2.97984299181158        4.58621665664817
O            7.20653519214759       -3.21512417093023        1.55593214194865
H            7.86394045788914       -2.53692197601069        1.36215568278765
H            7.35381947519661       -3.43602562454521        2.48591502960587
O           -2.42742996611727        0.51021749247834       -7.57514087152459
H           -1.81718198304550       -0.24512715442673       -7.64260311520328
H           -3.24166321553153        0.13593092048670       -7.19358869240840
O           -8.88996027333478        2.63723039562802        3.21795931689122
H           -9.84571519181741        2.45458817082773        3.18330921508949
H           -8.80157140891708        3.51684650532470        2.79164715597470
O            3.08301003332788       -0.24903980853643       -5.17559407413372
H            2.90050741314695        0.54514167249151       -5.70359104625566
H            2.57875155889729       -0.19601871767602       -4.31977553926397
O           -0.79746165426588        4.96740364531536       -6.36159355716253
H           -1.21411387631119        4.08027156661420       -6.36908998758485
H            0.06513569216119        4.84878771887374       -6.77670278838007
O            6.93077171716707       -0.24840649494930        6.42561640726540
H            7.20142083126812        0.16199231899593        7.24675506967631
H            6.77618758261034        0.48940296841960        5.78648695177677
O            5.23147025542425       -2.37905251629773        7.16500743503154
H            5.89206302156206       -1.70797806874992        6.93890922323718
H            4.38534203326052       -1.89293337043335        7.17775372268301
O            2.75155805755839       -4.27104940920650       -5.75934017148032
H            1.99650157167574       -3.82845684018543       -6.16914626555359
H            2.85880146143566       -3.78847057353757       -4.89462191749406
O            6.34902086610961        5.56943952819393       -3.62866433495676
H            5.59700579159676        6.14698584164277       -3.45483200041710
H            6.84991207797745        5.49686786555466       -2.79886921293744
O            4.08438782301997       -4.31590990521560       -1.76009741008027
H            4.43495540360486       -4.26253517331335       -0.84641484482396
H            3.57503257478126       -5.14150941077144       -1.79616732844614
O            5.11334237595870       -1.43935784226221        4.02054815130099
H            5.66120689673156       -0.96628420405161        3.35488501346236
H            4.81048406129528       -0.74336791901993        4.61672554740972
O            0.33320467516474       -7.96430727210506       -1.40563654798018
H            1.15534895512033       -7.48509534543223       -1.64585392061474
H            0.58929570396167       -8.71907977216476       -0.87720185042776
O            2.11728834511996       -1.50323821528699        4.50930062618276
H            1.21287603647292       -1.67351618666789        4.19771573429738
H            2.53564908529693       -0.87277588742518        3.86650227975719
O            8.52609379129619       -0.92686097752829       -0.77848237999925
H            9.07990131538454       -1.52392989778893       -0.24651950056297
H            9.14622714037418       -0.38003265920686       -1.29768220266882
O           -6.48014737008562        3.61561392514922        5.14375367165726
H           -6.17810396556089        2.94600539287541        5.79341837238072
H           -7.23966671346132        3.22599700342056        4.69994383997632
O           -4.65416770867029       -1.44081002022774        6.85936963397273
H           -4.62584682174723       -0.79809564385096        7.56998614678623
H           -5.44469506561988       -1.21950878653050        6.32148704038805
O          -10.40127612887468        1.21610160895081       -2.72856982551049
H           -9.71356449792750        0.54879617291310       -2.57028805329059
H          -11.20309669490901        0.83755366151025       -2.31270668638273
O           -0.07699805320349       -2.23905113304547       -3.70858127384300
H           -0.83533768018496       -2.09645140990134       -3.10296348793992
H            0.48417746895959       -2.89612073539155       -3.25279946681711
O            4.98691326194526        6.40825790468956        4.75927447419401
H            5.03713533137861        6.98691457879643        5.51915097566783
H            4.67019252550910        6.98299547934178        3.99965529806044
O           -8.55989186278135        5.40755894653559       -1.71540579792915
H           -9.32986060999879        5.97305314032064       -1.76523218878461
H           -8.89489941925629        4.52020711575962       -1.42236189010205
O           -3.90364196227409       -3.18887510222333        0.22719114074931
H           -3.50862399884024       -3.80461735763497       -0.42357779278153
H           -4.67370548304352       -2.75149226902769       -0.18790611969726
O           -7.75536094349595        1.99830407385625       -4.12817136709961
H           -7.45772926030325        1.85054682746492       -3.20521467727852
H           -7.88022055124960        2.95293643724702       -4.18632202391408
O            0.63462203026605        5.15901415497037        4.76853330996969
H            1.51779184737434        4.90547177741238        4.43443850624404
H            0.32222679727168        4.36000936664082        5.22570039730305
O            5.35696145299598       -5.81282096265172        2.84207866428529
H            5.18793923074314       -5.17878223746889        2.10598571266968
H            5.40659734365914       -5.29058964437503        3.64995348524210
O            6.47487665503408       -2.57826711366906       -1.23604088699090
H            5.91006524215949       -2.11563260823320       -0.57589492828652
H            7.31321590560382       -2.07988835605567       -1.20781658773511
O           -7.66276227303255       -3.04437063555651        4.33483326385029
H           -7.22554947052399       -3.87827875178539        4.59437245206365
H           -7.50029007134990       -3.01835641866073        3.36299436000967
O           -0.53815846520398        7.97644446678648        0.30299404837047
H            0.41149491842334        8.15602887188041        0.36633468999058
H           -0.75147665922991        7.84407144511890       -0.63197702891992
O           -7.87160148850711       -3.88066693532635       -1.32239391297835
H           -8.35457350837500       -3.50758563536446       -2.07631279499711
H           -8.54547800447898       -4.10389360790759       -0.64652315555000
O          -10.82628912633372        0.16727576002983        1.11600695073314
H           -9.94345975204145        0.54458451091023        0.90557762772611
H          -11.21434663489390        0.79947433306969        1.74315902757625
O          -11.06844642673555       -2.36687775470545        1.95672046359149
H          -11.99741348716345       -2.55464545361817        1.82446716451381
H          -10.91431011694098       -1.46503472664662        1.58466156122946
O           -9.97455281887139       -1.59891239176104        4.33688872815024
H          -10.50266597892742       -1.97248308648583        3.60938567797458
H           -9.32137362286806       -2.27984237571180        4.56797250992447
O           -4.57080712707289       -4.87506088736544        2.14627721434159
H           -3.66509780892350       -5.01093720299902        2.47683498701513
H           -4.47243589890434       -4.17479326309768        1.45854985959854
O           -6.30423663702228       -2.42397189828196       -6.29974587287259
H           -7.11972956651439       -1.91030005943510       -6.31087802599635
H           -6.40006778058586       -3.01570821807080       -5.52143779339069
O            8.59289772062818        3.23414368864721       -5.32597413221947
H            7.64589644042628        3.28743783519994       -5.51927069518688
H            8.88527704940318        2.34441481430437       -5.57795298841063
O           -0.66504257307087       -5.52016559315710       -3.93300713823364
H           -1.29361950973516       -6.19250150766465       -3.59287587152649
H           -1.09477119977813       -5.02004663352026       -4.63600334685713
O           -4.87692710123501       -2.08921319223980        3.33456083416182
H           -4.66585765608349       -2.72330922277073        4.03773088757084
H           -5.45684104555178       -2.54321258761219        2.70584790861481
O           10.50942875743309        0.49329811814074       -1.95030717608970
H           11.15906899494454        0.10877313916682       -1.34257575054838
H           10.68930715117112        0.08826868490793       -2.81290656331532
O           -2.07594247184469       -7.54869591551274       -2.92549768033504
H           -1.24267034454855       -7.97284983718201       -2.68588639107528
H           -2.55863268398156       -7.50386876746470       -2.07530468422926
O           -4.47813094116386       -0.50359699492319       -6.11741209747861
H           -5.00583002875227        0.29981493807091       -5.95016221819197
H           -5.11991014295645       -1.24006684289200       -6.22621476486790
O            1.25929987709769        6.24856603290974       -2.05264113865934
H            0.30175099942717        6.40656578621925       -2.11908674213416
H            1.34954376504907        5.31214005079841       -1.79875660592577
O            2.09581863844500       -4.52404955865601        0.26335262042948
H            2.66079239180371       -5.29514261801540        0.45364068917381
H            1.79302592630740       -4.22696102825998        1.14658359211681
O           -1.31501219407889        3.40019942552221       -0.28634841707294
H           -0.88896882739803        4.13075094985720        0.21207412468672
H           -0.60285990863950        2.81219122998105       -0.59668411691785
O            3.19815511677844        1.49388902833890       -7.26407828328246
H            2.51915618170661        1.13990755971844       -7.84451025167601
H            4.05213584468498        1.08730182796928       -7.52357225630890
O           -5.93840889720596        1.75205355232496       -5.92617739340873
H           -6.62904228084739        1.76910224342968       -5.19799389162844
H           -6.41033109765722        1.87210082403052       -6.74941961851363
O          -11.54303160972404        2.25702674902860        2.69415951384991
H          -11.50855338404521        2.95195773159809        1.97232744565304
H          -12.33796326799168        2.42671709141431        3.19728567556901
O            7.73129177395202        0.32397579234948       -3.36185726390571
H            8.33008337764697        0.45606334682131       -4.13176575897832
H            6.84013307066818        0.39589177409784       -3.75329326024698
O           -5.57391847773655        7.36376384218657        1.29948168733290
H           -5.95121759786894        6.86732676565957        2.04407930089525
H           -4.65862666241162        7.56331684567967        1.53980073678457
O           10.14734465444911       -2.87522211473033        0.21271378602755
H           10.01412840781887       -3.43713300620051        0.99067676964354
H            9.95223679244604       -3.44298112008199       -0.57624530604108
O            1.12648134303052       -4.22011764598833        2.65896273561943
H            1.82659129953843       -4.25492197194518        3.32917654017852
H            0.50451410907745       -3.53177848401498        2.97833078211120
O            9.73029256959802       -4.65515686807438        2.34386511905519
H           10.43356736327711       -5.15924549583931        2.75132308790153
H            9.18299393403952       -4.28839208176555        3.06378520839028
O           -4.67175286455795       -6.34455808280984       -3.84715198936979
H           -3.89363403994762       -6.88473186855532       -3.67151383669907
H           -4.42223382869056       -5.71583527638152       -4.54147644156920
O            5.61669602201704        0.81603439309862       -4.93949950832771
H            5.57777073855335        1.78522054307748       -5.00930686386354
H            4.70758398749375        0.50400708137906       -4.78023178255616
O           -8.80696685221677        0.77171873048922        5.34277136334922
H           -8.77472400370823        1.37476225416196        4.58535377473628
H           -9.49280045291852        0.11926332221882        5.15193011773572
O           10.92028832216193       -1.13908885286163       -4.15016563184934
H           10.09156622918617       -1.63615488089296       -3.94343884647774
H           11.60765691748839       -1.79016417707281       -4.28302402238690
O            9.41476493322368       -4.22921416922262       -1.91121172146021
H            9.10414944582906       -3.52269181246055       -2.50298311098791
H            8.61871090005149       -4.73161460690642       -1.65895709405748
O            4.49840360592202        0.98116082021454        5.40900796133191
H            4.45316470802558        1.36736860946338        4.51224133247676
H            4.78820162319256        1.71299412684788        5.96157891167578
O            5.44122991849007       -3.84891068572385        4.98648378560210
H            5.41599513570010       -3.55468663712980        5.92496618110737
H            5.34667959282103       -2.98898537165760        4.51035420681466
O           -1.85970880016493       -7.23928903879801        1.75607931398535
H           -1.93074004496052       -6.30605064507710        2.00208508860104
H           -0.92238881978936       -7.43526297764860        1.88769677704288
O           -9.75878803819949       -4.45501101083594        0.53627739027167
H          -10.06059266283677       -3.72237336544599        1.09889357415280
H           -9.23083138259257       -5.03845061727071        1.09964446011216
O           -6.92832556505213        1.71753260465950       -1.60700907890649
H           -7.07734739966733        2.50200007125994       -1.02999174771986
H           -6.03969023796759        1.40923294900657       -1.41276838416535
O           -6.77874704390689       -4.01704697185006       -4.19637344399932
H           -7.68681070087776       -3.74033329331373       -3.99578951773764
H           -6.77780643951624       -4.96428959517707       -4.33867836362913
O            2.70151750800040        4.80530278367310       -4.39595254249901
H            3.23133109728139        5.52857895383709       -4.00355399868134
H            1.82913626265853        4.87099811668927       -3.97736835220185
O            6.65792721756634       -2.89322256869960       -5.41053703605603
H            5.86422471860820       -2.73924288108103       -5.96934748354589
H            6.44893287280206       -3.71055323843794       -4.90320009457012
O          -12.16889519550445       -0.15567180357564       -1.24835376892379
H          -11.87183251441676       -1.05635906636487       -1.44062288807130
H          -11.78248508789336        0.05095540594391       -0.37857532031602
O          -11.23936888483307        4.08921957162182        0.87282084844632
H          -10.83291136885248        3.68378318955442        0.07863443204294
H          -10.52350056842795        4.61315567100963        1.26246767497172
O           -3.25000583438816       -7.27539909143089       -0.53825794155983
H           -4.16875222793595       -7.31749590039496       -0.22666845026721
H           -2.69111479377585       -7.34175147778608        0.26693947323162
O           10.59802855852680        0.69528386715906        1.59584650161783
H           10.11958653357972        1.30085605447587        0.97722405345384
H           11.25451571140863        0.22408545140257        1.06249073464491
O           -5.23188063534159        6.58766035767532       -3.73119765752538
H           -5.27193330193742        6.60989754050201       -2.76373308657428
H           -4.29588595779556        6.58267437921825       -3.98081109412050
O           -8.74719558215157       -1.74163793524467        0.34610079784149
H           -8.51038031439056       -1.21748693732383       -0.44496771673188
H           -8.70117998757631       -1.13323168000324        1.10992294011813
O           -6.06150063957519       -1.01854217329023       -3.40378262649375
H           -5.54114552919545       -0.19440924735192       -3.44166471306455
H           -5.42690748428347       -1.76522773019609       -3.52448953740232
O           -1.63911486429380        5.73265193512822        3.52318186493833
H           -2.35488297216835        5.39742132775912        4.07600296652868
H           -0.81075958672200        5.60416280269625        4.03611190736278
O            6.99517916702678       -5.24972707958991       -1.10672135044203
H            6.72384812943082       -4.31146408017942       -1.03043387177349
H            7.26023452988930       -5.54997537220721       -0.20492667923132
O           -0.00877800829751        4.51156457209421       -3.84462998732959
H           -0.82189656675342        4.44408275838961       -3.31275504185748
H           -0.27340160653609        4.78954309485940       -4.74249205317478
O            0.84809837710941       -6.90907293542577        2.41129566901800
H            1.69069996637467       -7.10282493663478        1.98159213584384
H            0.74775461624035       -5.94008312597473        2.34517807660893
O           -7.73963393986080       -5.72654049286833        1.91589179199457
H           -7.11146516615734       -6.19338534315570        1.32140650350655
H           -7.49063039060278       -5.95467745098270        2.81654648376983
O            0.94616817039771       -2.98411723194590        6.84352046036742
H            1.51340271057306       -2.66868951342304        7.54897847740035
H            1.52189823389861       -3.46303547829839        6.22407796756624
O            2.71217105847543       -4.02442800437618        4.86728011151186
H            3.66916811015811       -4.17249532979503        4.95461941729023
H            2.61498067037898       -3.05576686632186        4.68567874943090
O            0.76069259055908       -4.17992532994913       -2.13297342954691
H            0.17322021196608       -4.74023453924087       -2.67958449801859
H            1.48784552766608       -4.74471465428845       -1.85391129368236
O            9.24189545428112        0.56458306809711       -5.53247477275284
H           10.06337034516816        0.13065110656385       -5.26776596616367
H            8.82656969371595       -0.02375160024413       -6.20647826960009
O           -5.89469756291761        6.11203729686141       -0.99244984084517
H           -6.82428724646150        6.10189474062302       -1.26530309269492
H           -5.85241263430297        6.67554366030238       -0.18255608712605
O           -7.07540334221358        4.65829206151586       -3.83901913040886
H           -6.54531415899676        5.45292868769800       -4.03002564719072
H           -7.69285195539666        4.93143415203400       -3.13268701229403
O            7.32028332358429        2.33167307650511        1.88092459269289
H            8.11356980423523        2.77571652070348        2.21497127051036
H            7.48255308197574        2.14397990238336        0.94206200017407
O            8.91495929989717       -1.24034869237142        2.22668906446824
H            9.02372405235024       -1.31554906881932        3.18818963882244
H            9.54535596843203       -0.54852661559596        1.93387575338124
O           -5.68468486034321       -6.52785780987316        0.40795898495565
H           -5.65212580592220       -5.92458753821134       -0.36154176519142
H           -5.19062358907504       -6.05010599156141        1.11074755994964
O            2.55832549393469        3.27640406430889        6.11106590609009
H            2.19394282597646        2.63913698960212        6.74249141927309
H            3.49649788154562        3.38983565519201        6.29692273310179
O           -4.24460633341472        3.67130087367301       -5.09041124648623
H           -4.88721387199588        2.98340563488777       -5.35516345208249
H           -4.65783090695048        4.52127529416073       -5.24980279808002
O           -8.48189011892053        1.43826802725505        0.78756255999965
H           -8.52336181148734        1.80106948099404        1.69241087445485
H           -7.64400898880279        0.93774658675451        0.75736320355059
O           -9.16848292142392       -2.82077786727270       -3.53130929988355
H           -9.02731249225925       -2.03336207294207       -4.08763626064515
H           -9.89508752940075       -2.60755714697609       -2.91738160355720
O            5.08145899684980       -7.15354198062992       -1.02244500437245
H            5.64476009770227       -7.90785887963713       -0.85111565978721
H            5.69618056291880       -6.38590102576827       -1.10405028773943
O            7.67979684134512        5.05251732020203       -1.22276051148033
H            7.95121265411848        4.21564383463611       -1.64240301670976
H            6.98736237393791        4.83212204159386       -0.55995559451029
O            5.94100920014007       -4.79369218438131       -3.70035494093995
H            5.24477768719195       -4.52923561020213       -3.06688570521980
H            6.62125261202990       -5.19785948498575       -3.15676083943389
O           -9.63656592628614        3.08365743787485       -1.03977012948370
H           -9.95473132831062        2.46587106247866       -1.74686864208493
H           -9.13548039495119        2.52669107731116       -0.41347211351090
O            8.38865679435508        2.88569395236342       -2.71915053246052
H            8.31768440248739        1.91341122400801       -2.75084818366355
H            8.59766310081529        3.16014912046868       -3.64122316227734
O            3.06171543304991       -0.74290332868366        6.85372589278539
H            2.58615045551578       -1.09074490123254        6.06756875272794
H            3.64372223519017       -0.06911577992841        6.45612574447768
O            6.67711867989932        1.07147522784070       -0.41558269327245
H            6.43647960788720        1.49718686756220       -1.25046502395242
H            7.32242164197417        0.37302588834754       -0.59934630039434
O            3.51613052960036       -2.37715655362902        2.04575146210090
H            3.89172818298165       -1.78105743894639        1.36240261631475
H            3.96549875263839       -2.08279337263454        2.86103886992540
O           -4.57422611615505        1.18237967553961       -3.20081535307638
H           -4.88396656195693        2.08334797007393       -2.97701329688560
H           -3.64518656822224        1.29363115469060       -3.48676565614272
O            2.18312414854974        7.60316326876395       -0.00142030104809
H            3.13134932946150        7.75680208664846       -0.09536503751526
H            1.87988500558101        7.13699097201282       -0.81609193072266
O           -3.21464621336884        5.59783974856004       -0.19900985986273
H           -3.11208701739187        6.32527140474747        0.45693850993230
H           -4.10232792658355        5.68405654913599       -0.56833075889872
O           -3.95284908012508        4.44885602738329        4.43295583813439
H           -4.87653902827590        4.27211822550194        4.68924102149969
H           -3.87864076158117        4.26869078075698        3.48186952364179
O           -5.88775698422450        3.24085178705795        2.35803970929534
H           -4.94206840490083        3.34796725485514        2.17318711118441
H           -5.97270121240861        2.38607801389225        2.82647352449705
O            1.25242796660890       -2.03700709731972       -6.12143204884917
H            1.91454944320380       -1.34629297346644       -5.92342144397751
H            0.78877149003773       -2.14318813747872       -5.27429216885416
O            4.81825397586998        2.68055759381447        3.31504079630351
H            4.07483044615962        3.29052205139864        3.50562419379501
H            4.72756073606402        2.43949337266088        2.36564335644467
O           -2.80677067170905        7.40409218282679        1.71882909144565
H           -2.43310119929099        6.91885817433735        2.47783059439087
H           -2.07176769769934        7.91449497445816        1.34786773202181
O           -1.96792515656669        2.59242747894654       -5.98859405133304
H           -2.15267229121653        1.85508073397329       -6.61164565512032
H           -2.82879916439074        2.98650695990895       -5.74513213973604
O           11.97443022265017       -0.98311953733268       -0.10127595637525
H           12.84941209899731       -1.36698309064427       -0.06966473367423
H           11.33336250691497       -1.72432958985356        0.03025299480232
O            4.36693271093285       -2.25855775121392       -6.57384544726133
H            3.86607209493218       -3.09231173429913       -6.47153963142496
H            3.95347022453910       -1.63094068424674       -5.95428846091926
O           -4.46834325340701        2.22812469514636       -0.15353982969120
H           -4.05405164180176        2.76993073816391        0.53297201746411
H           -4.67904453753062        2.83158619087192       -0.88265117418215
O           -5.06657494335996        3.66195434628166       -2.34249741895707
H           -5.78326678534084        4.03786853727566       -2.89448641417067
H           -4.21559570691963        4.02402815174490       -2.63360386530007
O            6.59039716449435        4.70519263383045        3.33949414199389
H            6.13353552310339        5.39626529762494        3.83902059206087
H            6.02701770177238        3.89704122386745        3.38818413822066
O            8.00423587432406       -1.11760772959081       -7.15610163120262
H            7.23273779624247       -0.65873256346016       -7.52613694700511
H            7.65890769385913       -1.84951655162406       -6.62654056609193
O           -6.04638515518690       -1.99971039797766       -0.80657775533446
H           -6.74372347856598       -2.68414079087465       -0.87205294295168
H           -5.95031979657673       -1.61751618230860       -1.69177942533930
O           -2.49438453452944       -1.06235346516689       -4.45930183273227
H           -3.20593449704291       -0.85416010753319       -5.09877890616661
H           -2.89580649640720       -1.67613668814714       -3.82940759483159
O           -5.37999398459517       -4.86094450972420       -1.72508309579115
H           -5.21524816893722       -5.47913454960542       -2.46641832870161
H           -6.31643200231295       -4.59964113838790       -1.75000403937746
O            2.55620708728846       -6.55309978650226       -2.06436441993449
H            2.36346964874708       -6.57699989248311       -3.04731520184488
H            3.36088941156423       -7.06454416417609       -1.91493107313760
O           -6.65437195759680       -0.72711527058023        5.24034031019832
H           -7.46346022591446       -0.17995829830127        5.40149763035167
H           -6.98007480112397       -1.60918379338851        4.95097463175054
O            5.49632001506249        0.07311144246047       -7.50406409668530
H            5.67422800107380        0.34226873987980       -6.57263212080166
H            5.09766795519218       -0.80755655582774       -7.44315076161285
O            8.02639498707977       -3.64859412061091        4.19315221930016
H            7.16625855236154       -3.83373102672548        4.61839680811206
H            8.38197526036241       -2.84579769524824        4.59416776259918
O           -1.25182988878321       -4.28882459141990        5.63181489011632
H           -0.87963701226029       -3.87618999318701        6.41918997358703
H           -0.63101080273197       -5.03643909909990        5.44145188692011
 
 Bond Distances (Angstroems)
 ---------------------------
H1-C2=1.0878         C2-H1=1.0878         C2-H3=1.0893         C2-C4=1.5163         C2-O7=1.4217         H3-C2=1.0893         
C4-C2=1.5163         C4-H5=1.0864         C4-H6=1.0843         C4-N9=1.4675         H5-C4=1.0864         H6-C4=1.0843         
O7-C2=1.4217         O7-H8=0.9832         H8-O7=0.9832         N9-C4=1.4675         N9-H10=1.0517        N9-H11=1.0365        
N9-H12=1.0444        H10-N9=1.0517        H11-N9=1.0365        H12-N9=1.0444        O13-H14=0.9779       O13-H15=0.9714       
H14-O13=0.9779       H15-O13=0.9714       O16-H17=0.9759       O16-H18=0.9740       H17-O16=0.9759       H18-O16=0.9740       
O19-H20=0.9771       O19-H21=0.9737       H20-O19=0.9771       H21-O19=0.9737       O22-H23=0.9740       O22-H24=0.9766       
H23-O22=0.9740       H24-O22=0.9766       O25-H26=0.9807       O25-H27=0.9700       H26-O25=0.9807       H27-O25=0.9700       
O28-H29=0.9598       O28-H30=0.9836       H29-O28=0.9598       H30-O28=0.9836       O31-H32=0.9706       O31-H33=0.9778       
H32-O31=0.9706       H33-O31=0.9778       O34-H35=0.9835       O34-H36=0.9560       H35-O34=0.9835       H36-O34=0.9560       
O37-H38=0.9738       O37-H39=0.9655       H38-O37=0.9738       H39-O37=0.9655       O40-H41=0.9795       O40-H42=0.9757       
H41-O40=0.9795       H42-O40=0.9757       O43-H44=0.9622       O43-H45=0.9721       H44-O43=0.9622       H45-O43=0.9721       
O46-H47=0.9739       O46-H48=0.9664       H47-O46=0.9739       H48-O46=0.9664       O49-H50=0.9708       O49-H51=0.9775       
H50-O49=0.9708       H51-O49=0.9775       O52-H53=0.9783       O52-H54=0.9740       H53-O52=0.9783       H54-O52=0.9740       
O55-H56=0.9652       O55-H57=0.9801       H56-O55=0.9652       H57-O55=0.9801       O58-H59=0.9751       O58-H60=0.9856       
H59-O58=0.9751       H60-O58=0.9856       O61-H62=0.9675       O61-H63=0.9652       H62-O61=0.9675       H63-O61=0.9652       
O64-H65=0.9800       O64-H66=0.9635       H65-O64=0.9800       H66-O64=0.9635       O67-H68=0.9621       O67-H69=0.9787       
H68-O67=0.9621       H69-O67=0.9787       O70-H71=0.9732       O70-H72=0.9757       H71-O70=0.9732       H72-O70=0.9757       
O73-H74=0.9679       O73-H75=0.9758       H74-O73=0.9679       H75-O73=0.9758       O76-H77=0.9912       O76-H78=0.9776       
H77-O76=0.9912       H78-O76=0.9776       O79-H80=0.9808       O79-H81=0.9777       H80-O79=0.9808       H81-O79=0.9777       
O82-H83=0.9710       O82-H84=0.9804       H83-O82=0.9710       H84-O82=0.9804       O85-H86=0.9607       O85-H87=0.9713       
H86-O85=0.9607       H87-O85=0.9713       O88-H89=0.9693       O88-H90=0.9651       H89-O88=0.9693       H90-O88=0.9651       
O91-H92=0.9875       O91-H93=0.9913       H92-O91=0.9875       H93-O91=0.9913       O94-H95=0.9674       O94-H96=0.9614       
H95-O94=0.9674       H96-O94=0.9614       O97-H98=0.9818       O97-H99=0.9714       H98-O97=0.9818       H99-O97=0.9714       
O100-H101=0.9766     O100-H102=0.9689     H101-O100=0.9766     H102-O100=0.9689     O103-H104=0.9956     O103-H105=0.9558     
H104-O103=0.9956     H105-O103=0.9558     O106-H107=0.9934     O106-H108=0.9614     H107-O106=0.9934     H108-O106=0.9614     
O109-H110=0.9595     O109-H111=0.9712     H110-O109=0.9595     H111-O109=0.9712     O112-H113=0.9712     O112-H114=0.9857     
H113-O112=0.9712     H114-O112=0.9857     O115-H116=0.9849     O115-H117=0.9599     H116-O115=0.9849     H117-O115=0.9599     
O118-H119=0.9798     O118-H120=0.9602     H119-O118=0.9798     H120-O118=0.9602     O121-H122=0.9761     O121-H123=0.9785     
H122-O121=0.9761     H123-O121=0.9785     O124-H125=0.9835     O124-H126=0.9781     H125-O124=0.9835     H126-O124=0.9781     
O127-H128=0.9800     O127-H129=0.9779     H128-O127=0.9800     H129-O127=0.9779     O130-H131=0.9764     O130-H132=0.9693     
H131-O130=0.9764     H132-O130=0.9693     O133-H134=0.9594     O133-H135=0.9754     H134-O133=0.9594     H135-O133=0.9754     
O136-H137=0.9653     O136-H138=0.9784     H137-O136=0.9653     H138-O136=0.9784     O139-H140=0.9720     O139-H141=0.9784     
H140-O139=0.9720     H141-O139=0.9784     O142-H143=0.9671     O142-H144=0.9702     H143-O142=0.9671     H144-O142=0.9702     
O145-H146=0.9711     O145-H147=0.9749     H146-O145=0.9711     H147-O145=0.9749     O148-H149=0.9722     O148-H150=0.9655     
H149-O148=0.9722     H150-O148=0.9655     O151-H152=0.9775     O151-H153=0.9654     H152-O151=0.9775     H153-O151=0.9654     
O154-H155=0.9739     O154-H156=0.9769     H155-O154=0.9739     H156-O154=0.9769     O157-H158=0.9729     O157-H159=0.9690     
H158-O157=0.9729     H159-O157=0.9690     O160-H161=0.9767     O160-H162=0.9788     H161-O160=0.9767     H162-O160=0.9788     
O163-H164=0.9697     O163-H165=0.9774     H164-O163=0.9697     H165-O163=0.9774     O166-H167=0.9798     O166-H168=0.9796     
H167-O166=0.9798     H168-O166=0.9796     O169-H170=0.9696     O169-H171=0.9774     H170-O169=0.9696     H171-O169=0.9774     
O172-H173=0.9706     O172-H174=0.9779     H173-O172=0.9706     H174-O172=0.9779     O175-H176=0.9644     O175-H177=0.9715     
H176-O175=0.9644     H177-O175=0.9715     O178-H179=0.9832     O178-H180=0.9791     H179-O178=0.9832     H180-O178=0.9791     
O181-H182=0.9784     O181-H183=0.9631     H182-O181=0.9784     H183-O181=0.9631     O184-H185=0.9612     O184-H186=0.9731     
H185-O184=0.9612     H186-O184=0.9731     O187-H188=0.9692     O187-H189=0.9728     H188-O187=0.9692     H189-O187=0.9728     
O190-H191=0.9730     O190-H192=0.9618     H191-O190=0.9730     H192-O190=0.9618     O193-H194=0.9708     O193-H195=0.9864     
H194-O193=0.9708     H195-O193=0.9864     O196-H197=0.9683     O196-H198=0.9736     H197-O196=0.9683     H198-O196=0.9736     
O199-H200=0.9783     O199-H201=0.9834     H200-O199=0.9783     H201-O199=0.9834     O202-H203=0.9738     O202-H204=0.9689     
H203-O202=0.9738     H204-O202=0.9689     O205-H206=0.9819     O205-H207=0.9593     H206-O205=0.9819     H207-O205=0.9593     
O208-H209=0.9689     O208-H210=0.9725     H209-O208=0.9689     H210-O208=0.9725     O211-H212=0.9922     O211-H213=0.9560     
H212-O211=0.9922     H213-O211=0.9560     O214-H215=0.9676     O214-H216=0.9725     H215-O214=0.9676     H216-O214=0.9725     
O217-H218=0.9732     O217-H219=0.9719     H218-O217=0.9732     H219-O217=0.9719     O220-H221=0.9890     O220-H222=0.9563     
H221-O220=0.9890     H222-O220=0.9563     O223-H224=0.9617     O223-H225=0.9779     H224-O223=0.9617     H225-O223=0.9779     
O226-H227=0.9652     O226-H228=0.9800     H227-O226=0.9652     H228-O226=0.9800     O229-H230=0.9783     O229-H231=0.9637     
H230-O229=0.9783     H231-O229=0.9637     O232-H233=0.9691     O232-H234=0.9718     H233-O232=0.9691     H234-O232=0.9718     
O235-H236=0.9863     O235-H237=0.9670     H236-O235=0.9863     H237-O235=0.9670     O238-H239=0.9825     O238-H240=0.9802     
H239-O238=0.9825     H240-O238=0.9802     O241-H242=0.9720     O241-H243=0.9761     H242-O241=0.9720     H243-O241=0.9761     
O244-H245=0.9790     O244-H246=0.9704     H245-O244=0.9790     H246-O244=0.9704     O247-H248=0.9660     O247-H249=0.9793     
H248-O247=0.9660     H249-O247=0.9793     O250-H251=0.9665     O250-H252=0.9620     H251-O250=0.9665     H252-O250=0.9620     
O253-H254=0.9680     O253-H255=0.9742     H254-O253=0.9680     H255-O253=0.9742     O256-H257=0.9642     O256-H258=0.9671     
H257-O256=0.9642     H258-O256=0.9671     O259-H260=0.9734     O259-H261=0.9740     H260-O259=0.9734     H261-O259=0.9740     
O262-H263=0.9737     O262-H264=0.9815     H263-O262=0.9737     H264-O262=0.9815     O265-H266=0.9710     O265-H267=0.9947     
H266-O265=0.9710     H267-O265=0.9947     O268-H269=0.9801     O268-H270=0.9646     H269-O268=0.9801     H270-O268=0.9646     
O271-H272=0.9571     O271-H273=0.9883     H272-O271=0.9571     H273-O271=0.9883     O274-H275=0.9684     O274-H276=0.9759     
H275-O274=0.9684     H276-O274=0.9759     O277-H278=0.9664     O277-H279=0.9961     H278-O277=0.9664     H279-O277=0.9961     
O280-H281=0.9640     O280-H282=0.9720     H281-O280=0.9640     H282-O280=0.9720     O283-H284=0.9801     O283-H285=0.9708     
H284-O283=0.9801     H285-O283=0.9708     O286-H287=0.9834     O286-H288=0.9652     H287-O286=0.9834     H288-O286=0.9652     
O289-H290=0.9815     O289-H291=0.9563     H290-O289=0.9815     H291-O289=0.9563     O292-H293=0.9716     O292-H294=0.9928     
H293-O292=0.9716     H294-O292=0.9928     O295-H296=0.9727     O295-H297=0.9763     H296-O295=0.9727     H297-O295=0.9763     
O298-H299=0.9806     O298-H300=0.9621     H299-O298=0.9806     H300-O298=0.9621     O301-H302=0.9586     O301-H303=0.9814     
H302-O301=0.9586     H303-O301=0.9814     O304-H305=0.9712     O304-H306=0.9794     H305-O304=0.9712     H306-O304=0.9794     
O307-H308=0.9809     O307-H309=0.9769     H308-O307=0.9809     H309-O307=0.9769     O310-H311=0.9564     O310-H312=1.0038     
H311-O310=0.9564     H312-O310=1.0038     O313-H314=0.9566     O313-H315=0.9927     H314-O313=0.9566     H315-O313=0.9927     
O316-H317=0.9791     O316-H318=0.9781     H317-O316=0.9791     H318-O316=0.9781     O319-H320=0.9810     O319-H321=0.9645     
H320-O319=0.9810     H321-O319=0.9645     O322-H323=0.9777     O322-H324=0.9721     H323-O322=0.9777     H324-O322=0.9721     
O325-H326=0.9861     O325-H327=0.9633     H326-O325=0.9861     H327-O325=0.9633     O328-H329=0.9843     O328-H330=0.9757     
H329-O328=0.9843     H330-O328=0.9757     O331-H332=0.9767     O331-H333=0.9857     H332-O331=0.9767     H333-O331=0.9857     
O334-H335=0.9686     O334-H336=0.9681     H335-O334=0.9686     H336-O334=0.9681     O337-H338=0.9700     O337-H339=0.9802     
H338-O337=0.9700     H339-O337=0.9802     O340-H341=0.9829     O340-H342=0.9714     H341-O340=0.9829     H342-O340=0.9714     
O343-H344=0.9569     O343-H345=0.9877     H344-O343=0.9569     H345-O343=0.9877     O346-H347=0.9735     O346-H348=0.9714     
H347-O346=0.9735     H348-O346=0.9714     O349-H350=0.9737     O349-H351=0.9864     H350-O349=0.9737     H351-O349=0.9864     
O352-H353=0.9639     O352-H354=0.9824     H353-O352=0.9639     H354-O352=0.9824     O355-H356=0.9680     O355-H357=0.9698     
H356-O355=0.9680     H357-O355=0.9698     O358-H359=0.9812     O358-H360=0.9638     H359-O358=0.9812     H360-O358=0.9638     
O361-H362=0.9701     O361-H363=0.9683     H362-O361=0.9701     H363-O361=0.9683     O364-H365=0.9691     O364-H366=0.9698     
H365-O364=0.9691     H366-O364=0.9698     O367-H368=0.9652     O367-H369=0.9787     H368-O367=0.9652     H369-O367=0.9787     
O370-H371=0.9757     O370-H372=0.9829     H371-O370=0.9757     H372-O370=0.9829     O373-H374=0.9728     O373-H375=0.9744     
H374-O373=0.9728     H375-O373=0.9744     O376-H377=0.9747     O376-H378=0.9798     H377-O376=0.9747     H378-O376=0.9798     
O379-H380=0.9817     O379-H381=0.9743     H380-O379=0.9817     H381-O379=0.9743     O382-H383=0.9609     O382-H384=0.9808     
H383-O382=0.9609     H384-O382=0.9808     O385-H386=1.0038     O385-H387=0.9565     H386-O385=1.0038     H387-O385=0.9565     
O388-H389=1.0026     O388-H390=0.9560     H389-O388=1.0026     H390-O388=0.9560     O391-H392=0.9843     O391-H393=0.9760     
H392-O391=0.9843     H393-O391=0.9760     O394-H395=0.9712     O394-H396=0.9671     H395-O394=0.9712     H396-O394=0.9671     
O397-H398=0.9689     O397-H399=0.9914     H398-O397=0.9689     H399-O397=0.9914     O400-H401=0.9698     O400-H402=0.9811     
H401-O400=0.9698     H402-O400=0.9811     O403-H404=0.9564     O403-H405=0.9759     H404-O403=0.9564     H405-O403=0.9759     
O406-H407=0.9634     O406-H408=0.9693     H407-O406=0.9634     H408-O406=0.9693     O409-H410=0.9725     O409-H411=0.9743     
H410-O409=0.9725     H411-O409=0.9743     O412-H413=0.9687     O412-H414=0.9657     H413-O412=0.9687     H414-O412=0.9657     
O415-H416=0.9882     O415-H417=0.9560     H416-O415=0.9882     H417-O415=0.9560     O418-H419=0.9725     O418-H420=0.9745     
H419-O418=0.9725     H420-O418=0.9745     O421-H422=0.9774     O421-H423=0.9617     H422-O421=0.9774     H423-O421=0.9617     
O424-H425=0.9838     O424-H426=0.9875     H425-O424=0.9838     H426-O424=0.9875     O427-H428=0.9677     O427-H429=0.9666     
H428-O427=0.9677     H429-O427=0.9666     O430-H431=0.9718     O430-H432=0.9677     H431-O430=0.9718     H432-O430=0.9677     
O433-H434=0.9852     O433-H435=0.9604     H434-O433=0.9852     H435-O433=0.9604     O436-H437=0.9702     O436-H438=0.9579     
H437-O436=0.9702     H438-O436=0.9579     O439-H440=0.9787     O439-H441=0.9698     H440-O439=0.9787     H441-O439=0.9698     
O442-H443=0.9828     O442-H444=0.9844     H443-O442=0.9828     H444-O442=0.9844     O445-H446=0.9677     O445-H447=0.9739     
H446-O445=0.9677     H447-O445=0.9739     O448-H449=0.9800     O448-H450=0.9689     H449-O448=0.9800     H450-O448=0.9689     
O451-H452=0.9711     O451-H453=0.9824     H452-O451=0.9711     H453-O451=0.9824     O454-H455=0.9891     O454-H456=0.9682     
H455-O454=0.9891     H456-O454=0.9682     O457-H458=0.9685     O457-H459=0.9687     H458-O457=0.9685     H459-O457=0.9687     
O460-H461=0.9781     O460-H462=0.9776     H461-O460=0.9781     H462-O460=0.9776     O463-H464=0.9754     O463-H465=0.9873     
H464-O463=0.9754     H465-O463=0.9873     O466-H467=0.9645     O466-H468=0.9827     H467-O466=0.9645     H468-O466=0.9827     
O469-H470=0.9797     O469-H471=0.9867     H470-O469=0.9797     H471-O469=0.9867     O472-H473=0.9740     O472-H474=0.9764     
H473-O472=0.9740     H474-O472=0.9764     O475-H476=0.9655     O475-H477=0.9764     H476-O475=0.9655     H477-O475=0.9764     
O478-H479=0.9828     O478-H480=0.9619     H479-O478=0.9828     H480-O478=0.9619     O481-H482=0.9586     O481-H483=0.9719     
H482-O481=0.9586     H483-O481=0.9719     O484-H485=0.9723     O484-H486=0.9903     H485-O484=0.9723     H486-O484=0.9903     
O487-H488=0.9787     O487-H489=0.9621     H488-O487=0.9787     H489-O487=0.9621     O490-H491=0.9660     O490-H492=0.9864     
H491-O490=0.9660     H492-O490=0.9864     O493-H494=0.9689     O493-H495=0.9876     H494-O493=0.9689     H495-O493=0.9876     
O496-H497=0.9741     O496-H498=0.9771     H497-O496=0.9741     H498-O496=0.9771     O499-H500=0.9685     O499-H501=0.9711     
H500-O499=0.9685     H501-O499=0.9711     O502-H503=0.9706     O502-H504=0.9807     H503-O502=0.9706     H504-O502=0.9807     
O505-H506=0.9783     O505-H507=0.9830     H506-O505=0.9783     H507-O505=0.9830     O508-H509=0.9683     O508-H510=0.9631     
H509-O508=0.9683     H510-O508=0.9631     O511-H512=0.9779     O511-H513=0.9584     H512-O511=0.9779     H513-O511=0.9584     
O514-H515=0.9758     O514-H516=0.9765     H515-O514=0.9758     H516-O514=0.9765     O517-H518=0.9744     O517-H519=0.9748     
H518-O517=0.9744     H519-O517=0.9748     O520-H521=0.9569     O520-H522=0.9868     H521-O520=0.9569     H522-O520=0.9868     
O523-H524=0.9747     O523-H525=0.9835     H524-O523=0.9747     H525-O523=0.9835     O526-H527=0.9777     O526-H528=0.9600     
H527-O526=0.9777     H528-O526=0.9600     O529-H530=0.9914     O529-H531=0.9765     H530-O529=0.9914     H531-O529=0.9765     
O532-H533=0.9754     O532-H534=0.9845     H533-O532=0.9754     H534-O532=0.9845     O535-H536=0.9824     O535-H537=0.9751     
H536-O535=0.9824     H537-O535=0.9751     O538-H539=0.9676     O538-H540=0.9685     H539-O538=0.9676     H540-O538=0.9685     
O541-H542=0.9815     O541-H543=0.9764     H542-O541=0.9815     H543-O541=0.9764     O544-H545=0.9787     O544-H546=0.9784     
H545-O544=0.9787     H546-O544=0.9784     O547-H548=0.9652     O547-H549=0.9864     H548-O547=0.9652     H549-O547=0.9864     
O550-H551=0.9849     O550-H552=0.9653     H551-O550=0.9849     H552-O550=0.9653     O553-H554=0.9747     O553-H555=0.9708     
H554-O553=0.9747     H555-O553=0.9708     O556-H557=0.9695     O556-H558=0.9784     H557-O556=0.9695     H558-O556=0.9784     
O559-H560=0.9771     O559-H561=0.9715     H560-O559=0.9771     H561-O559=0.9715     O562-H563=0.9803     O562-H564=0.9837     
H563-O562=0.9803     H564-O562=0.9837     O565-H566=0.9753     O565-H567=0.9687     H566-O565=0.9753     H567-O565=0.9687     
O568-H569=0.9829     O568-H570=0.9776     H569-O568=0.9829     H570-O568=0.9776     O571-H572=0.9560     O571-H573=0.9888     
H572-O571=0.9560     H573-O571=0.9888     O574-H575=0.9780     O574-H576=0.9740     H575-O574=0.9780     H576-O574=0.9740     
O577-H578=0.9677     O577-H579=0.9696     H578-O577=0.9677     H579-O577=0.9696     O580-H581=0.9796     O580-H582=0.9695     
H581-O580=0.9796     H582-O580=0.9695     O583-H584=0.9674     O583-H585=0.9863     H584-O583=0.9674     H585-O583=0.9863     
O586-H587=0.9709     O586-H588=0.9671     H587-O586=0.9709     H588-O586=0.9671     O589-H590=0.9793     O589-H591=0.9690     
H590-O589=0.9793     H591-O589=0.9690     O592-H593=0.9791     O592-H594=0.9668     H593-O592=0.9791     H594-O592=0.9668     
O595-H596=0.9792     O595-H597=0.9725     H596-O595=0.9792     H597-O595=0.9725     O598-H599=1.0020     O598-H600=0.9651     
H599-O598=1.0020     H600-O598=0.9651     O601-H602=0.9899     O601-H603=0.9838     H602-O601=0.9899     H603-O601=0.9838     
O604-H605=0.9857     O604-H606=0.9686     H605-O604=0.9857     H606-O604=0.9686     O607-H608=0.9772     O607-H609=0.9653     
H608-O607=0.9772     H609-O607=0.9653     O610-H611=0.9637     O610-H612=0.9902     H611-O610=0.9637     H612-O610=0.9902     
 C  H  Rav=1.0870 sigma=0.0018  Rmin=1.0843  Rmax=1.0893     4
 C  C  Rav=1.5163 sigma=0.0000  Rmin=1.5163  Rmax=1.5163     1
 N  H  Rav=1.0442 sigma=0.0062  Rmin=1.0365  Rmax=1.0517     3
 N  C  Rav=1.4675 sigma=0.0000  Rmin=1.4675  Rmax=1.4675     1
 O  H  Rav=0.9741 sigma=0.0089  Rmin=0.9558  Rmax=1.0038   401
 O  C  Rav=1.4217 sigma=0.0000  Rmin=1.4217  Rmax=1.4217     1
 
 selected bond angles (degree)
 --------------------
H3-C2-H1=109.84                C4-C2-H1=110.93                C4-C2-H3=108.89                O7-C2-H1=109.06                
O7-C2-H3=109.08                O7-C2-C4=109.02                H5-C4-C2=107.70                H6-C4-C2=109.75                
H6-C4-H5=110.11                N9-C4-C2=112.05                N9-C4-H5=109.20                N9-C4-H6=108.03                
H8-O7-C2=107.96                H10-N9-C4=108.99               H11-N9-C4=109.63               H11-N9-H10=109.66              
H12-N9-C4=108.55               H12-N9-H10=109.81              H12-N9-H11=110.18              
 
 selected dihedral angles (degree)
 ---------------------------------
H5-C4-C2-H1=201.74            H5-C4-C2-H3= 80.75            H5-C4-C2-O7=321.84            H6-C4-C2-H1= 81.87            
H6-C4-C2-H3=320.88            H6-C4-C2-O7=201.98            N9-C4-C2-H1=321.85            N9-C4-C2-H3=200.86            
N9-C4-C2-O7= 81.96            H8-O7-C2-H1=305.14            H8-O7-C2-H3= 65.11            H8-O7-C2-C4=183.89            
H10-N9-C4-C2= 56.37           H10-N9-C4-H5=175.61           H10-N9-C4-H6=295.36           H11-N9-C4-C2=296.34           
H11-N9-C4-H5= 55.57           H11-N9-C4-H6=175.32           H12-N9-C4-C2=175.94           H12-N9-C4-H5=295.18           
H12-N9-C4-H6= 54.93           
 
 CMA Distance (Angstroems)
 ---------------------------
R(CMA):  1.1321
           -------------------------------------------------
          |                Final Singlepoint                |
           -------------------------------------------------

          ...................................................
          :                      SETUP                      :
          :.................................................:
          :  # basis functions                1224          :
          :  # atomic orbitals                1224          :
          :  # shells                          816          :
          :  # electrons                      1626          :
          :  max. iterations                   250          :
          :  Hamiltonian                  GFN2-xTB          :
          :  restarted?                      false          :
          :  GBSA solvation                  false          :
          :  PC potential                    false          :
          :  electronic temp.          300.0000000     K    :
          :  accuracy                    1.0000000          :
          :  -> integral cutoff          0.2500000E+02      :
          :  -> integral neglect         0.1000000E-07      :
          :  -> SCF convergence          0.1000000E-05 Eh   :
          :  -> wf. convergence          0.1000000E-03 e    :
          :  Broyden damping             0.4000000          :
          ...................................................

 iter      E             dE          RMSdq      gap      omega  full diag
   1  -1039.7805853 -0.103978E+04  0.158E-05    8.08       0.0  T
   2  -1039.7805853 -0.120508E-10  0.947E-06    8.08     427.1  T
   3  -1039.7805853 -0.181899E-11  0.286E-06    8.08    1413.0  T

   *** convergence criteria satisfied after 3 iterations ***

         #    Occupation            Energy/Eh            Energy/eV
      -------------------------------------------------------------
         1        2.0000           -0.7370443             -20.0560
       ...           ...                  ...                  ...
       807        2.0000           -0.4589301             -12.4881
       808        2.0000           -0.4575476             -12.4505
       809        2.0000           -0.4567879             -12.4298
       810        2.0000           -0.4561106             -12.4114
       811        2.0000           -0.4528226             -12.3219
       812        2.0000           -0.4517047             -12.2915
       813        2.0000           -0.4488913             -12.2150 (HOMO)
       814                         -0.1520235              -4.1368 (LUMO)
       815                         -0.1375029              -3.7416
       816                         -0.1267219              -3.4483
       817                         -0.1258656              -3.4250
       818                         -0.1122089              -3.0534
       ...                                ...                  ...
      1224                          0.3756162              10.2210
      -------------------------------------------------------------
                  HL-Gap            0.2968678 Eh            8.0782 eV
             Fermi-level           -0.3004574 Eh           -8.1759 eV

 SCC (total)                   0 d,  0 h,  0 min, 12.358 sec
 SCC setup                      ...        0 min,  0.032 sec (  0.259%)
 Dispersion                     ...        0 min,  0.082 sec (  0.661%)
 classical contributions        ...        0 min,  0.021 sec (  0.167%)
 integral evaluation            ...        0 min,  0.702 sec (  5.679%)
 iterations                     ...        0 min,  1.965 sec ( 15.898%)
 molecular gradient             ...        0 min,  9.488 sec ( 76.779%)
 printout                       ...        0 min,  0.069 sec (  0.556%)

         :::::::::::::::::::::::::::::::::::::::::::::::::::::
         ::                     SUMMARY                     ::
         :::::::::::::::::::::::::::::::::::::::::::::::::::::
         :: total energy           -1033.467120118003 Eh    ::
         :: gradient norm              0.000327027145 Eh/a0 ::
         :: HOMO-LUMO gap              8.078183469640 eV    ::
         ::.................................................::
         :: SCC energy             -1039.780585275393 Eh    ::
         :: -> isotropic ES            5.741400879464 Eh    ::
         :: -> anisotropic ES         -1.310110348095 Eh    ::
         :: -> anisotropic XC         -0.098190601792 Eh    ::
         :: -> dispersion             -0.631880620617 Eh    ::
         :: repulsion energy           6.191686969424 Eh    ::
         :: add. restraining           0.000000000000 Eh    ::
         :: total charge               1.000000000000 e     ::
         :::::::::::::::::::::::::::::::::::::::::::::::::::::

           ------------------------------------------------- 
          |                Numerical Hessian                |
           ------------------------------------------------- 
step length          :   0.00500
SCC accuracy         :   0.30000
Hessian scale factor :   1.00000
frozen atoms in %    :   0.00000    0
RMS gradient         :   0.00033
estimated CPU  time    746.55 min
estimated wall time    748.39 min
