      -----------------------------------------------------------      
     |                   =====================                   |     
     |                           x T B                           |     
     |                   =====================                   |     
     |                         S. Grimme                         |     
     |          Mulliken Center for Theoretical Chemistry        |     
     |                    University of Bonn                     |     
      -----------------------------------------------------------      

   * xtb version 6.5.1 (579679a) compiled by 'ehlert@majestix' on 2022-07-11

   xtb is free software: you can redistribute it and/or modify it under
   the terms of the GNU Lesser General Public License as published by
   the Free Software Foundation, either version 3 of the License, or
   (at your option) any later version.
   
   xtb is distributed in the hope that it will be useful,
   but WITHOUT ANY WARRANTY; without even the implied warranty of
   MERCHANTABILITY or FITNESS FOR A PARTICULAR PURPOSE.  See the
   GNU Lesser General Public License for more details.
   
   Cite this work as:
   * C. Bannwarth, E. Caldeweyher, S. Ehlert, A. Hansen, P. Pracht,
     J. Seibert, S. Spicher, S. Grimme, WIREs Comput. Mol. Sci., 2020, 11,
     e01493. DOI: 10.1002/wcms.1493
   
   for GFN2-xTB:
   * C. Bannwarth, S. Ehlert and S. Grimme., J. Chem. Theory Comput., 2019,
     15, 1652-1671. DOI: 10.1021/acs.jctc.8b01176
   for GFN1-xTB:
   * S. Grimme, C. Bannwarth, P. Shushkov, J. Chem. Theory Comput., 2017,
     13, 1989-2009. DOI: 10.1021/acs.jctc.7b00118
   for GFN0-xTB:
   * P. Pracht, E. Caldeweyher, S. Ehlert, S. Grimme, ChemRxiv, 2019, preprint.
     DOI: 10.26434/chemrxiv.8326202.v1
   for GFN-FF:
   * S. Spicher and S. Grimme, Angew. Chem. Int. Ed., 2020, 59, 15665-15673.
     DOI: 10.1002/anie.202004239
   
   for ALPB and GBSA implicit solvation:
   * S. Ehlert, M. Stahn, S. Spicher, S. Grimme, J. Chem. Theory Comput.,
     2021, 17, 4250-4261. DOI: 10.1021/acs.jctc.1c00471
   
   for DFT-D4:
   * E. Caldeweyher, C. Bannwarth and S. Grimme, J. Chem. Phys., 2017,
     147, 034112. DOI: 10.1063/1.4993215
   * E. Caldeweyher, S. Ehlert, A. Hansen, H. Neugebauer, S. Spicher,
     C. Bannwarth and S. Grimme, J. Chem. Phys., 2019, 150, 154122.
     DOI: 10.1063/1.5090222
   * E. Caldeweyher, J.-M. Mewes, S. Ehlert and S. Grimme, Phys. Chem. Chem. Phys.
     2020, 22, 8499-8512. DOI: 10.1039/D0CP00502A
   
   for sTDA-xTB:
   * S. Grimme and C. Bannwarth, J. Chem. Phys., 2016, 145, 054103.
     DOI: 10.1063/1.4959605
   
   in the mass-spec context:
   * V. Asgeirsson, C. Bauer and S. Grimme, Chem. Sci., 2017, 8, 4879.
     DOI: 10.1039/c7sc00601b
   * J. Koopman and S. Grimme, ACS Omega 2019, 4, 12, 15120-15133.
     DOI: 10.1021/acsomega.9b02011
   
   for metadynamics refer to:
   * S. Grimme, J. Chem. Theory Comput., 2019, 155, 2847-2862
     DOI: 10.1021/acs.jctc.9b00143
   
   for SPH calculations refer to:
   * S. Spicher and S. Grimme, J. Chem. Theory Comput., 2021, 17, 1701-1714
     DOI: 10.1021/acs.jctc.0c01306
   
   with help from (in alphabetical order)
   P. Atkinson, C. Bannwarth, F. Bohle, G. Brandenburg, E. Caldeweyher
   M. Checinski, S. Dohm, S. Ehlert, S. Ehrlich, I. Gerasimov, C. Hölzer
   A. Katbashev, J. Koopman, C. Lavigne, S. Lehtola, F. März, M. Müller,
   F. Musil, H. Neugebauer, J. Pisarek, C. Plett, P. Pracht, F. Pultar,
   J. Seibert, P. Shushkov, S. Spicher, M. Stahn, M. Steiner, T. Strunk,
   J. Stückrath, T. Rose, and J. Unsleber
   
 * started run on 2022/11/24 at 12:21:40.836     

           -------------------------------------------------
          |                Calculation Setup                |
           -------------------------------------------------

          program call               : xtb solvent_cluster.coord --gfn2 --sp --lmo --chrg 0
          hostname                   : cn0430
          coordinate file            : solvent_cluster.coord
          omp threads                :                     2

   ID    Z sym.   atoms
    1    8 o      1, 4, 7, 10, 13, 16, 19, 22, 25, 28, 31, 34, 37, 40, 43,
                  46, 49, 52, 55, 58, 61, 64, 67, 70, 73, 76, 79, 82, 85, 88,
                  91, 94, 97, 100, 103, 106, 109, 112, 115, 118, 121, 124,
                  127, 130, 133, 136, 139, 142, 145, 148, 151, 154, 157, 160,
                  163, 166, 169, 172, 175, 178, 181, 184, 187, 190, 193, 196,
                  199, 202, 205, 208, 211, 214, 217, 220, 223, 226, 229, 232,
                  235, 238, 241, 244, 247, 250, 253, 256, 259, 262, 265, 268,
                  271, 274, 277, 280, 283, 286, 289, 292, 295, 298, 301, 304,
                  307, 310, 313, 316, 319, 322, 325, 328, 331, 334, 337, 340,
                  343, 346, 349, 352, 355, 358, 361, 364, 367, 370, 373, 376,
                  379, 382, 385, 388, 391, 394, 397, 400, 403, 406, 409, 412,
                  415, 418, 421, 424, 427, 430, 433, 436, 439, 442, 445, 448,
                  451, 454, 457, 460, 463, 466, 469, 472, 475, 478, 481, 484,
                  487, 490, 493, 496, 499, 502, 505, 508, 511, 514, 517, 520,
                  523, 526, 529, 532, 535, 538, 541, 544, 547, 550, 553, 556,
                  559, 562, 565, 568, 571, 574, 577, 580, 583, 586, 589, 592,
                  595, 598, 601, 604, 607, 610, 613, 616, 619, 622, 625, 628,
                  631, 634, 637, 640, 643, 646, 649, 652, 655, 658, 661, 664,
                  667, 670, 673, 676, 679, 682, 685, 688, 691, 694, 697, 700,
                  703, 706, 709, 712, 715, 718, 721, 724, 727, 730, 733, 736,
                  739, 742, 745, 748, 751, 754
    2    1 h      2, 3, 5, 6, 8, 9, 11, 12, 14, 15, 17, 18, 20, 21, 23, 24,
                  26, 27, 29, 30, 32, 33, 35, 36, 38, 39, 41, 42, 44, 45, 47,
                  48, 50, 51, 53, 54, 56, 57, 59, 60, 62, 63, 65, 66, 68, 69,
                  71, 72, 74, 75, 77, 78, 80, 81, 83, 84, 86, 87, 89, 90, 92,
                  93, 95, 96, 98, 99, 101, 102, 104, 105, 107, 108, 110, 111,
                  113, 114, 116, 117, 119, 120, 122, 123, 125, 126, 128, 129,
                  131, 132, 134, 135, 137, 138, 140, 141, 143, 144, 146, 147,
                  149, 150, 152, 153, 155, 156, 158, 159, 161, 162, 164, 165,
                  167, 168, 170, 171, 173, 174, 176, 177, 179, 180, 182, 183,
                  185, 186, 188, 189, 191, 192, 194, 195, 197, 198, 200, 201,
                  203, 204, 206, 207, 209, 210, 212, 213, 215, 216, 218, 219,
                  221, 222, 224, 225, 227, 228, 230, 231, 233, 234, 236, 237,
                  239, 240, 242, 243, 245, 246, 248, 249, 251, 252, 254, 255,
                  257, 258, 260, 261, 263, 264, 266, 267, 269, 270, 272, 273,
                  275, 276, 278, 279, 281, 282, 284, 285, 287, 288, 290, 291,
                  293, 294, 296, 297, 299, 300, 302, 303, 305, 306, 308, 309,
                  311, 312, 314, 315, 317, 318, 320, 321, 323, 324, 326, 327,
                  329, 330, 332, 333, 335, 336, 338, 339, 341, 342, 344, 345,
                  347, 348, 350, 351, 353, 354, 356, 357, 359, 360, 362, 363,
                  365, 366, 368, 369, 371, 372, 374, 375, 377, 378, 380, 381,
                  383, 384, 386, 387, 389, 390, 392, 393, 395, 396, 398, 399,
                  401, 402, 404, 405, 407, 408, 410, 411, 413, 414, 416, 417,
                  419, 420, 422, 423, 425, 426, 428, 429, 431, 432, 434, 435,
                  437, 438, 440, 441, 443, 444, 446, 447, 449, 450, 452, 453,
                  455, 456, 458, 459, 461, 462, 464, 465, 467, 468, 470, 471,
                  473, 474, 476, 477, 479, 480, 482, 483, 485, 486, 488, 489,
                  491, 492, 494, 495, 497, 498, 500, 501, 503, 504, 506, 507,
                  509, 510, 512, 513, 515, 516, 518, 519, 521, 522, 524, 525,
                  527, 528, 530, 531, 533, 534, 536, 537, 539, 540, 542, 543,
                  545, 546, 548, 549, 551, 552, 554, 555, 557, 558, 560, 561,
                  563, 564, 566, 567, 569, 570, 572, 573, 575, 576, 578, 579,
                  581, 582, 584, 585, 587, 588, 590, 591, 593, 594, 596, 597,
                  599, 600, 602, 603, 605, 606, 608, 609, 611, 612, 614, 615,
                  617, 618, 620, 621, 623, 624, 626, 627, 629, 630, 632, 633,
                  635, 636, 638, 639, 641, 642, 644, 645, 647, 648, 650, 651,
                  653, 654, 656, 657, 659, 660, 662, 663, 665, 666, 668, 669,
                  671, 672, 674, 675, 677, 678, 680, 681, 683, 684, 686, 687,
                  689, 690, 692, 693, 695, 696, 698, 699, 701, 702, 704, 705,
                  707, 708, 710, 711, 713, 714, 716, 717, 719, 720, 722, 723,
                  725, 726, 728, 729, 731, 732, 734, 735, 737, 738, 740, 741,
                  743, 744, 746, 747, 749, 750, 752, 753, 755, 756

molecular fragmentation (1/2 indicates fragments):
111222222222222222222222222222222222222222222222222222222222222222222222
222222222222222222222222222222222222222222222222222222222222222222222222
222222222222222222222222222222222222222222222222222222222222222222222222
222222222222222222222222222222222222222222222222222222222222222222222222
222222222222222222222222222222222222222222222222222222222222222222222222
222222222222222222222222222222222222222222222222222222222222222222222222
222222222222222222222222222222222222222222222222222222222222222222222222
222222222222222222222222222222222222222222222222222222222222222222222222
222222222222222222222222222222222222222222222222222222222222222222222222
222222222222222222222222222222222222222222222222222222222222222222222222
222222222222222222222222222222222222
# atoms in fragment 1/2:     3   753
 fragment masses (1/2) :       18.02     4521.84
CMA distance (Bohr)    :  18.183
constraining FC (au)   :  0.0500

           -------------------------------------------------
          |                 G F N 2 - x T B                 |
           -------------------------------------------------

        Reference                      10.1021/acs.jctc.8b01176
      * Hamiltonian:
        H0-scaling (s, p, d)           1.850000    2.230000    2.230000
        zeta-weighting                 0.500000
      * Dispersion:
        s8                             2.700000
        a1                             0.520000
        a2                             5.000000
        s9                             5.000000
      * Repulsion:
        kExp                           1.500000    1.000000
        rExp                           1.000000
      * Coulomb:
        alpha                          2.000000
        third order                    shell-resolved
        anisotropic                    true
        a3                             3.000000
        a5                             4.000000
        cn-shift                       1.200000
        cn-exp                         4.000000
        max-rad                        5.000000


          ...................................................
          :                      SETUP                      :
          :.................................................:
          :  # basis functions                1512          :
          :  # atomic orbitals                1512          :
          :  # shells                         1008          :
          :  # electrons                      2016          :
          :  max. iterations                   250          :
          :  Hamiltonian                  GFN2-xTB          :
          :  restarted?                      false          :
          :  GBSA solvation                  false          :
          :  PC potential                    false          :
          :  electronic temp.          300.0000000     K    :
          :  accuracy                    1.0000000          :
          :  -> integral cutoff          0.2500000E+02      :
          :  -> integral neglect         0.1000000E-07      :
          :  -> SCF convergence          0.1000000E-05 Eh   :
          :  -> wf. convergence          0.1000000E-03 e    :
          :  Broyden damping             0.4000000          :
          ...................................................

 iter      E             dE          RMSdq      gap      omega  full diag
   1  -1290.9987905 -0.129100E+04  0.407E+00    8.46       0.0  T
   2  -1291.0774221 -0.786317E-01  0.242E+00    7.39       1.0  T
   3  -1291.1093103 -0.318881E-01  0.212E-01    5.81       1.0  T
   4  -1291.1147700 -0.545976E-02  0.460E-02    6.23       1.0  T
   5  -1291.1148580 -0.879489E-04  0.310E-02    6.17       1.0  T
   6  -1291.1148987 -0.407526E-04  0.436E-03    6.21       1.0  T
   7  -1291.1149013 -0.252726E-05  0.732E-04    6.20       5.0  T
   8  -1291.1149013 -0.268888E-07  0.383E-04    6.20       9.5  T
   9  -1291.1149013 -0.140255E-07  0.628E-05    6.20      57.9  T

   *** convergence criteria satisfied after 9 iterations ***

         #    Occupation            Energy/Eh            Energy/eV
      -------------------------------------------------------------
         1        2.0000           -0.6976477             -18.9840
       ...           ...                  ...                  ...
      1002        2.0000           -0.3449705              -9.3871
      1003        2.0000           -0.3431353              -9.3372
      1004        2.0000           -0.3425967              -9.3225
      1005        2.0000           -0.3366661              -9.1611
      1006        2.0000           -0.3333515              -9.0710
      1007        2.0000           -0.3271389              -8.9019
      1008        2.0000           -0.3150914              -8.5741 (HOMO)
      1009                         -0.0871063              -2.3703 (LUMO)
      1010                         -0.0764862              -2.0813
      1011                         -0.0628592              -1.7105
      1012                         -0.0605586              -1.6479
      1013                         -0.0569094              -1.5486
       ...                                ...                  ...
      1512                          0.4835260              13.1574
      -------------------------------------------------------------
                  HL-Gap            0.2279851 Eh            6.2038 eV
             Fermi-level           -0.2010989 Eh           -5.4722 eV
 
 localization/xTB-IFF output generation
 averaging CT terms over            1  occ. levels
 averaging CT terms over            1  virt. levels
 dipole moment from electron density (au)
     X       Y       Z   
   4.3704   3.5579  -0.8081  total (Debye):   14.471
cpu  time for init local    0.82 s
wall time for init local    0.41 s
 doing rotations ...
 initialization of trafo matrix to unity

 converged in     16 iterations, threshold :   0.99998913D-06
 doing transformations ...
 lmo centers(Z=2) and atoms on file <lmocent.coord>
 LMO Fii/eV  ncent    charge center   contributions...
    1 LP   *******   0.00  34.06926 -39.68143  36.71187  313O : 34.30  610O : 28.43  280O : 28.01  187O : 23.31  253O : 22.45  262O : 20.28  565O : 19.18  472O : 18.48  163O : 18.10   13O : 17.72  538O : 17.56  433O : 17.34
  361O : 17.10  226O : 16.86  328O : 15.89  403O : 15.78   22O : 15.31  559O : 14.85  301O : 14.66  118O : 14.24  739O : 14.23  190O : 14.17    7O : 13.89  106O : 13.51
  670O : 13.17   70O : 13.15  139O : 12.84   49O : 12.84  244O : 12.42  334O : 12.40  391O : 12.37  358O : 12.06  553O : 11.99   61O : 11.82   91O : 11.81  142O : 11.71
  490O : 11.36  127O : 11.35  571O : 11.12  151O : 11.11  577O : 10.91  409O : 10.68  421O : 10.37  505O :  9.89  532O :  9.78  292O :  9.67  397O :  9.29  703O :  8.95
  148O :  8.86  145O :  8.79  655O :  8.72  430O :  8.70  517O :  8.61   25O :  8.53  751O :  8.52  271O :  8.50  133O :  8.46  202O :  8.34  445O :  8.26   94O :  8.23
  700O :  8.21  616O :  8.21  415O :  8.04  643O :  7.93  250O :  7.91  613O :  7.85   55O :  7.78  256O :  7.46  583O :  7.32  682O :  7.31  343O :  7.30  136O :  7.24
   46O :  7.03  298O :  6.99  715O :  6.90   19O :  6.82  748O :  6.75  337O :  6.75  205O :  6.73  514O :  6.66  541O :  6.40  172O :  6.39  175O :  6.36  625O :  6.36
  196O :  6.28  661O :  6.13  475O :  6.11   31O :  5.88   43O :  5.88  598O :  5.79   82O :  5.65  688O :  5.51  535O :  5.50  592O :  5.44  424O :  5.43   79O :  5.42
  649O :  5.35  481O :  5.34  496O :  5.26  460O :  5.19  388O :  5.08  709O :  5.07  487O :  4.96    4O :  4.89  268O :  4.88  178O :  4.86  601O :  4.85  412O :  4.78
  607O :  4.77  238O :  4.77   97O :  4.73  124O :  4.73  562O :  4.72  289O :  4.69  130O :  4.59  652O :  4.57  400O :  4.54  286O :  4.47  697O :  4.46  184O :  4.41
   40O :  4.40  376O :  4.22  544O :  4.15  526O :  4.15  214O :  4.09  586O :  4.09   28O :  4.06  523O :  4.05  169O :  4.03  727O :  4.00  349O :  4.00  676O :  4.00
  499O :  3.97  604O :  3.96  646O :  3.96   76O :  3.84  232O :  3.76  340O :  3.72   73O :  3.68   67O :  3.52   34O :  3.49  694O :  3.45  304O :  3.41  189H :  3.38
  520O :  3.38  706O :  3.38  550O :  3.37  241O :  3.36  121O :  3.34  364O :  3.33   64O :  3.32  319O :  3.30  427O :  3.30  373O :  3.28  418O :  3.26  382O :  3.23
  451O :  3.18  265O :  3.12   57H :  3.09  718O :  3.06  295O :  3.03  436O :  3.02  307O :  3.02   15H :  3.01  154O :  2.94  754O :  2.91  556O :  2.86  370O :  2.86
  457O :  2.83  595O :  2.80  736O :  2.76  730O :  2.76  508O :  2.69   85O :  2.62  157O :  2.59  664O :  2.55  574O :  2.55   88O :  2.54  193O :  2.53   16O :  2.49
  442O :  2.48  484O :  2.47  631O :  2.41  208O :  2.37  100O :  2.24  568O :  2.20  316O :  2.19  560H :  2.16  628O :  2.14  580O :  2.13    1O :  2.09  640O :  2.07
  166O :  2.06  277O :  2.03  733O :  2.03  352O :  2.02  511O :  2.02  109O :  2.00   92H :  1.95  394O :  1.91  685O :  1.86  220O :  1.86  493O :  1.83  302H :  1.82
  211O :  1.81  379O :  1.81  229O :  1.76   68H :  1.75  247O :  1.74  126H :  1.67  385O :  1.65  274O :  1.64  198H :  1.57  411H :  1.55   72H :  1.50  741H :  1.48
  483H :  1.43  217O :  1.42  331O :  1.38  103O :  1.37  222H :  1.37   96H :  1.36  463O :  1.36  667O :  1.35  466O :  1.35  478O :  1.35  458H :  1.34  745O :  1.32
  160O :  1.32  259O :  1.32  529O :  1.30  346O :  1.30   10O :  1.29  188H :  1.28  315H :  1.27  619O :  1.27  267H :  1.25  555H :  1.24   52O :  1.24  474H :  1.23
  611H :  1.21  183H :  1.20  712O :  1.20  644H :  1.19  181O :  1.18  115O :  1.13  618H :  1.12   37O :  1.11   48H :  1.10  132H :  1.10  563H :  1.09  469O :  1.09
  355O :  1.09  454O :  1.08   71H :  1.05  683H :  1.05  329H :  1.04  322O :  1.01  752H :  0.99   95H :  0.97  310O :  0.97  742O :  0.97  235O :  0.97  749H :  0.96
  245H :  0.95  448O :  0.94  534H :  0.94  729H :  0.91  299H :  0.90  406O :  0.88  554H :  0.88  144H :  0.87  476H :  0.86  378H :  0.86  150H :  0.86   50H :  0.85
  344H :  0.85   63H :  0.85  679O :  0.84  579H :  0.82  360H :  0.82  724O :  0.82  696H :  0.81  637O :  0.80  330H :  0.80  336H :  0.79  690H :  0.79  325O :  0.78
   98H :  0.77   20H :  0.76  721O :  0.75   14H :  0.74  473H :  0.74   35H :  0.74   29H :  0.73  634O :  0.73  502O :  0.73  240H :  0.72  651H :  0.71  673O :  0.71
  294H :  0.71  363H :  0.71   23H :  0.70  192H :  0.70  615H :  0.69  176H :  0.69  492H :  0.69  293H :  0.68  464H :  0.66  257H :  0.64  656H :  0.64  485H :  0.64
  270H :  0.63  528H :  0.63  308H :  0.62  537H :  0.62  223O :  0.61   12H :  0.61  122H :  0.60  423H :  0.60  589O :  0.59  272H :  0.59  428H :  0.58  117H :  0.58
  671H :  0.57  587H :  0.56   36H :  0.55  227H :  0.55  137H :  0.55  209H :  0.55  339H :  0.54  186H :  0.54  170H :  0.53  199O :  0.53  393H :  0.52  691O :  0.52
  112O :  0.51  699H :  0.50  547O :  0.50  551H :  0.50  311H :  0.50  717H :  0.50  367O :  0.50  120H :  0.48  338H :  0.48  708H :  0.47  510H :  0.47  639H :  0.46
  581H :  0.46  288H :  0.45   21H :  0.44  597H :  0.43  622O :  0.43  105H :  0.43  128H :  0.42  125H :  0.42  134H :  0.42  429H :  0.42  720H :  0.41   51H :  0.41
  283O :  0.41  645H :  0.40  321H :  0.40    3H :  0.40  263H :  0.39  677H :  0.39  530H :  0.39  234H :  0.39  716H :  0.38  425H :  0.38  641H :  0.38  455H :  0.38
   81H :  0.38  372H :  0.37   99H :  0.37  735H :  0.36  516H :  0.36   83H :  0.36  462H :  0.36  278H :  0.36  513H :  0.36  662H :  0.36  300H :  0.35  417H :  0.35
  439O :  0.35  432H :  0.35  317H :  0.35  746H :  0.35  353H :  0.35    6H :  0.35  197H :  0.34  437H :  0.34  620H :  0.34  471H :  0.34  633H :  0.34  162H :  0.34
  506H :  0.34  755H :  0.34  153H :  0.33  173H :  0.33  350H :  0.33  434H :  0.33  368H :  0.33  179H :  0.32  681H :  0.32  701H :  0.32  612H :  0.31  546H :  0.31
  216H :  0.31  486H :  0.30  665H :  0.30  164H :  0.30  386H :  0.30  585H :  0.30  276H :  0.30  362H :  0.29  194H :  0.29  444H :  0.28  545H :  0.28    2H :  0.28
  435H :  0.28  143H :  0.27    8H :  0.27  384H :  0.27  375H :  0.27  593H :  0.27   77H :  0.27  561H :  0.26  594H :  0.26  200H :  0.26  542H :  0.25  408H :  0.25
  632H :  0.25  335H :  0.25  347H :  0.25   47H :  0.24  543H :  0.24  446H :  0.24  296H :  0.23  365H :  0.23   59H :  0.23  578H :  0.23  494H :  0.23  390H :  0.22
  342H :  0.22  168H :  0.22  714H :  0.22  443H :  0.21   58O :  0.21  602H :  0.21  668H :  0.21   60H :  0.21  420H :  0.20   87H :  0.20  167H :  0.20  414H :  0.20
  663H :  0.20   80H :  0.20  108H :  0.20  246H :  0.19  203H :  0.19   65H :  0.19  609H :  0.19  549H :  0.19  383H :  0.18  207H :  0.18  326H :  0.18  398H :  0.18
  636H :  0.18   56H :  0.18  359H :  0.18  653H :  0.18  177H :  0.18  305H :  0.18  558H :  0.17  689H :  0.17  584H :  0.17  536H :  0.17   33H :  0.17  396H :  0.17
   32H :  0.17  231H :  0.16  459H :  0.16  525H :  0.16  731H :  0.16  174H :  0.16  290H :  0.16  287H :  0.16  702H :  0.16   84H :  0.16  251H :  0.15  123H :  0.15
  156H :  0.15  324H :  0.15  279H :  0.15  674H :  0.15  658O :  0.15  450H :  0.15  654H :  0.15  195H :  0.14  705H :  0.14  723H :  0.14  728H :  0.14  732H :  0.14
  540H :  0.14   69H :  0.14  255H :  0.14  638H :  0.14  395H :  0.13   38H :  0.13  104H :  0.13  740H :  0.13  722H :  0.13  380H :  0.13   41H :  0.13  392H :  0.12
  221H :  0.12  215H :  0.12   53H :  0.12  569H :  0.12  461H :  0.12  498H :  0.12  332H :  0.12  182H :  0.12  605H :  0.12  756H :  0.12   78H :  0.11  695H :  0.11
  482H :  0.11   54H :  0.11  744H :  0.11  614H :  0.11  158H :  0.11  650H :  0.11  503H :  0.11  570H :  0.10  111H :  0.10  750H :  0.10  707H :  0.10  719H :  0.10
  407H :  0.10  264H :  0.10   66H :  0.10  129H :  0.10   93H :  0.10  273H :  0.10   39H :  0.10  489H :  0.09  737H :  0.09  456H :  0.09  165H :  0.09  233H :  0.09
  726H :  0.09  110H :  0.09  672H :  0.08  738H :  0.08  575H :  0.08  692H :  0.08  675H :  0.08  479H :  0.08  512H :  0.08  399H :  0.08  468H :  0.07    5H :  0.07
  621H :  0.07  480H :  0.07   18H :  0.07  357H :  0.07  252H :  0.07
    2 LP   *******   0.00 -15.68508  -2.85055  -5.51832  313O : 35.53  280O : 26.18  610O : 23.13  187O : 21.79  253O : 20.99  262O : 18.96  565O : 17.94  472O : 17.28  163O : 16.84   13O : 16.56  538O : 16.42  433O : 16.21
  361O : 15.99  226O : 15.77  328O : 14.85  403O : 14.75   22O : 14.31  559O : 13.89  301O : 13.74  739O : 13.30  118O : 13.30  190O : 13.24    7O : 12.99  106O : 12.63
  670O : 12.32   70O : 12.30   49O : 12.01  139O : 12.00  244O : 11.61  334O : 11.59  391O : 11.57  358O : 11.27  553O : 11.21   61O : 11.05   91O : 11.05  142O : 10.94
  490O : 10.62  127O : 10.61  571O : 10.40  151O : 10.39  577O : 10.20  409O :  9.99  421O :  9.70  505O :  9.25  532O :  9.16  292O :  9.04  397O :  8.68  703O :  8.36
  148O :  8.28  145O :  8.22  655O :  8.15  430O :  8.14  517O :  8.05   25O :  7.97  751O :  7.96  271O :  7.95  133O :  7.91  202O :  7.80  445O :  7.72   94O :  7.72
  700O :  7.68  616O :  7.67  415O :  7.52  643O :  7.41  250O :  7.40  613O :  7.34   55O :  7.26  256O :  6.97  583O :  6.85  682O :  6.84  343O :  6.83  136O :  6.77
   46O :  6.58  298O :  6.54  715O :  6.45   19O :  6.37  748O :  6.31  337O :  6.30  205O :  6.29  514O :  6.23  541O :  5.99  172O :  5.96  175O :  5.95  625O :  5.95
  196O :  5.88  661O :  5.74  475O :  5.72   31O :  5.50   43O :  5.50  598O :  5.41   82O :  5.28  688O :  5.15  535O :  5.14  592O :  5.08  424O :  5.08   79O :  5.03
  481O :  5.01  649O :  5.01  496O :  4.92  460O :  4.85  388O :  4.75  709O :  4.74  487O :  4.64    4O :  4.58  268O :  4.56  178O :  4.54  601O :  4.53  412O :  4.47
  607O :  4.46  238O :  4.45   97O :  4.42  124O :  4.42  562O :  4.41  130O :  4.30  289O :  4.28  652O :  4.27  400O :  4.26  286O :  4.18  697O :  4.17  184O :  4.12
   40O :  4.11  376O :  3.95  544O :  3.88  526O :  3.88  586O :  3.83  214O :  3.83   28O :  3.80  523O :  3.79  169O :  3.76  727O :  3.74  349O :  3.74  676O :  3.74
  499O :  3.72  604O :  3.70  646O :  3.70   76O :  3.59  232O :  3.52  340O :  3.48   73O :  3.44   67O :  3.29   34O :  3.26  694O :  3.22  304O :  3.18  189H :  3.16
  520O :  3.16  706O :  3.16  550O :  3.15  241O :  3.14  121O :  3.12  364O :  3.11   64O :  3.10  319O :  3.09  427O :  3.08  373O :  3.07  418O :  3.04  382O :  3.02
  451O :  2.97  265O :  2.92   57H :  2.90  718O :  2.86  295O :  2.83  307O :  2.82  436O :  2.82   15H :  2.82  154O :  2.75  754O :  2.72  556O :  2.68  370O :  2.68
  457O :  2.64  595O :  2.62  736O :  2.58  730O :  2.58  508O :  2.51   85O :  2.45  157O :  2.42  664O :  2.38  574O :  2.38   88O :  2.38  193O :  2.36   16O :  2.32
  442O :  2.32  484O :  2.31  631O :  2.25  208O :  2.22  100O :  2.09  568O :  2.06  316O :  2.04  560H :  2.02  628O :  2.00  580O :  1.99    1O :  1.95  640O :  1.94
  166O :  1.93  277O :  1.90  733O :  1.89  352O :  1.89  511O :  1.88  109O :  1.87   92H :  1.83  220O :  1.75  685O :  1.74  394O :  1.73  302H :  1.73  493O :  1.71
  211O :  1.69  379O :  1.69  229O :  1.65   68H :  1.63  247O :  1.63  126H :  1.56  385O :  1.55  274O :  1.53  198H :  1.47  411H :  1.45   72H :  1.41  741H :  1.39
  483H :  1.34  217O :  1.33   96H :  1.30  331O :  1.30  103O :  1.28  222H :  1.28  463O :  1.28  611H :  1.28  667O :  1.26  466O :  1.26  478O :  1.26  458H :  1.25
  745O :  1.24  160O :  1.23  259O :  1.23  529O :  1.22  346O :  1.22   10O :  1.21  619O :  1.20  188H :  1.20  267H :  1.17  555H :  1.16   52O :  1.16  474H :  1.15
  183H :  1.13  712O :  1.12  644H :  1.12  181O :  1.10  315H :  1.09  115O :  1.06  618H :  1.04   37O :  1.04   48H :  1.03  132H :  1.03  563H :  1.02  355O :  1.02
  469O :  1.02  454O :  1.01   71H :  0.98  683H :  0.98  329H :  0.97  322O :  0.96  752H :  0.92   95H :  0.91  310O :  0.91  742O :  0.90  235O :  0.90  749H :  0.89
  245H :  0.89  448O :  0.88  534H :  0.87  729H :  0.85  299H :  0.84  502O :  0.82  406O :  0.82  554H :  0.82  144H :  0.81  476H :  0.80  378H :  0.80  150H :  0.80
   50H :  0.80  344H :  0.79   63H :  0.79  679O :  0.79  360H :  0.77  579H :  0.77  724O :  0.76  696H :  0.76  637O :  0.75  330H :  0.75  336H :  0.74  690H :  0.74
  325O :  0.72   98H :  0.72   20H :  0.71  721O :  0.70   14H :  0.70  473H :  0.69   35H :  0.69   29H :  0.69  634O :  0.68  240H :  0.67  651H :  0.67  673O :  0.67
  294H :  0.66  363H :  0.66   23H :  0.66  192H :  0.65  615H :  0.65  176H :  0.65  492H :  0.64  293H :  0.63  464H :  0.62  257H :  0.60  656H :  0.60  485H :  0.59
  270H :  0.59  528H :  0.59  308H :  0.58  537H :  0.58  223O :  0.57   12H :  0.57  122H :  0.56  423H :  0.56  589O :  0.56  272H :  0.55  428H :  0.55  117H :  0.54
  671H :  0.54  587H :  0.52   36H :  0.52  227H :  0.52  137H :  0.51  209H :  0.51  339H :  0.51  186H :  0.50  170H :  0.50  199O :  0.49  393H :  0.49  691O :  0.48
  112O :  0.48  699H :  0.47  547O :  0.47  551H :  0.47  311H :  0.47  717H :  0.47  367O :  0.46  120H :  0.45  338H :  0.44  708H :  0.44  510H :  0.44  639H :  0.43
  581H :  0.43  288H :  0.42   21H :  0.41  597H :  0.40  622O :  0.40  105H :  0.40  128H :  0.40  125H :  0.39  134H :  0.39  429H :  0.39  720H :  0.39   51H :  0.39
  283O :  0.38  612H :  0.38  645H :  0.37  321H :  0.37    3H :  0.37  263H :  0.37  677H :  0.37  530H :  0.37  234H :  0.36  716H :  0.36  425H :  0.36  641H :  0.35
  455H :  0.35  372H :  0.35   81H :  0.35   99H :  0.34  735H :  0.34  516H :  0.34   83H :  0.34  462H :  0.34  278H :  0.33  513H :  0.33  662H :  0.33  300H :  0.33
  417H :  0.33  439O :  0.33  432H :  0.33  317H :  0.33  746H :  0.33  353H :  0.33    6H :  0.32  197H :  0.32  437H :  0.32  620H :  0.32  471H :  0.32  633H :  0.32
  162H :  0.32  506H :  0.32  755H :  0.31  153H :  0.31  350H :  0.31  434H :  0.31  173H :  0.31  368H :  0.31  179H :  0.30  681H :  0.30  701H :  0.30  546H :  0.29
  216H :  0.29  486H :  0.28  386H :  0.28  164H :  0.28  585H :  0.28  276H :  0.28  362H :  0.28  194H :  0.28  665H :  0.27  545H :  0.27  444H :  0.27    2H :  0.26
  435H :  0.26  143H :  0.26    8H :  0.25  375H :  0.25  384H :  0.25  593H :  0.25   77H :  0.25  561H :  0.25  594H :  0.24  200H :  0.24  542H :  0.24  408H :  0.24
  632H :  0.23  335H :  0.23  347H :  0.23   47H :  0.22  543H :  0.22  446H :  0.22  296H :  0.22  365H :  0.22   59H :  0.22  578H :  0.21  494H :  0.21  390H :  0.21
  342H :  0.21  168H :  0.21  714H :  0.20  443H :  0.20   58O :  0.20  602H :  0.20   60H :  0.19  668H :  0.19  420H :  0.19   87H :  0.19  167H :  0.19   80H :  0.19
  414H :  0.19  663H :  0.19  108H :  0.18  246H :  0.18  203H :  0.18   65H :  0.18  609H :  0.18  549H :  0.17  165H :  0.17  383H :  0.17  207H :  0.17  326H :  0.17
  398H :  0.17   56H :  0.17  636H :  0.17  653H :  0.17  177H :  0.17  359H :  0.17  305H :  0.17  558H :  0.16  689H :  0.16  584H :  0.16  536H :  0.16   33H :  0.16
   32H :  0.16  396H :  0.15  174H :  0.15  231H :  0.15  459H :  0.15  525H :  0.15  731H :  0.15  287H :  0.15  702H :  0.15   84H :  0.14  251H :  0.14  123H :  0.14
  290H :  0.14  156H :  0.14  279H :  0.14  324H :  0.14  674H :  0.14  658O :  0.14  450H :  0.14  654H :  0.14  195H :  0.13  705H :  0.13  395H :  0.13  723H :  0.13
  728H :  0.13  732H :  0.13  540H :  0.13   69H :  0.13  255H :  0.13  638H :  0.13   38H :  0.13  740H :  0.12  104H :  0.12  722H :  0.12  380H :  0.12  332H :  0.12
   41H :  0.12  392H :  0.12  215H :  0.11   53H :  0.11  569H :  0.11  461H :  0.11  498H :  0.11  182H :  0.11  221H :  0.11  605H :  0.11  756H :  0.11   78H :  0.11
  695H :  0.11  482H :  0.11   54H :  0.10  744H :  0.10  614H :  0.10  158H :  0.10  650H :  0.10  570H :  0.10  111H :  0.10  750H :  0.10  707H :  0.10  719H :  0.10
  407H :  0.10  264H :  0.09   66H :  0.09  129H :  0.09  273H :  0.09   93H :  0.09   39H :  0.09  489H :  0.09  737H :  0.09  456H :  0.09  233H :  0.08  726H :  0.08
  110H :  0.08  672H :  0.08  738H :  0.08  575H :  0.08  692H :  0.08  675H :  0.08  479H :  0.08  512H :  0.07  399H :  0.07
    3 LP   *******   0.00  46.57932 -16.39684  30.49154  313O : 29.27  280O : 25.52  610O : 21.11  187O : 19.89  253O : 19.15  262O : 17.30  565O : 16.37  472O : 15.77  163O : 15.44   13O : 15.11  538O : 14.98  433O : 14.79
  361O : 14.59  226O : 14.38  328O : 13.55  403O : 13.46   22O : 13.01  559O : 12.67  301O : 12.51  739O : 12.14  118O : 12.14  190O : 12.09    7O : 11.85  106O : 11.52
  670O : 11.24   70O : 11.22  139O : 10.96   49O : 10.95  244O : 10.59  334O : 10.58  391O : 10.56  358O : 10.33  553O : 10.23   91O : 10.08   61O : 10.08  142O :  9.76
  490O :  9.69  127O :  9.68  571O :  9.49  151O :  9.49  577O :  9.31  409O :  9.11  421O :  8.86  505O :  8.44  532O :  8.34  292O :  8.25  397O :  7.92  703O :  7.64
  148O :  7.56  145O :  7.50  655O :  7.44  430O :  7.43  517O :  7.34   25O :  7.28  751O :  7.27  271O :  7.25  133O :  7.22  202O :  7.12  445O :  7.05   94O :  7.02
  700O :  7.01  616O :  7.00  415O :  6.86  643O :  6.77   55O :  6.76  250O :  6.75  613O :  6.70  256O :  6.36  583O :  6.25  682O :  6.24  343O :  6.23  136O :  6.18
   46O :  6.01  298O :  5.96  715O :  5.89   19O :  5.82  748O :  5.76  337O :  5.76  205O :  5.74  514O :  5.68  541O :  5.46  172O :  5.44  175O :  5.43  625O :  5.43
  196O :  5.36  661O :  5.23  475O :  5.22   31O :  5.02   43O :  5.02  598O :  4.94   82O :  4.82  688O :  4.70  535O :  4.69  424O :  4.63  592O :  4.63   79O :  4.63
  649O :  4.57  481O :  4.55  496O :  4.49  460O :  4.43  388O :  4.33  709O :  4.33  487O :  4.24    4O :  4.18  268O :  4.16  178O :  4.14  601O :  4.13  607O :  4.07
  412O :  4.07  238O :  4.07   97O :  4.04  124O :  4.03  562O :  4.03  289O :  4.00  652O :  3.90  400O :  3.88  130O :  3.82  286O :  3.82  697O :  3.80  184O :  3.76
   40O :  3.75  376O :  3.60  544O :  3.54  526O :  3.54  169O :  3.51  214O :  3.50  586O :  3.49   28O :  3.47  523O :  3.46  727O :  3.42  349O :  3.41  676O :  3.41
  499O :  3.39  604O :  3.38  646O :  3.38   76O :  3.28  232O :  3.21  340O :  3.17   67O :  3.15   73O :  3.14   34O :  2.98  694O :  2.94  304O :  2.91  189H :  2.89
  520O :  2.88  706O :  2.88  121O :  2.88  550O :  2.87  241O :  2.87  364O :  2.84   64O :  2.83  319O :  2.82  427O :  2.81  373O :  2.80  418O :  2.78  382O :  2.75
  451O :  2.71  265O :  2.66   57H :  2.61  718O :  2.61  295O :  2.58  436O :  2.57   15H :  2.57  307O :  2.56  154O :  2.51  754O :  2.48  556O :  2.44  370O :  2.44
  457O :  2.41  595O :  2.39  736O :  2.36  730O :  2.35  508O :  2.29   85O :  2.24  157O :  2.21  664O :  2.18   88O :  2.18  574O :  2.17  193O :  2.17   16O :  2.12
  442O :  2.12  484O :  2.11  631O :  2.06  208O :  2.03  100O :  1.94  568O :  1.88  316O :  1.87  560H :  1.84  628O :  1.83  580O :  1.82    1O :  1.78  640O :  1.77
  166O :  1.76  277O :  1.73   68H :  1.73  733O :  1.73  352O :  1.72  511O :  1.72  109O :  1.70   92H :  1.67  394O :  1.63  685O :  1.59  220O :  1.59  493O :  1.56
  302H :  1.55  211O :  1.55  379O :  1.54  229O :  1.50  247O :  1.49  126H :  1.42  385O :  1.41  274O :  1.40  198H :  1.34  411H :  1.33   72H :  1.28  741H :  1.27
  483H :  1.22  217O :  1.21  103O :  1.19  331O :  1.19  222H :  1.17   96H :  1.16  463O :  1.16  611H :  1.16  667O :  1.15  466O :  1.15  478O :  1.15  458H :  1.14
  745O :  1.13  160O :  1.13  259O :  1.12  529O :  1.11  346O :  1.11   10O :  1.10  619O :  1.10  188H :  1.09  315H :  1.09  267H :  1.07  555H :  1.06   52O :  1.06
  474H :  1.05  183H :  1.03  712O :  1.02  644H :  1.02  181O :  1.00  115O :  0.97  618H :  0.95   37O :  0.95   48H :  0.94  563H :  0.93  469O :  0.93  355O :  0.93
  132H :  0.93  454O :  0.92   71H :  0.90  683H :  0.89  329H :  0.88  322O :  0.86  752H :  0.84   95H :  0.83  310O :  0.83  742O :  0.83  235O :  0.82  749H :  0.82
  245H :  0.81  448O :  0.80  534H :  0.80  729H :  0.78  299H :  0.77  502O :  0.75  406O :  0.75  554H :  0.75  476H :  0.73  378H :  0.73  150H :  0.73   50H :  0.73
  344H :  0.72   63H :  0.72  679O :  0.72  360H :  0.71  144H :  0.71  579H :  0.70  724O :  0.70  696H :  0.69  637O :  0.69  330H :  0.68  336H :  0.68  690H :  0.67
  325O :  0.66   98H :  0.66   20H :  0.65  721O :  0.64   14H :  0.63  473H :  0.63   35H :  0.63   29H :  0.63  634O :  0.62  240H :  0.61  651H :  0.61  673O :  0.61
  294H :  0.61  363H :  0.60  192H :  0.59   23H :  0.59  615H :  0.59  176H :  0.59  492H :  0.58  293H :  0.58  464H :  0.56  257H :  0.55  656H :  0.55  485H :  0.54
  270H :  0.54  528H :  0.54  308H :  0.53  537H :  0.53  223O :  0.52   12H :  0.52  122H :  0.52  423H :  0.51  589O :  0.51  272H :  0.51  428H :  0.50  117H :  0.49
  671H :  0.49  587H :  0.47  209H :  0.47   36H :  0.47  227H :  0.47  137H :  0.47  339H :  0.46  170H :  0.46  186H :  0.46  199O :  0.46  393H :  0.44  691O :  0.44
  112O :  0.43  699H :  0.43  547O :  0.43  551H :  0.43  311H :  0.43  717H :  0.43  367O :  0.42  120H :  0.41  338H :  0.41  708H :  0.40  510H :  0.40  639H :  0.39
  581H :  0.39  288H :  0.39   21H :  0.38  105H :  0.37  597H :  0.37  622O :  0.37  128H :  0.36  125H :  0.36  134H :  0.36  429H :  0.36  720H :  0.35   51H :  0.35
  283O :  0.35  612H :  0.35  645H :  0.34  321H :  0.34    3H :  0.34  263H :  0.34  677H :  0.34  530H :  0.33  234H :  0.33  716H :  0.33  425H :  0.33  641H :  0.32
  455H :  0.32   81H :  0.32  372H :  0.32   99H :  0.31  735H :  0.31  516H :  0.31   83H :  0.31  462H :  0.31  278H :  0.30  513H :  0.30  662H :  0.30  300H :  0.30
  417H :  0.30  439O :  0.30  432H :  0.30  317H :  0.30  746H :  0.30  353H :  0.30    6H :  0.30  197H :  0.29  437H :  0.29  471H :  0.29  620H :  0.29  633H :  0.29
  162H :  0.29  506H :  0.29  755H :  0.29  153H :  0.28  350H :  0.28  434H :  0.28  173H :  0.28  368H :  0.28  179H :  0.28  681H :  0.28  701H :  0.27  546H :  0.26
  216H :  0.26  486H :  0.26  164H :  0.26  386H :  0.26  585H :  0.25  276H :  0.25  362H :  0.25  665H :  0.25  194H :  0.25  444H :  0.24  545H :  0.24    2H :  0.24
  435H :  0.24  143H :  0.23    8H :  0.23  375H :  0.23  384H :  0.23  593H :  0.23   77H :  0.23  561H :  0.22  594H :  0.22  200H :  0.22  542H :  0.22  408H :  0.22
  632H :  0.21  335H :  0.21  347H :  0.21   47H :  0.20  543H :  0.20  446H :  0.20  296H :  0.20  365H :  0.20   59H :  0.20  578H :  0.20  494H :  0.19  390H :  0.19
  342H :  0.19  168H :  0.19  714H :  0.19  443H :  0.18   58O :  0.18  602H :  0.18   60H :  0.18  668H :  0.18  420H :  0.17   87H :  0.17  167H :  0.17  663H :  0.17
  414H :  0.17   80H :  0.17  108H :  0.17  246H :  0.17  203H :  0.17   65H :  0.16  609H :  0.16  549H :  0.16  383H :  0.15  207H :  0.15  326H :  0.15  398H :  0.15
  359H :  0.15  636H :  0.15  653H :  0.15  177H :  0.15  305H :  0.15   56H :  0.15  558H :  0.15  689H :  0.15  584H :  0.15  536H :  0.15   33H :  0.14  396H :  0.14
   32H :  0.14  231H :  0.14  174H :  0.14  459H :  0.14  525H :  0.14  731H :  0.14  290H :  0.13  287H :  0.13  702H :  0.13   84H :  0.13  251H :  0.13  123H :  0.13
  156H :  0.13  324H :  0.13  279H :  0.13  674H :  0.13  658O :  0.13  450H :  0.13  654H :  0.12  195H :  0.12  705H :  0.12  723H :  0.12  728H :  0.12  104H :  0.12
  732H :  0.12  540H :  0.12  255H :  0.12  638H :  0.12  395H :  0.11   38H :  0.11  740H :  0.11  722H :  0.11  380H :  0.11  332H :  0.11   41H :  0.11   69H :  0.11
  392H :  0.11  221H :  0.11  215H :  0.10   53H :  0.10  461H :  0.10  569H :  0.10  498H :  0.10  182H :  0.10  605H :  0.10  756H :  0.10   78H :  0.10  695H :  0.10
  482H :  0.10   54H :  0.09  744H :  0.09  614H :  0.09  158H :  0.09  650H :  0.09  570H :  0.09  111H :  0.09  750H :  0.09  707H :  0.09  719H :  0.09  407H :  0.09
  264H :  0.09   66H :  0.08  129H :  0.08   93H :  0.08  273H :  0.08   39H :  0.08  489H :  0.08  737H :  0.08  456H :  0.08  165H :  0.07  233H :  0.07  726H :  0.07
  110H :  0.07  672H :  0.07  738H :  0.07  575H :  0.07  692H :  0.07
    4 LP   *******   0.00  43.94783  56.15370  16.51273  313O : 24.35  280O : 19.88  610O : 17.57  187O : 16.55  253O : 15.93  433O : 15.22  262O : 14.40  565O : 13.62  472O : 13.12  163O : 12.85   13O : 12.58  538O : 12.47
  361O : 12.14  226O : 11.97  328O : 11.28  403O : 11.20   22O : 10.87  559O : 10.55  301O : 10.41  739O : 10.10  118O : 10.10  190O : 10.06    7O :  9.86  106O :  9.58
  670O :  9.35   70O :  9.28  139O :  9.12   49O :  9.12  244O :  8.82  334O :  8.80  391O :  8.78  358O :  8.56  553O :  8.51   61O :  8.39   91O :  8.39  142O :  8.31
  490O :  8.10  127O :  8.06  571O :  7.90  151O :  7.89  577O :  7.82  409O :  7.58  421O :  7.37  505O :  7.02  532O :  6.94  292O :  6.87  397O :  6.60  703O :  6.35
  148O :  6.29  145O :  6.24  655O :  6.19  430O :  6.18  517O :  6.11   25O :  6.06  751O :  6.05  271O :  6.03  133O :  6.01  202O :  5.92  445O :  5.87   94O :  5.85
  700O :  5.83  616O :  5.82  415O :  5.71  643O :  5.63  250O :  5.62  613O :  5.59   55O :  5.51  256O :  5.29  583O :  5.20  682O :  5.19  343O :  5.19  136O :  5.14
   46O :  4.99  298O :  4.97  715O :  4.90   19O :  4.84  748O :  4.80  337O :  4.79  205O :  4.78  514O :  4.71  541O :  4.54  172O :  4.53  175O :  4.52  625O :  4.52
  196O :  4.46  661O :  4.35  475O :  4.34   31O :  4.18   43O :  4.17  598O :  4.11   82O :  4.01  688O :  3.91  535O :  3.91  592O :  3.86  424O :  3.86   79O :  3.85
  649O :  3.80  481O :  3.79  496O :  3.73  460O :  3.69  388O :  3.61  709O :  3.60  487O :  3.52    4O :  3.47  268O :  3.47  178O :  3.45  601O :  3.44  412O :  3.39
  607O :  3.39  238O :  3.38   97O :  3.36  124O :  3.36  562O :  3.35  289O :  3.33  130O :  3.26  652O :  3.25  400O :  3.23  286O :  3.18  697O :  3.16  184O :  3.13
   40O :  3.12  376O :  3.00  544O :  2.95  526O :  2.94  586O :  2.91  214O :  2.91   28O :  2.88  523O :  2.88  169O :  2.86  727O :  2.84  349O :  2.84  676O :  2.84
  499O :  2.82  604O :  2.81  646O :  2.81   76O :  2.73  232O :  2.67  340O :  2.64   73O :  2.61   67O :  2.50   34O :  2.48  694O :  2.45  304O :  2.42  189H :  2.40
  706O :  2.40  520O :  2.40  550O :  2.39  241O :  2.39  121O :  2.37  364O :  2.36   64O :  2.35  319O :  2.35  427O :  2.34  373O :  2.33  418O :  2.31  382O :  2.29
  265O :  2.21   57H :  2.21  451O :  2.17  718O :  2.17  295O :  2.15  307O :  2.14  436O :  2.14   15H :  2.14  154O :  2.09  754O :  2.07  556O :  2.03  457O :  2.02
  595O :  1.99  370O :  1.97  736O :  1.96  730O :  1.96  508O :  1.91   85O :  1.86  157O :  1.84  664O :  1.81  574O :  1.81   88O :  1.81  193O :  1.79   16O :  1.77
  442O :  1.76  484O :  1.75  631O :  1.71  208O :  1.68  100O :  1.59  568O :  1.56  316O :  1.55  560H :  1.53  628O :  1.52  580O :  1.51    1O :  1.48  640O :  1.47
  166O :  1.46  277O :  1.44  733O :  1.44  352O :  1.43  511O :  1.43  109O :  1.42   92H :  1.39  394O :  1.35  685O :  1.32  220O :  1.32  493O :  1.30  302H :  1.29
  211O :  1.29  379O :  1.28  229O :  1.25  247O :  1.24   68H :  1.24  126H :  1.18  385O :  1.17  274O :  1.16  198H :  1.11  411H :  1.10  741H :  1.05   72H :  1.05
  483H :  1.01  217O :  1.01  331O :  0.99  463O :  0.98  103O :  0.98  222H :  0.97   96H :  0.97  611H :  0.97  667O :  0.96  466O :  0.96  478O :  0.96  458H :  0.95
  745O :  0.94  160O :  0.94  259O :  0.93  529O :  0.92  346O :  0.92   10O :  0.92  619O :  0.91  188H :  0.91  315H :  0.90  267H :  0.89  555H :  0.88   52O :  0.88
  474H :  0.87  183H :  0.85  712O :  0.85  644H :  0.85  181O :  0.84  115O :  0.80  618H :  0.79   37O :  0.79   48H :  0.78  132H :  0.78  563H :  0.78  355O :  0.77
  469O :  0.77  454O :  0.76  683H :  0.74  329H :  0.74   71H :  0.74  322O :  0.72  752H :  0.70   95H :  0.69  310O :  0.69  742O :  0.69  235O :  0.69  749H :  0.68
  245H :  0.68  448O :  0.67  534H :  0.67  729H :  0.65  299H :  0.64  502O :  0.62  406O :  0.62  554H :  0.62  144H :  0.61  476H :  0.61  378H :  0.61  150H :  0.61
   50H :  0.61  344H :  0.60   63H :  0.60  679O :  0.60  360H :  0.59  579H :  0.58  724O :  0.58  696H :  0.57  637O :  0.57  330H :  0.57  336H :  0.56  690H :  0.56
  325O :  0.55   98H :  0.55   20H :  0.54  721O :  0.54   14H :  0.53  473H :  0.53   35H :  0.52   29H :  0.52  634O :  0.52  240H :  0.51  651H :  0.51  673O :  0.51
  294H :  0.50  363H :  0.50   23H :  0.50  192H :  0.49  615H :  0.49  176H :  0.49  492H :  0.49  293H :  0.48  464H :  0.47  257H :  0.46  656H :  0.46  270H :  0.45
  485H :  0.45  528H :  0.45  308H :  0.44  537H :  0.44  223O :  0.43   12H :  0.43  122H :  0.43  423H :  0.43  589O :  0.42  272H :  0.42  428H :  0.41  117H :  0.41
  671H :  0.41  587H :  0.39   36H :  0.39  227H :  0.39  137H :  0.39  209H :  0.39  339H :  0.38  186H :  0.38  199O :  0.38  170H :  0.38  393H :  0.37  691O :  0.37
  112O :  0.36  699H :  0.36  547O :  0.36  551H :  0.36  311H :  0.35  717H :  0.35  367O :  0.35  120H :  0.34  338H :  0.34  708H :  0.34  510H :  0.33  639H :  0.33
  581H :  0.33  288H :  0.32   21H :  0.32  597H :  0.31  622O :  0.31  105H :  0.30  128H :  0.30  125H :  0.30  134H :  0.30  429H :  0.30  720H :  0.29   51H :  0.29
  283O :  0.29  612H :  0.29  645H :  0.28  321H :  0.28    3H :  0.28  263H :  0.28  677H :  0.28  530H :  0.28  234H :  0.28  716H :  0.27  425H :  0.27  455H :  0.27
  641H :  0.27   81H :  0.27   99H :  0.26  372H :  0.26  735H :  0.26  516H :  0.26  462H :  0.26   83H :  0.25  278H :  0.25  513H :  0.25  662H :  0.25  300H :  0.25
  417H :  0.25  439O :  0.25  432H :  0.25  317H :  0.25  746H :  0.25  353H :  0.25    6H :  0.25  197H :  0.24  437H :  0.24  620H :  0.24  471H :  0.24  633H :  0.24
  162H :  0.24  506H :  0.24  755H :  0.24  153H :  0.24  350H :  0.23  173H :  0.23  368H :  0.23  179H :  0.23  681H :  0.23  701H :  0.23  546H :  0.22  216H :  0.22
  486H :  0.22  164H :  0.21  386H :  0.21  585H :  0.21  276H :  0.21  362H :  0.21  194H :  0.21  665H :  0.21  444H :  0.20  545H :  0.20    2H :  0.20  143H :  0.19
    8H :  0.19  375H :  0.19  384H :  0.19  593H :  0.19   77H :  0.19  561H :  0.19  594H :  0.19  200H :  0.18  542H :  0.18  408H :  0.18  632H :  0.18  335H :  0.18
  347H :  0.17   47H :  0.17  578H :  0.17  543H :  0.17  434H :  0.17  446H :  0.17  365H :  0.17  296H :  0.16   59H :  0.16  494H :  0.16  390H :  0.16  342H :  0.16
  168H :  0.16  714H :  0.15  443H :  0.15   58O :  0.15  602H :  0.15   60H :  0.15  668H :  0.15  420H :  0.15   87H :  0.14  167H :  0.14  414H :  0.14  663H :  0.14
   80H :  0.14  435H :  0.14  108H :  0.14  246H :  0.14  203H :  0.14   65H :  0.14  609H :  0.13  549H :  0.13  383H :  0.13  207H :  0.13  326H :  0.13  398H :  0.13
   56H :  0.13  636H :  0.13  653H :  0.13  177H :  0.13  359H :  0.13  305H :  0.13  558H :  0.12  689H :  0.12  584H :  0.12  536H :  0.12   33H :  0.12  396H :  0.12
   32H :  0.12  459H :  0.12  174H :  0.12  231H :  0.12  525H :  0.11  731H :  0.11  290H :  0.11  287H :  0.11  702H :  0.11   84H :  0.11  251H :  0.11  123H :  0.11
  156H :  0.11  324H :  0.11  279H :  0.11  674H :  0.11  658O :  0.11  450H :  0.11  654H :  0.10  195H :  0.10  705H :  0.10  723H :  0.10  728H :  0.10  540H :  0.10
  732H :  0.10   69H :  0.10  638H :  0.10  395H :  0.10   38H :  0.09  255H :  0.09  740H :  0.09  104H :  0.09  722H :  0.09  380H :  0.09  332H :  0.09   41H :  0.09
  392H :  0.09  221H :  0.09  215H :  0.09   53H :  0.09  569H :  0.09  461H :  0.09  498H :  0.09  182H :  0.08  605H :  0.08  756H :  0.08   78H :  0.08  695H :  0.08
  482H :  0.08   54H :  0.08  744H :  0.08  614H :  0.08  158H :  0.08  650H :  0.08  570H :  0.07  111H :  0.07  750H :  0.07  707H :  0.07  719H :  0.07  407H :  0.07
  264H :  0.07
    5 LP   *******   0.00  -7.48680  42.37055  37.26347  313O : 23.36  280O : 19.07  610O : 16.85  472O : 16.32  187O : 15.87  253O : 15.29  262O : 13.81  565O : 13.07  163O : 12.33   13O : 12.07  538O : 11.96  433O : 11.81
  361O : 11.65  226O : 11.48  328O : 10.82  403O : 10.74   22O : 10.42  559O : 10.12  301O :  9.99  739O :  9.69  118O :  9.69  190O :  9.65    7O :  9.46  106O :  9.20
  670O :  8.97   70O :  8.96  139O :  8.75   49O :  8.75  244O :  8.47  334O :  8.45  391O :  8.43  358O :  8.21  553O :  8.17   61O :  8.05   91O :  8.04  142O :  7.97
  490O :  7.73  127O :  7.73  571O :  7.58  151O :  7.57  577O :  7.43  409O :  7.28  421O :  7.07  505O :  6.74  532O :  6.66  292O :  6.58  397O :  6.33  703O :  6.09
  148O :  6.03  145O :  5.99  655O :  5.94  430O :  5.93  517O :  5.86   25O :  5.81  751O :  5.80  271O :  5.79  133O :  5.76  202O :  5.68  445O :  5.63   94O :  5.61
  700O :  5.59  616O :  5.59  415O :  5.48  643O :  5.40  250O :  5.39  613O :  5.35   55O :  5.29  256O :  5.08  583O :  4.99  682O :  4.98  343O :  4.97   46O :  4.79
  298O :  4.76  715O :  4.75   19O :  4.64  748O :  4.60  337O :  4.59  205O :  4.58  514O :  4.54  136O :  4.50  541O :  4.36  172O :  4.34  175O :  4.33  625O :  4.33
  196O :  4.28  661O :  4.18  475O :  4.16   31O :  4.01   43O :  4.00  598O :  3.94   82O :  3.85  688O :  3.75  535O :  3.75  592O :  3.70  424O :  3.70   79O :  3.69
  649O :  3.65  481O :  3.64  496O :  3.58  460O :  3.53  388O :  3.46  709O :  3.46  487O :  3.38    4O :  3.33  268O :  3.32  178O :  3.31  601O :  3.30  412O :  3.25
  607O :  3.25  238O :  3.25   97O :  3.22  124O :  3.22  562O :  3.21  289O :  3.19  130O :  3.13  652O :  3.11  400O :  3.10  286O :  3.05  697O :  3.04  184O :  3.00
   40O :  3.00  376O :  2.87  544O :  2.83  526O :  2.82  586O :  2.79  214O :  2.79   28O :  2.77  523O :  2.76  169O :  2.74  727O :  2.73  676O :  2.72  349O :  2.72
  499O :  2.71  604O :  2.70  646O :  2.70   76O :  2.62  232O :  2.56  340O :  2.53   73O :  2.51   67O :  2.40   34O :  2.38  694O :  2.35  304O :  2.32  189H :  2.30
  520O :  2.30  706O :  2.30  550O :  2.29  241O :  2.29  121O :  2.28  364O :  2.27   64O :  2.26  319O :  2.25  427O :  2.25  373O :  2.23  418O :  2.22  382O :  2.20
  451O :  2.16  265O :  2.12   57H :  2.12  718O :  2.08  295O :  2.06  307O :  2.06  436O :  2.06   15H :  2.05  154O :  2.01  754O :  1.98  556O :  1.95  370O :  1.95
  457O :  1.93  595O :  1.91  736O :  1.88  730O :  1.88  508O :  1.83   85O :  1.79  157O :  1.76  664O :  1.74  574O :  1.73   88O :  1.73  193O :  1.72   16O :  1.69
  442O :  1.69  484O :  1.68  631O :  1.64  208O :  1.61  100O :  1.53  568O :  1.50  316O :  1.49  560H :  1.47  628O :  1.46  580O :  1.45    1O :  1.42  640O :  1.41
  166O :  1.40  277O :  1.38  733O :  1.38  352O :  1.38  511O :  1.37  109O :  1.36   92H :  1.33  394O :  1.30  685O :  1.27  220O :  1.27  493O :  1.25  302H :  1.24
  211O :  1.23  379O :  1.23  229O :  1.20   68H :  1.19  247O :  1.19  126H :  1.14  385O :  1.13  274O :  1.12  198H :  1.07  411H :  1.06   72H :  1.02  741H :  1.01
  483H :  0.97  217O :  0.97  331O :  0.95  103O :  0.94  222H :  0.93   96H :  0.93  463O :  0.93  611H :  0.93  667O :  0.92  478O :  0.92  458H :  0.91  466O :  0.91
  745O :  0.90  160O :  0.90  259O :  0.90  529O :  0.89  346O :  0.89   10O :  0.88  619O :  0.87  188H :  0.87  315H :  0.87  267H :  0.85  555H :  0.85   52O :  0.85
  183H :  0.82  712O :  0.82  644H :  0.81  181O :  0.80  115O :  0.77  618H :  0.76   37O :  0.76   48H :  0.75  132H :  0.75  563H :  0.75  355O :  0.74  469O :  0.74
  474H :  0.74  454O :  0.73   71H :  0.72  683H :  0.71  329H :  0.71  322O :  0.69  752H :  0.67  310O :  0.66   95H :  0.66  742O :  0.66  235O :  0.66  245H :  0.65
  749H :  0.65  448O :  0.64  534H :  0.64  729H :  0.62  299H :  0.61  502O :  0.60  554H :  0.60  406O :  0.60  144H :  0.59  476H :  0.59  378H :  0.59  150H :  0.58
   50H :  0.58  344H :  0.58   63H :  0.58  679O :  0.57  360H :  0.56  579H :  0.56  724O :  0.56  696H :  0.55  637O :  0.55  330H :  0.54  336H :  0.54  690H :  0.54
  325O :  0.53   98H :  0.52   20H :  0.52  721O :  0.51   14H :  0.51   35H :  0.50   29H :  0.50  634O :  0.50  240H :  0.49  651H :  0.49  673O :  0.49  294H :  0.48
  363H :  0.48   23H :  0.48  192H :  0.47  615H :  0.47  176H :  0.47  492H :  0.47  293H :  0.46  464H :  0.45  257H :  0.44  656H :  0.44  473H :  0.44  485H :  0.43
  270H :  0.43  528H :  0.43  308H :  0.43  537H :  0.42  223O :  0.42   12H :  0.41  122H :  0.41  423H :  0.41  589O :  0.41  272H :  0.40  428H :  0.40  117H :  0.39
  671H :  0.39  587H :  0.38   36H :  0.38  227H :  0.38  209H :  0.37  339H :  0.37  186H :  0.37  199O :  0.36  170H :  0.36  393H :  0.35  691O :  0.35  112O :  0.35
  699H :  0.34  547O :  0.34  551H :  0.34  311H :  0.34  367O :  0.34  717H :  0.34  120H :  0.33  338H :  0.32  708H :  0.32  510H :  0.32  639H :  0.31  581H :  0.31
  288H :  0.31   21H :  0.30  597H :  0.29  622O :  0.29  105H :  0.29  128H :  0.29  125H :  0.29  134H :  0.29  429H :  0.29  720H :  0.28   51H :  0.28  283O :  0.28
  612H :  0.28  645H :  0.27  321H :  0.27    3H :  0.27  263H :  0.27  677H :  0.27  530H :  0.27  234H :  0.26  716H :  0.26  425H :  0.26  641H :  0.26  455H :  0.26
   81H :  0.26  372H :  0.26   99H :  0.25  735H :  0.25  516H :  0.25   83H :  0.25  462H :  0.25  278H :  0.24  513H :  0.24  662H :  0.24  300H :  0.24  417H :  0.24
  439O :  0.24  432H :  0.24  746H :  0.24  353H :  0.24  317H :  0.24    6H :  0.24  197H :  0.23  437H :  0.23  620H :  0.23  471H :  0.23  633H :  0.23  162H :  0.23
  506H :  0.23  755H :  0.23  153H :  0.23  434H :  0.22  173H :  0.22  350H :  0.22  368H :  0.22  179H :  0.22  681H :  0.22  701H :  0.22  546H :  0.21  216H :  0.21
  486H :  0.21  164H :  0.20  386H :  0.20  585H :  0.20  276H :  0.20  362H :  0.20  194H :  0.20  665H :  0.20  137H :  0.19  444H :  0.19  545H :  0.19    2H :  0.19
  435H :  0.19  143H :  0.19    8H :  0.18  375H :  0.18  384H :  0.18  593H :  0.18   77H :  0.18  561H :  0.18  594H :  0.18  200H :  0.17  542H :  0.17  408H :  0.17
  632H :  0.17  335H :  0.17  347H :  0.17   47H :  0.16  543H :  0.16  446H :  0.16  296H :  0.16  365H :  0.16   59H :  0.16  578H :  0.16  494H :  0.16  390H :  0.15
  342H :  0.15  168H :  0.15  714H :  0.15  443H :  0.15   58O :  0.15  602H :  0.14   60H :  0.14  668H :  0.14  420H :  0.14  246H :  0.14   87H :  0.14  167H :  0.14
  414H :  0.14  663H :  0.14   80H :  0.13  108H :  0.13  203H :  0.13   65H :  0.13  609H :  0.13  549H :  0.13  383H :  0.12  326H :  0.12  207H :  0.12  398H :  0.12
   56H :  0.12  636H :  0.12  653H :  0.12  177H :  0.12  359H :  0.12  305H :  0.12  558H :  0.12  689H :  0.12  584H :  0.12  536H :  0.12   33H :  0.12  396H :  0.11
   32H :  0.11  174H :  0.11  231H :  0.11  459H :  0.11  525H :  0.11  731H :  0.11  290H :  0.11  287H :  0.11  702H :  0.11   84H :  0.11  251H :  0.11  123H :  0.11
  156H :  0.10  279H :  0.10  324H :  0.10  674H :  0.10  658O :  0.10  450H :  0.10  654H :  0.10  195H :  0.10  705H :  0.09  723H :  0.09  728H :  0.09  732H :  0.09
  540H :  0.09   69H :  0.09  255H :  0.09  638H :  0.09  395H :  0.09   38H :  0.09  104H :  0.09  740H :  0.09  722H :  0.09  380H :  0.09  332H :  0.09   41H :  0.09
  392H :  0.08  221H :  0.08  215H :  0.08   53H :  0.08  569H :  0.08  461H :  0.08  498H :  0.08  182H :  0.08  605H :  0.08  756H :  0.08   78H :  0.08  695H :  0.08
  482H :  0.08   54H :  0.08  614H :  0.07  744H :  0.07  158H :  0.07  650H :  0.07  570H :  0.07  111H :  0.07  750H :  0.07  707H :  0.07
    6 LP   *******   0.00   6.67045  17.94948 -13.72734  313O : 20.66  280O : 16.86  610O : 14.90  187O : 14.04  253O : 13.52  565O : 13.15  262O : 12.21  472O : 11.13  163O : 10.90   13O : 10.67  538O : 10.57  433O : 10.44
  361O : 10.32  226O : 10.21  328O :  9.57  403O :  9.50   22O :  9.22  559O :  8.95  301O :  8.84  739O :  8.57  118O :  8.57  190O :  8.53    7O :  8.37  106O :  8.13
  670O :  7.93   70O :  7.92  139O :  7.73   49O :  7.73  244O :  7.48  334O :  7.47  391O :  7.45  358O :  7.26  553O :  7.22   61O :  7.12   91O :  7.11  142O :  7.05
  490O :  6.84  127O :  6.84  571O :  6.70  151O :  6.69  577O :  6.57  409O :  6.43  421O :  6.25  505O :  5.96  532O :  5.89  292O :  5.83  397O :  5.59  703O :  5.39
  148O :  5.34  145O :  5.29  655O :  5.25  430O :  5.24  517O :  5.18   25O :  5.14  751O :  5.13  271O :  5.12  133O :  5.10  445O :  4.98  202O :  4.97   94O :  4.96
  700O :  4.95  616O :  4.94  415O :  4.84  643O :  4.78  250O :  4.76  613O :  4.73   55O :  4.67  256O :  4.49  583O :  4.41  682O :  4.40  343O :  4.40  136O :  4.36
   46O :  4.24  298O :  4.21  715O :  4.16   19O :  4.11  748O :  4.07  337O :  4.06  205O :  4.05  514O :  4.01  172O :  3.84  175O :  3.83  625O :  3.83  541O :  3.80
  196O :  3.79  661O :  3.69  475O :  3.68   31O :  3.59   43O :  3.54  598O :  3.49   82O :  3.40  688O :  3.32  535O :  3.31  592O :  3.27  424O :  3.27   79O :  3.26
  649O :  3.22  481O :  3.22  496O :  3.17  460O :  3.13  388O :  3.06  709O :  3.06  487O :  2.99    4O :  2.95  268O :  2.94  178O :  2.93  601O :  2.92  412O :  2.88
  607O :  2.87  238O :  2.87   97O :  2.85  124O :  2.85  562O :  2.84  289O :  2.83  130O :  2.77  652O :  2.75  400O :  2.74  286O :  2.69  697O :  2.68  184O :  2.65
   40O :  2.64  376O :  2.54  544O :  2.50  526O :  2.50  586O :  2.47  214O :  2.46   28O :  2.45  523O :  2.44  169O :  2.42  727O :  2.41  349O :  2.41  676O :  2.41
  499O :  2.39  604O :  2.38  646O :  2.38   76O :  2.31  232O :  2.26  340O :  2.24   73O :  2.22   67O :  2.12   34O :  2.10  694O :  2.08  304O :  2.05  189H :  2.04
  520O :  2.03  706O :  2.03  550O :  2.03  241O :  2.02  121O :  2.01  364O :  2.00   64O :  2.00  319O :  1.99  427O :  1.99  373O :  1.97  418O :  1.96  382O :  1.95
  451O :  1.91  265O :  1.88   57H :  1.87  718O :  1.84  295O :  1.82  307O :  1.82  436O :  1.82   15H :  1.82  154O :  1.77  754O :  1.75  556O :  1.73  370O :  1.72
  457O :  1.70  595O :  1.69  736O :  1.66  730O :  1.66  508O :  1.62   85O :  1.58  157O :  1.56  664O :  1.54  574O :  1.53   88O :  1.53  193O :  1.52   16O :  1.50
  442O :  1.49  484O :  1.49  631O :  1.45  208O :  1.43  100O :  1.35  568O :  1.33  316O :  1.32  560H :  1.30  628O :  1.29  580O :  1.28    1O :  1.26  640O :  1.25
  166O :  1.24  277O :  1.22  733O :  1.22  352O :  1.22  109O :  1.21  511O :  1.18   92H :  1.18  394O :  1.15  685O :  1.12  493O :  1.10  220O :  1.10  302H :  1.10
  211O :  1.09  379O :  1.09  229O :  1.06   68H :  1.05  247O :  1.05  126H :  1.01  385O :  1.00  274O :  0.99  198H :  0.94  411H :  0.94   72H :  0.91  741H :  0.89
  483H :  0.86  217O :  0.86  331O :  0.84  103O :  0.83   96H :  0.82  463O :  0.82  611H :  0.82  222H :  0.82  667O :  0.81  466O :  0.81  478O :  0.81  458H :  0.81
  745O :  0.80  160O :  0.80  259O :  0.79  529O :  0.78  346O :  0.78   10O :  0.78  619O :  0.77  188H :  0.77  315H :  0.77  267H :  0.75  555H :  0.75   52O :  0.75
  474H :  0.74  183H :  0.73  712O :  0.72  644H :  0.72  181O :  0.71  115O :  0.68  618H :  0.67   37O :  0.67   48H :  0.67  132H :  0.66  563H :  0.66  355O :  0.66
  469O :  0.66  454O :  0.65   71H :  0.63  683H :  0.63  329H :  0.62  322O :  0.62  752H :  0.59   95H :  0.59  310O :  0.59  742O :  0.58  235O :  0.58  749H :  0.58
  245H :  0.57  448O :  0.57  534H :  0.56  729H :  0.55  299H :  0.54  502O :  0.53  406O :  0.53  554H :  0.53  144H :  0.52  476H :  0.52  378H :  0.52  150H :  0.52
   50H :  0.51  344H :  0.51   63H :  0.51  679O :  0.51  360H :  0.50  579H :  0.50  724O :  0.49  696H :  0.49  637O :  0.48  330H :  0.48  336H :  0.48  690H :  0.48
  325O :  0.47   98H :  0.46   20H :  0.46  721O :  0.45   14H :  0.45  473H :  0.45   35H :  0.44   29H :  0.44  634O :  0.44  240H :  0.43  651H :  0.43  673O :  0.43
  294H :  0.43   23H :  0.42  192H :  0.42  363H :  0.42  615H :  0.42  176H :  0.42  492H :  0.41  293H :  0.41  464H :  0.40  257H :  0.39  656H :  0.39  485H :  0.38
  270H :  0.38  528H :  0.38  308H :  0.38  537H :  0.37  223O :  0.37   12H :  0.37  122H :  0.36  423H :  0.36  589O :  0.36  272H :  0.36  428H :  0.35  117H :  0.35
  671H :  0.35  227H :  0.34  587H :  0.33   36H :  0.33  137H :  0.33  209H :  0.33  339H :  0.33  186H :  0.32  199O :  0.32  170H :  0.32  393H :  0.31  691O :  0.31
  699H :  0.30  112O :  0.30  547O :  0.30  551H :  0.30  311H :  0.30  717H :  0.30  367O :  0.30  120H :  0.29  338H :  0.29  708H :  0.28  510H :  0.28  639H :  0.28
  581H :  0.28  288H :  0.27   21H :  0.27  597H :  0.26  622O :  0.26  105H :  0.26  128H :  0.26  125H :  0.25  134H :  0.25  429H :  0.25  720H :  0.25   51H :  0.25
  283O :  0.25  612H :  0.25  645H :  0.24  321H :  0.24    3H :  0.24  263H :  0.24  677H :  0.24  530H :  0.24  234H :  0.23  716H :  0.23  425H :  0.23  641H :  0.23
  455H :  0.23  372H :  0.23   81H :  0.23   99H :  0.22  735H :  0.22  516H :  0.22  462H :  0.22   83H :  0.22  513H :  0.22  278H :  0.22  662H :  0.21  300H :  0.21
  417H :  0.21  439O :  0.21  432H :  0.21  317H :  0.21  746H :  0.21  353H :  0.21    6H :  0.21  197H :  0.21  437H :  0.21  620H :  0.21  471H :  0.21  633H :  0.21
  162H :  0.20  506H :  0.20  755H :  0.20  153H :  0.20  350H :  0.20  434H :  0.20  173H :  0.20  368H :  0.20  179H :  0.19  681H :  0.19  701H :  0.19  546H :  0.19
  216H :  0.18  486H :  0.18  164H :  0.18  386H :  0.18  585H :  0.18  276H :  0.18  194H :  0.18  362H :  0.18  665H :  0.18  444H :  0.17  545H :  0.17    2H :  0.17
  435H :  0.17  143H :  0.17    8H :  0.16  375H :  0.16  384H :  0.16  593H :  0.16   77H :  0.16  561H :  0.16  594H :  0.16  200H :  0.15  408H :  0.15  542H :  0.15
  632H :  0.15  335H :  0.15  347H :  0.15  543H :  0.15   47H :  0.14  446H :  0.14  365H :  0.14  296H :  0.14   59H :  0.14  578H :  0.14  494H :  0.14  390H :  0.13
  342H :  0.13  168H :  0.13  714H :  0.13  443H :  0.13   58O :  0.13   60H :  0.13  668H :  0.13  420H :  0.12  602H :  0.12   87H :  0.12  167H :  0.12  414H :  0.12
  663H :  0.12   80H :  0.12  108H :  0.12  324H :  0.12  246H :  0.12  203H :  0.12   65H :  0.12  609H :  0.11  549H :  0.11  383H :  0.11  207H :  0.11   32H :  0.11
  326H :  0.11  398H :  0.11   56H :  0.11   33H :  0.11  636H :  0.11  653H :  0.11  359H :  0.11  177H :  0.11  305H :  0.11  558H :  0.10  689H :  0.10  584H :  0.10
  536H :  0.10  396H :  0.10  174H :  0.10  231H :  0.10  459H :  0.10  525H :  0.10  731H :  0.10  290H :  0.09  287H :  0.09  702H :  0.09  512H :  0.09   84H :  0.09
  251H :  0.09  123H :  0.09  156H :  0.09  279H :  0.09  674H :  0.09  658O :  0.09  450H :  0.09  654H :  0.09  195H :  0.09  705H :  0.08  723H :  0.08  728H :  0.08
  732H :  0.08  540H :  0.08   69H :  0.08  255H :  0.08  638H :  0.08  395H :  0.08   38H :  0.08  740H :  0.08  104H :  0.08  722H :  0.08   41H :  0.08  380H :  0.08
  332H :  0.08  392H :  0.08  215H :  0.07   53H :  0.07  569H :  0.07  461H :  0.07  498H :  0.07  221H :  0.07  182H :  0.07  605H :  0.07
    7 LP   *******   0.00  45.18706  11.61689  15.03670  313O : 20.57  280O : 16.79  187O : 15.02  610O : 14.84  253O : 13.47  262O : 12.16  565O : 11.50  472O : 11.09  163O : 10.85   13O : 10.62  538O : 10.53  433O : 10.40
  361O : 10.25  226O : 10.11  328O :  9.53  403O :  9.46   22O :  9.18  559O :  8.91  301O :  8.79  739O :  8.53  118O :  8.53  190O :  8.50    7O :  8.33  106O :  8.10
  670O :  7.90   70O :  7.88   49O :  7.70  139O :  7.70  244O :  7.45  334O :  7.44  391O :  7.42  358O :  7.23  553O :  7.19   61O :  7.08   91O :  7.08  142O :  7.02
  127O :  6.81  490O :  6.80  571O :  6.67  151O :  6.66  577O :  6.54  409O :  6.41  421O :  6.22  505O :  5.93  532O :  5.86  292O :  5.80  397O :  5.57  703O :  5.36
  145O :  5.27  655O :  5.24  430O :  5.22  517O :  5.16   25O :  5.12  751O :  5.11  271O :  5.10  133O :  5.07  202O :  5.00  445O :  4.95   94O :  4.94  700O :  4.92
  616O :  4.92  415O :  4.82  643O :  4.76  250O :  4.74  148O :  4.74  613O :  4.71   55O :  4.66  256O :  4.47  583O :  4.39  682O :  4.39  343O :  4.38  136O :  4.34
  298O :  4.20   46O :  4.18  715O :  4.14   19O :  4.09  748O :  4.05  337O :  4.05  205O :  4.03  514O :  3.99  541O :  3.84  172O :  3.82  625O :  3.81  175O :  3.81
  196O :  3.77  661O :  3.68  475O :  3.67   43O :  3.56   31O :  3.53  598O :  3.47   82O :  3.41  688O :  3.30  535O :  3.30  592O :  3.26  424O :  3.26   79O :  3.25
  649O :  3.21  481O :  3.20  496O :  3.15  460O :  3.11  189H :  3.06  388O :  3.05  709O :  3.04  487O :  2.98    4O :  2.94  268O :  2.93  178O :  2.91  601O :  2.91
  412O :  2.87  607O :  2.86  238O :  2.86   97O :  2.84  562O :  2.83  289O :  2.81  124O :  2.80  130O :  2.76  652O :  2.74  400O :  2.73  286O :  2.68  697O :  2.66
  184O :  2.64   40O :  2.64  376O :  2.53  544O :  2.49  526O :  2.49  586O :  2.46  214O :  2.44   28O :  2.44  523O :  2.43  169O :  2.41  727O :  2.40  349O :  2.40
  676O :  2.40  499O :  2.38  604O :  2.37  646O :  2.37   76O :  2.30  232O :  2.26  340O :  2.23   73O :  2.21   67O :  2.11   34O :  2.09  694O :  2.07  304O :  2.04
  520O :  2.02  706O :  2.02  550O :  2.02  241O :  2.02  121O :  2.00  364O :  2.00  319O :  1.98   64O :  1.98  427O :  1.98  373O :  1.97  418O :  1.95  382O :  1.94
  451O :  1.90  265O :  1.87   57H :  1.86  718O :  1.83  295O :  1.82  436O :  1.81  307O :  1.81   15H :  1.81  154O :  1.77  754O :  1.75  556O :  1.72  370O :  1.72
  457O :  1.70  595O :  1.68  736O :  1.66  730O :  1.65  508O :  1.61   85O :  1.57  157O :  1.55  664O :  1.53  574O :  1.53   88O :  1.52  193O :  1.52   16O :  1.49
  442O :  1.49  484O :  1.48  631O :  1.45  208O :  1.42  100O :  1.34  568O :  1.32  316O :  1.31  560H :  1.29  628O :  1.29  580O :  1.28    1O :  1.25  640O :  1.24
  166O :  1.24  277O :  1.22  733O :  1.22  352O :  1.21  511O :  1.21  109O :  1.20   92H :  1.17  394O :  1.14  685O :  1.12  220O :  1.12  493O :  1.10  302H :  1.09
  211O :  1.09  379O :  1.08  229O :  1.06   68H :  1.04  247O :  1.04  126H :  1.00  385O :  0.99  274O :  0.98  198H :  0.94  411H :  0.93   72H :  0.90  741H :  0.89
  217O :  0.86  483H :  0.85  331O :  0.83  222H :  0.82  103O :  0.82   96H :  0.82  463O :  0.82  611H :  0.82  667O :  0.81  466O :  0.81  478O :  0.81  458H :  0.80
  745O :  0.79  160O :  0.79  259O :  0.79  529O :  0.78  346O :  0.78   10O :  0.78  619O :  0.77  315H :  0.76  267H :  0.75  555H :  0.75   52O :  0.74  474H :  0.74
  183H :  0.72  712O :  0.72  644H :  0.72  181O :  0.71  115O :  0.68  618H :  0.67   37O :  0.67  132H :  0.66  563H :  0.66  188H :  0.65  355O :  0.65  469O :  0.65
  454O :  0.65   48H :  0.65   71H :  0.63  683H :  0.63  329H :  0.62  322O :  0.61  752H :  0.59   95H :  0.58  310O :  0.58  742O :  0.58  235O :  0.58  749H :  0.57
  245H :  0.57  448O :  0.56  534H :  0.56  729H :  0.55  299H :  0.54  502O :  0.53  406O :  0.53  554H :  0.53  144H :  0.52  476H :  0.52  378H :  0.52   50H :  0.51
  344H :  0.51   63H :  0.51  679O :  0.51  360H :  0.49  579H :  0.49  724O :  0.49  696H :  0.48  637O :  0.48  330H :  0.48  150H :  0.48  336H :  0.47  690H :  0.47
  325O :  0.46   98H :  0.46   20H :  0.46  721O :  0.45   14H :  0.45  473H :  0.44   35H :  0.44   29H :  0.44  634O :  0.44  240H :  0.43  651H :  0.43  673O :  0.43
  294H :  0.43  363H :  0.42   23H :  0.42  192H :  0.42  615H :  0.42  176H :  0.41  492H :  0.41  293H :  0.41  464H :  0.40  257H :  0.39  656H :  0.38  485H :  0.38
  270H :  0.38  528H :  0.38  308H :  0.37  537H :  0.37  223O :  0.37   12H :  0.36  122H :  0.36  423H :  0.36  589O :  0.36  272H :  0.35  428H :  0.35  117H :  0.35
  671H :  0.34  587H :  0.33   36H :  0.33  227H :  0.33  137H :  0.33  209H :  0.33  339H :  0.32  186H :  0.32  199O :  0.32  170H :  0.32  393H :  0.31  691O :  0.31
  112O :  0.31  699H :  0.30  547O :  0.30  551H :  0.30  311H :  0.30  717H :  0.30  367O :  0.30  120H :  0.29  338H :  0.29  708H :  0.28  510H :  0.28  639H :  0.28
  581H :  0.28  288H :  0.27   21H :  0.27  597H :  0.26  622O :  0.26  105H :  0.26  128H :  0.25  134H :  0.25  429H :  0.25  720H :  0.25   51H :  0.25  283O :  0.25
  612H :  0.24  125H :  0.24  645H :  0.24  321H :  0.24    3H :  0.24  677H :  0.24  530H :  0.24  455H :  0.23  263H :  0.23  234H :  0.23  716H :  0.23  425H :  0.23
  641H :  0.23  372H :  0.23   81H :  0.22   99H :  0.22  735H :  0.22   83H :  0.22  516H :  0.22  462H :  0.22  278H :  0.21  513H :  0.21  662H :  0.21  300H :  0.21
  417H :  0.21  439O :  0.21  432H :  0.21  317H :  0.21  746H :  0.21  353H :  0.21    6H :  0.21  197H :  0.21  437H :  0.21  620H :  0.21  471H :  0.21  633H :  0.21
  162H :  0.20  506H :  0.20  755H :  0.20  153H :  0.20  350H :  0.20  434H :  0.20  173H :  0.20  368H :  0.20  179H :  0.19  681H :  0.19  701H :  0.19  546H :  0.19
  486H :  0.18  164H :  0.18  386H :  0.18  585H :  0.18  276H :  0.18  362H :  0.18  194H :  0.18  665H :  0.18  216H :  0.18  444H :  0.17  545H :  0.17    2H :  0.17
  435H :  0.17  143H :  0.16    8H :  0.16  384H :  0.16  375H :  0.16  593H :  0.16   77H :  0.16  561H :  0.16  594H :  0.16  200H :  0.15  542H :  0.15  408H :  0.15
  632H :  0.15  335H :  0.15  347H :  0.15   47H :  0.14  543H :  0.14  446H :  0.14  296H :  0.14   59H :  0.14  578H :  0.14  365H :  0.14  494H :  0.14  390H :  0.13
  342H :  0.13  168H :  0.13  714H :  0.13  443H :  0.13   58O :  0.13  602H :  0.13   60H :  0.12  668H :  0.12  420H :  0.12  108H :  0.12   87H :  0.12  167H :  0.12
  414H :  0.12  663H :  0.12   80H :  0.12  246H :  0.12   65H :  0.12  203H :  0.12  609H :  0.11  549H :  0.11  383H :  0.11  207H :  0.11  326H :  0.11  398H :  0.11
   56H :  0.11  636H :  0.11  653H :  0.11  177H :  0.11  359H :  0.11  305H :  0.11  558H :  0.10  689H :  0.10  584H :  0.10  536H :  0.10   33H :  0.10  396H :  0.10
   32H :  0.10  231H :  0.10  174H :  0.10  459H :  0.10  525H :  0.10  731H :  0.10   84H :  0.09  290H :  0.09  287H :  0.09  702H :  0.09  251H :  0.09  123H :  0.09
  156H :  0.09  324H :  0.09  279H :  0.09  674H :  0.09  658O :  0.09  450H :  0.09  654H :  0.09  195H :  0.09  705H :  0.08  728H :  0.08  723H :  0.08  732H :  0.08
  540H :  0.08   69H :  0.08  255H :  0.08  215H :  0.08  638H :  0.08  395H :  0.08   38H :  0.08  740H :  0.08  722H :  0.08  380H :  0.08  332H :  0.08   41H :  0.08
  392H :  0.07  104H :  0.07  221H :  0.07   53H :  0.07  461H :  0.07  569H :  0.07  498H :  0.07  182H :  0.07
    8 LP   *******   0.00  36.80040  34.64773  32.16687  313O : 20.21  280O : 16.50  253O : 14.88  610O : 14.58  187O : 13.74  262O : 11.94  565O : 11.30  472O : 10.89  163O : 10.66   13O : 10.44  538O : 10.35  433O : 10.20
  361O : 10.08  226O :  9.93  328O :  9.36  403O :  9.29   22O :  9.02  559O :  8.76  301O :  8.64  739O :  8.38  118O :  8.38  190O :  8.35    7O :  8.19  106O :  7.95
   70O :  7.78  670O :  7.76   49O :  7.57  139O :  7.57  244O :  7.31  334O :  7.31  391O :  7.29  358O :  7.10  553O :  7.06   61O :  6.96   91O :  6.96  142O :  6.89
  127O :  6.69  490O :  6.66  571O :  6.55  151O :  6.55  577O :  6.43  409O :  6.29  421O :  6.11  505O :  5.83  532O :  5.76  292O :  5.70  397O :  5.47  703O :  5.27
  148O :  5.22  145O :  5.18  655O :  5.14  430O :  5.13  517O :  5.07   25O :  5.02  751O :  5.02  271O :  5.01  133O :  4.99  202O :  4.92  445O :  4.87   94O :  4.85
  700O :  4.84  616O :  4.83  415O :  4.74  643O :  4.67  250O :  4.66  613O :  4.62   55O :  4.57  256O :  4.39  583O :  4.31  682O :  4.31  343O :  4.30  136O :  4.27
   46O :  4.15  298O :  4.12  715O :  4.07   19O :  4.02  748O :  3.98  337O :  3.98  205O :  3.96  514O :  3.92  541O :  3.77  172O :  3.76  175O :  3.75  625O :  3.75
  196O :  3.70  661O :  3.61  475O :  3.60   31O :  3.47   43O :  3.46  598O :  3.41   82O :  3.32  688O :  3.24  535O :  3.24  592O :  3.20  424O :  3.20   79O :  3.20
  649O :  3.15  481O :  3.15  496O :  3.10  460O :  3.06  709O :  2.99  388O :  2.98  487O :  2.92  268O :  2.87  178O :  2.86  601O :  2.85  412O :  2.82  607O :  2.81
  238O :  2.81   97O :  2.79  562O :  2.78  124O :  2.78  289O :  2.76  130O :  2.71  652O :  2.69  400O :  2.68    4O :  2.65  286O :  2.64  697O :  2.63  184O :  2.60
   40O :  2.59  376O :  2.49  544O :  2.45  526O :  2.44  586O :  2.41  214O :  2.41   28O :  2.39  523O :  2.39  169O :  2.37  727O :  2.36  349O :  2.36  676O :  2.35
  499O :  2.34  604O :  2.33  646O :  2.33   76O :  2.26  232O :  2.22  340O :  2.19   73O :  2.17   67O :  2.07   34O :  2.05  694O :  2.03  304O :  2.01  189H :  1.99
  520O :  1.99  706O :  1.99  550O :  1.99  241O :  1.98  121O :  1.97  364O :  1.96   64O :  1.95  427O :  1.94  319O :  1.94  373O :  1.93  418O :  1.92  382O :  1.90
  265O :  1.84   57H :  1.83  718O :  1.80  451O :  1.80  295O :  1.78  307O :  1.78  436O :  1.78   15H :  1.77  154O :  1.73  754O :  1.72  370O :  1.69  556O :  1.69
  457O :  1.67  595O :  1.65  736O :  1.63  730O :  1.63  508O :  1.58   85O :  1.55  157O :  1.52  664O :  1.50  574O :  1.50   88O :  1.50  193O :  1.49   16O :  1.47
  442O :  1.46  484O :  1.45  631O :  1.42  208O :  1.40  100O :  1.32  568O :  1.30  316O :  1.29  560H :  1.27  628O :  1.26  580O :  1.25    1O :  1.23  640O :  1.22
  166O :  1.22  277O :  1.20  733O :  1.19  352O :  1.19  511O :  1.19  109O :  1.18   92H :  1.15  394O :  1.12  685O :  1.10  220O :  1.10  493O :  1.08  302H :  1.07
  211O :  1.07  379O :  1.06  229O :  1.04   68H :  1.03  247O :  1.02  126H :  0.99  385O :  0.98  274O :  0.97  198H :  0.92  411H :  0.92   72H :  0.90  741H :  0.87
  483H :  0.84  217O :  0.84  331O :  0.82  103O :  0.81  222H :  0.81   96H :  0.80  611H :  0.80  463O :  0.80  667O :  0.80  466O :  0.80  478O :  0.79  458H :  0.79
  745O :  0.78  160O :  0.78  259O :  0.77  529O :  0.77  346O :  0.77   10O :  0.76  619O :  0.76  188H :  0.75  315H :  0.75  267H :  0.74  555H :  0.73   52O :  0.73
  474H :  0.72  183H :  0.71  644H :  0.70  712O :  0.70  181O :  0.69  115O :  0.67  618H :  0.66   37O :  0.66   48H :  0.65  132H :  0.65  563H :  0.64  454O :  0.64
  355O :  0.64  469O :  0.64  683H :  0.62   71H :  0.62  329H :  0.61  322O :  0.60  752H :  0.58   95H :  0.57  310O :  0.57  742O :  0.57  235O :  0.57  749H :  0.56
  245H :  0.56  534H :  0.55  729H :  0.54  448O :  0.53  299H :  0.53  502O :  0.52  406O :  0.52  554H :  0.52  144H :  0.51  476H :  0.51  378H :  0.51  150H :  0.51
   50H :  0.50  344H :  0.50   63H :  0.50  679O :  0.50  360H :  0.49  579H :  0.49  724O :  0.48  696H :  0.48  637O :  0.47  330H :  0.47  325O :  0.47  336H :  0.47
  690H :  0.46   98H :  0.45   20H :  0.45  721O :  0.44   14H :  0.44  473H :  0.44   35H :  0.43   29H :  0.43  634O :  0.43  240H :  0.42  651H :  0.42  673O :  0.42
  294H :  0.42  363H :  0.42   23H :  0.41  192H :  0.41  615H :  0.41  176H :  0.41  492H :  0.40  293H :  0.40  464H :  0.39  257H :  0.38  656H :  0.38  485H :  0.37
  270H :  0.37  528H :  0.37  308H :  0.37  537H :  0.37  223O :  0.36   12H :  0.36  122H :  0.36  423H :  0.36  589O :  0.35  272H :  0.35  428H :  0.34  117H :  0.34
  671H :  0.34  587H :  0.33   36H :  0.32  227H :  0.32  137H :  0.32  209H :  0.32  339H :  0.32  186H :  0.32  199O :  0.31  170H :  0.31  393H :  0.31  691O :  0.31
  112O :  0.30  699H :  0.30  547O :  0.30  551H :  0.29  311H :  0.29  717H :  0.29  367O :  0.29  120H :  0.28  338H :  0.28  708H :  0.28  510H :  0.27  639H :  0.27
  581H :  0.27  288H :  0.27   21H :  0.26  597H :  0.25  622O :  0.25  105H :  0.25  128H :  0.25  134H :  0.25  429H :  0.25  125H :  0.25  720H :  0.24   51H :  0.24
  283O :  0.24  612H :  0.24  645H :  0.24  321H :  0.23    3H :  0.23  263H :  0.23  677H :  0.23  530H :  0.23  234H :  0.23  455H :  0.23  716H :  0.22  425H :  0.22
   83H :  0.22  641H :  0.22  372H :  0.22   81H :  0.22   99H :  0.22  735H :  0.21  516H :  0.21  462H :  0.21  278H :  0.21  513H :  0.21  662H :  0.21  300H :  0.21
  417H :  0.21  439O :  0.21  432H :  0.21  317H :  0.21  746H :  0.21  353H :  0.21  197H :  0.20  437H :  0.20  620H :  0.20  471H :  0.20  633H :  0.20  162H :  0.20
  506H :  0.20  755H :  0.20  153H :  0.20  350H :  0.19  434H :  0.19  173H :  0.19  368H :  0.19  179H :  0.19  681H :  0.19  701H :  0.19  546H :  0.18  216H :  0.18
  486H :  0.18  164H :  0.18  386H :  0.18  585H :  0.18  276H :  0.17  362H :  0.17  194H :  0.17  665H :  0.17  444H :  0.17  545H :  0.17    2H :  0.17  143H :  0.16
  435H :  0.16    8H :  0.16  561H :  0.16  384H :  0.16  375H :  0.16  593H :  0.16   77H :  0.16  594H :  0.15  200H :  0.15  542H :  0.15  408H :  0.15  632H :  0.15
  335H :  0.15  347H :  0.14   47H :  0.14  543H :  0.14  446H :  0.14  296H :  0.14  365H :  0.14   59H :  0.14  578H :  0.14  494H :  0.13  390H :  0.13  168H :  0.13
  342H :  0.13  714H :  0.13  443H :  0.13   58O :  0.13  602H :  0.12  668H :  0.12   60H :  0.12  420H :  0.12  167H :  0.12   87H :  0.12  414H :  0.12  663H :  0.12
   80H :  0.12  108H :  0.12  326H :  0.11  246H :  0.11  203H :  0.11    6H :  0.11   65H :  0.11  609H :  0.11  549H :  0.11  383H :  0.11  207H :  0.11  398H :  0.11
   56H :  0.11  636H :  0.11  653H :  0.10  177H :  0.10  359H :  0.10  305H :  0.10  558H :  0.10  689H :  0.10  584H :  0.10  536H :  0.10   33H :  0.10  396H :  0.10
   32H :  0.10  174H :  0.10  231H :  0.10  459H :  0.10  525H :  0.09  731H :  0.09  290H :  0.09  287H :  0.09  702H :  0.09  251H :  0.09  123H :  0.09   84H :  0.09
  156H :  0.09  279H :  0.09  324H :  0.09  674H :  0.09  658O :  0.09  450H :  0.09  654H :  0.09  195H :  0.08  705H :  0.08  723H :  0.08  728H :  0.08  732H :  0.08
  540H :  0.08   69H :  0.08  638H :  0.08  395H :  0.08   38H :  0.08  740H :  0.08  104H :  0.08  722H :  0.08  380H :  0.08   41H :  0.07  332H :  0.07  392H :  0.07
  221H :  0.07  215H :  0.07   53H :  0.07  569H :  0.07  461H :  0.07  498H :  0.07
    9 LP   *******   0.00  16.82970  17.20091 -31.83296  313O : 20.03  280O : 16.35  610O : 14.45  187O : 13.61  253O : 13.11  226O : 12.53  262O : 11.84  565O : 11.19  472O : 10.79  163O : 10.57   13O : 10.34  538O : 10.25
  433O : 10.12  361O : 10.02  328O :  9.28  403O :  9.21   22O :  8.94  559O :  8.67  301O :  8.56  739O :  8.31  118O :  8.31  190O :  8.27    7O :  8.11  106O :  7.89
  670O :  7.69   70O :  7.68  139O :  7.50   49O :  7.50  244O :  7.25  334O :  7.24  391O :  7.22  358O :  7.04  553O :  7.00   61O :  6.90   91O :  6.90  142O :  6.83
  490O :  6.63  127O :  6.63  571O :  6.50  151O :  6.49  577O :  6.37  409O :  6.24  421O :  6.06  505O :  5.78  532O :  5.71  292O :  5.65  397O :  5.42  703O :  5.22
  148O :  5.17  145O :  5.13  655O :  5.09  430O :  5.08  517O :  5.03   25O :  4.98  751O :  4.97  271O :  4.96  133O :  4.94  202O :  4.86  445O :  4.82   94O :  4.81
  700O :  4.80  616O :  4.79  415O :  4.70  643O :  4.63  250O :  4.62  613O :  4.58   55O :  4.53  256O :  4.35  583O :  4.28  682O :  4.27  343O :  4.27  136O :  4.23
   46O :  4.11  298O :  4.08  715O :  4.03   19O :  3.98  748O :  3.94  337O :  3.94  205O :  3.93  514O :  3.89  172O :  3.72  175O :  3.72  625O :  3.71  196O :  3.67
  541O :  3.61  661O :  3.58  475O :  3.57   31O :  3.44   43O :  3.43  598O :  3.38   82O :  3.30  688O :  3.22  535O :  3.21  592O :  3.17  424O :  3.17   79O :  3.17
  649O :  3.13  481O :  3.11  496O :  3.07  460O :  3.03  388O :  2.97  709O :  2.96  487O :  2.90    4O :  2.86  268O :  2.85  178O :  2.84  412O :  2.79  607O :  2.79
  238O :  2.78   97O :  2.76  562O :  2.76  124O :  2.76  289O :  2.74  601O :  2.73  130O :  2.68  652O :  2.67  400O :  2.65  286O :  2.61  697O :  2.60  184O :  2.57
   40O :  2.57  376O :  2.46  544O :  2.43  526O :  2.42  586O :  2.39  214O :  2.39   28O :  2.38  523O :  2.37  169O :  2.35  727O :  2.34  349O :  2.34  676O :  2.33
  499O :  2.32  604O :  2.31  646O :  2.31   76O :  2.24  232O :  2.20  340O :  2.17   73O :  2.15   67O :  2.05   34O :  2.04  694O :  2.01  304O :  1.99  189H :  1.98
  520O :  1.97  706O :  1.97  550O :  1.97  241O :  1.96  121O :  1.95  364O :  1.94   64O :  1.94  319O :  1.93  427O :  1.93  373O :  1.91  418O :  1.90  382O :  1.89
  451O :  1.85  265O :  1.82   57H :  1.81  718O :  1.79  295O :  1.77  307O :  1.76  436O :  1.76   15H :  1.76  154O :  1.72  754O :  1.70  556O :  1.67  370O :  1.67
  457O :  1.65  595O :  1.64  736O :  1.61  730O :  1.61  508O :  1.57   85O :  1.53  157O :  1.51  664O :  1.49  574O :  1.49   88O :  1.48  193O :  1.47   16O :  1.45
  442O :  1.45  484O :  1.44  631O :  1.41  208O :  1.38  100O :  1.31  568O :  1.29  316O :  1.28  560H :  1.26  628O :  1.25  580O :  1.24    1O :  1.22  640O :  1.21
  166O :  1.20  277O :  1.19  733O :  1.18  352O :  1.18  511O :  1.18  109O :  1.17   92H :  1.14  394O :  1.11  685O :  1.09  220O :  1.08  493O :  1.07  302H :  1.06
  211O :  1.06  379O :  1.05  229O :  1.03   68H :  1.02  247O :  1.02  126H :  0.97  385O :  0.97  274O :  0.96  198H :  0.92  411H :  0.91   72H :  0.88  741H :  0.87
  483H :  0.83  217O :  0.83  160O :  0.82  331O :  0.81  103O :  0.80  222H :  0.80   96H :  0.80  463O :  0.80  611H :  0.80  667O :  0.79  466O :  0.79  478O :  0.79
  458H :  0.78  745O :  0.77  259O :  0.77  529O :  0.76  346O :  0.76   10O :  0.76  619O :  0.75  188H :  0.75  315H :  0.74  267H :  0.73  555H :  0.73   52O :  0.72
[...]
   370   8 o    1.851 --   372 h    0.821   371 h    0.815
   371   1 h    0.885 --   370 o    0.815
   372   1 h    0.890 --   370 o    0.821
   373   8 o    1.864 --   374 h    0.822   375 h    0.807
   374   1 h    0.886 --   373 o    0.822
   375   1 h    0.873 --   373 o    0.807
   376   8 o    1.878 --   378 h    0.854   377 h    0.819
   377   1 h    0.873 --   376 o    0.819
   378   1 h    0.894 --   376 o    0.854
   379   8 o    1.833 --   381 h    0.845   380 h    0.817
   380   1 h    0.876 --   379 o    0.817
   381   1 h    0.894 --   379 o    0.845
   382   8 o    1.844 --   384 h    0.833   383 h    0.822
   383   1 h    0.884 --   382 o    0.822
   384   1 h    0.882 --   382 o    0.833
   385   8 o    1.838 --   386 h    0.890   387 h    0.805
   386   1 h    0.909 --   385 o    0.890
   387   1 h    0.881 --   385 o    0.805
   388   8 o    1.821 --   390 h    0.859   389 h    0.799
   389   1 h    0.872 --   388 o    0.799
   390   1 h    0.892 --   388 o    0.859
   391   8 o    1.838 --   392 h    0.915   393 h    0.809
   392   1 h    0.921 --   391 o    0.915
   393   1 h    0.877 --   391 o    0.809
   394   8 o    1.854 --   396 h    0.858   395 h    0.854
   395   1 h    0.890 --   394 o    0.854
   396   1 h    0.894 --   394 o    0.858
   397   8 o    1.856 --   398 h    0.854   399 h    0.842
   398   1 h    0.893 --   397 o    0.854
   399   1 h    0.893 --   397 o    0.842
   400   8 o    1.832 --   402 h    0.881   401 h    0.808
   401   1 h    0.884 --   400 o    0.808
   402   1 h    0.900 --   400 o    0.881
   403   8 o    1.852 --   405 h    0.825   404 h    0.808
   404   1 h    0.877 --   403 o    0.808
   405   1 h    0.890 --   403 o    0.825
   406   8 o    1.869 --   408 h    0.827   407 h    0.819
   407   1 h    0.883 --   406 o    0.819
   408   1 h    0.890 --   406 o    0.827
   409   8 o    1.865 --   410 h    0.820   411 h    0.775
   410   1 h    0.881 --   409 o    0.820
   411   1 h    0.866 --   409 o    0.775
   412   8 o    1.862 --   414 h    0.824   413 h    0.797
   413   1 h    0.871 --   412 o    0.797
   414   1 h    0.884 --   412 o    0.824
   415   8 o    1.856 --   417 h    0.874   416 h    0.809
   416   1 h    0.887 --   415 o    0.809
   417   1 h    0.903 --   415 o    0.874
   418   8 o    1.874 --   419 h    0.861   420 h    0.802
   419   1 h    0.887 --   418 o    0.861
   420   1 h    0.872 --   418 o    0.802
   421   8 o    1.877 --   423 h    0.820   422 h    0.761
   422   1 h    0.873 --   421 o    0.761   298 o    0.107
   423   1 h    0.889 --   421 o    0.820
   424   8 o    1.838 --   425 h    0.832   426 h    0.813
   425   1 h    0.892 --   424 o    0.832
   426   1 h    0.876 --   424 o    0.813
   427   8 o    1.847 --   428 h    0.823   429 h    0.820
   428   1 h    0.893 --   427 o    0.823
   429   1 h    0.886 --   427 o    0.820
   430   8 o    1.865 --   431 h    0.817   432 h    0.813
   431   1 h    0.876 --   430 o    0.817
   432   1 h    0.880 --   430 o    0.813
   433   8 o    1.856 --   434 h    0.863   435 h    0.836
   434   1 h    0.892 --   433 o    0.863
   435   1 h    0.890 --   433 o    0.836
   436   8 o    1.862 --   437 h    0.871   438 h    0.808
   437   1 h    0.894 --   436 o    0.871
   438   1 h    0.885 --   436 o    0.808
   439   8 o    1.872 --   440 h    0.898   441 h    0.794
   440   1 h    0.907 --   439 o    0.898
   441   1 h    0.879 --   439 o    0.794
   442   8 o    1.852 --   443 h    0.814   444 h    0.786
   443   1 h    0.879 --   442 o    0.814
   444   1 h    0.876 --   442 o    0.786
   445   8 o    1.852 --   446 h    0.876   447 h    0.795
   446   1 h    0.900 --   445 o    0.876
   447   1 h    0.880 --   445 o    0.795
   448   8 o    1.860 --   450 h    0.890   449 h    0.786
   449   1 h    0.879 --   448 o    0.786
   450   1 h    0.903 --   448 o    0.890
   451   8 o    1.847 --   453 h    0.885   452 h    0.797
   452   1 h    0.883 --   451 o    0.797
   453   1 h    0.906 --   451 o    0.885
   454   8 o    1.874 --   456 h    0.839   455 h    0.802
   455   1 h    0.869 --   454 o    0.802
   456   1 h    0.887 --   454 o    0.839
   457   8 o    1.868 --   459 h    0.830   458 h    0.818
   458   1 h    0.878 --   457 o    0.818
   459   1 h    0.881 --   457 o    0.830
   460   8 o    1.855 --   462 h    0.824   461 h    0.783
   461   1 h    0.871 --   460 o    0.783
   462   1 h    0.881 --   460 o    0.824
   463   8 o    1.836 --   465 h    0.851   464 h    0.840
   464   1 h    0.893 --   463 o    0.840
   465   1 h    0.893 --   463 o    0.851
   466   8 o    1.871 --   468 h    0.854   467 h    0.815
   467   1 h    0.882 --   466 o    0.815
   468   1 h    0.892 --   466 o    0.854
   469   8 o    1.857 --   471 h    0.885   470 h    0.857
   470   1 h    0.888 --   469 o    0.857
   471   1 h    0.900 --   469 o    0.885
   472   8 o    1.869 --   473 h    0.862   474 h    0.846
   473   1 h    0.893 --   472 o    0.862
   474   1 h    0.888 --   472 o    0.846
   475   8 o    1.831 --   477 h    0.851   476 h    0.804
   476   1 h    0.883 --   475 o    0.804
   477   1 h    0.898 --   475 o    0.851
   478   8 o    1.827 --   479 h    0.867   480 h    0.861
   479   1 h    0.902 --   478 o    0.867
   480   1 h    0.895 --   478 o    0.861
   481   8 o    1.877 --   483 h    0.840   482 h    0.833
   482   1 h    0.884 --   481 o    0.833
   483   1 h    0.889 --   481 o    0.840
   484   8 o    1.860 --   485 h    0.889   486 h    0.790
   485   1 h    0.907 --   484 o    0.889
   486   1 h    0.878 --   484 o    0.790
   487   8 o    1.816 --   489 h    0.889   488 h    0.835
   488   1 h    0.884 --   487 o    0.835
   489   1 h    0.908 --   487 o    0.889
   490   8 o    1.879 --   491 h    0.885   492 h    0.788
   491   1 h    0.901 --   490 o    0.885
   492   1 h    0.872 --   490 o    0.788
   493   8 o    1.823 --   495 h    0.848   494 h    0.817
   494   1 h    0.884 --   493 o    0.817
   495   1 h    0.898 --   493 o    0.848
   496   8 o    1.796 --   497 h    0.898   498 h    0.859
   497   1 h    0.913 --   496 o    0.898
   498   1 h    0.901 --   496 o    0.859
   499   8 o    1.849 --   500 h    0.890   501 h    0.790
   500   1 h    0.908 --   499 o    0.890
   501   1 h    0.872 --   499 o    0.790
   502   8 o    1.850 --   503 h    0.849   504 h    0.832
   503   1 h    0.890 --   502 o    0.849
   504   1 h    0.882 --   502 o    0.832
   505   8 o    1.817 --   507 h    0.843   506 h    0.806
   506   1 h    0.884 --   505 o    0.806
   507   1 h    0.897 --   505 o    0.843
   508   8 o    1.873 --   510 h    0.849   509 h    0.764
   509   1 h    0.866 --   508 o    0.764
   510   1 h    0.887 --   508 o    0.849
   511   8 o    1.846 --   513 h    0.884   512 h    0.824
   512   1 h    0.875 --   511 o    0.824
   513   1 h    0.906 --   511 o    0.884
   514   8 o    1.866 --   515 h    0.877   516 h    0.869
   515   1 h    0.895 --   514 o    0.877
   516   1 h    0.894 --   514 o    0.869
   517   8 o    1.863 --   518 h    0.864   519 h    0.836
   518   1 h    0.894 --   517 o    0.864
   519   1 h    0.894 --   517 o    0.836
   520   8 o    1.879 --   522 h    0.860   521 h    0.799
   521   1 h    0.870 --   520 o    0.799
   522   1 h    0.899 --   520 o    0.860
   523   8 o    1.878 --   525 h    0.832   524 h    0.791
   524   1 h    0.880 --   523 o    0.791
   525   1 h    0.888 --   523 o    0.832
   526   8 o    1.839 --   528 h    0.863   527 h    0.794
   527   1 h    0.884 --   526 o    0.794
   528   1 h    0.898 --   526 o    0.863
   529   8 o    1.848 --   530 h    0.861   531 h    0.815
   530   1 h    0.899 --   529 o    0.861
   531   1 h    0.877 --   529 o    0.815
   532   8 o    1.818 --   534 h    0.859   533 h    0.854
   533   1 h    0.899 --   532 o    0.854
   534   1 h    0.898 --   532 o    0.859
   535   8 o    1.805 --   537 h    0.861   536 h    0.831
   536   1 h    0.889 --   535 o    0.831
   537   1 h    0.898 --   535 o    0.861
   538   8 o    1.839 --   539 h    0.887   540 h    0.821
   539   1 h    0.905 --   538 o    0.887
   540   1 h    0.886 --   538 o    0.821
   541   8 o    1.844 --   542 h    0.874   543 h    0.829
   542   1 h    0.902 --   541 o    0.874
   543   1 h    0.887 --   541 o    0.829
   544   8 o    1.858 --   545 h    0.837   546 h    0.832
   545   1 h    0.889 --   544 o    0.837
   546   1 h    0.893 --   544 o    0.832
   547   8 o    1.843 --   548 h    0.855   549 h    0.852
   548   1 h    0.884 --   547 o    0.855
   549   1 h    0.895 --   547 o    0.852
   550   8 o    1.864 --   551 h    0.868   552 h    0.842
   551   1 h    0.898 --   550 o    0.868
   552   1 h    0.886 --   550 o    0.842
   553   8 o    1.802 --   554 h    0.901   555 h    0.831
   554   1 h    0.912 --   553 o    0.901
   555   1 h    0.887 --   553 o    0.831
   556   8 o    1.843 --   557 h    0.814   558 h    0.800
   557   1 h    0.877 --   556 o    0.814
   558   1 h    0.876 --   556 o    0.800
   559   8 o    1.832 --   560 h    0.892   561 h    0.789
   560   1 h    0.910 --   559 o    0.892
   561   1 h    0.869 --   559 o    0.789
   562   8 o    1.843 --   563 h    0.827   564 h    0.786
   563   1 h    0.892 --   562 o    0.827
   564   1 h    0.871 --   562 o    0.786
   565   8 o    1.840 --   566 h    0.839   567 h    0.829
   566   1 h    0.895 --   565 o    0.839
   567   1 h    0.880 --   565 o    0.829
   568   8 o    1.814 --   569 h    0.864   570 h    0.854
   569   1 h    0.892 --   568 o    0.864
   570   1 h    0.891 --   568 o    0.854
   571   8 o    1.863 --   572 h    0.798   573 h    0.779
   572   1 h    0.880 --   571 o    0.798
   573   1 h    0.876 --   571 o    0.779
   574   8 o    1.849 --   575 h    0.857   576 h    0.829
   575   1 h    0.896 --   574 o    0.857
   576   1 h    0.885 --   574 o    0.829
   577   8 o    1.810 --   579 h    0.870   578 h    0.854
   578   1 h    0.894 --   577 o    0.854
   579   1 h    0.898 --   577 o    0.870
   580   8 o    1.855 --   582 h    0.854   581 h    0.843
   581   1 h    0.896 --   580 o    0.843
   582   1 h    0.893 --   580 o    0.854
   583   8 o    1.860 --   585 h    0.912   584 h    0.825
   584   1 h    0.876 --   583 o    0.825
   585   1 h    0.918 --   583 o    0.912
   586   8 o    1.842 --   587 h    0.902   588 h    0.738
   587   1 h    0.911 --   586 o    0.902
   588   1 h    0.867 --   586 o    0.738   172 o    0.117
   589   8 o    1.836 --   590 h    0.814   591 h    0.787
   590   1 h    0.887 --   589 o    0.814
   591   1 h    0.872 --   589 o    0.787
   592   8 o    1.843 --   593 h    0.890   594 h    0.768
   593   1 h    0.907 --   592 o    0.890
   594   1 h    0.865 --   592 o    0.768
   595   8 o    1.826 --   597 h    0.855   596 h    0.833
   596   1 h    0.894 --   595 o    0.833
   597   1 h    0.892 --   595 o    0.855
   598   8 o    1.862 --   600 h    0.820   599 h    0.805
   599   1 h    0.878 --   598 o    0.805
   600   1 h    0.892 --   598 o    0.820
   601   8 o    1.877 --   602 h    0.813   603 h    0.802
   602   1 h    0.886 --   601 o    0.813
   603   1 h    0.886 --   601 o    0.802
   604   8 o    1.867 --   606 h    0.868   605 h    0.835
   605   1 h    0.889 --   604 o    0.835
   606   1 h    0.895 --   604 o    0.868
   607   8 o    1.869 --   608 h    0.874   609 h    0.844
   608   1 h    0.899 --   607 o    0.874
   609   1 h    0.889 --   607 o    0.844
   610   8 o    1.815 --   611 h    0.913   612 h    0.817
   611   1 h    0.920 --   610 o    0.913
   612   1 h    0.878 --   610 o    0.817
   613   8 o    1.864 --   614 h    0.854   615 h    0.826
   614   1 h    0.892 --   613 o    0.854
   615   1 h    0.881 --   613 o    0.826
   616   8 o    1.872 --   618 h    0.858   617 h    0.790
   617   1 h    0.868 --   616 o    0.790
   618   1 h    0.892 --   616 o    0.858
   619   8 o    1.832 --   621 h    0.861   620 h    0.818
   620   1 h    0.882 --   619 o    0.818
   621   1 h    0.894 --   619 o    0.861
   622   8 o    1.827 --   624 h    0.853   623 h    0.850
   623   1 h    0.889 --   622 o    0.850
   624   1 h    0.892 --   622 o    0.853
   625   8 o    1.850 --   626 h    0.841   627 h    0.830
   626   1 h    0.891 --   625 o    0.841
   627   1 h    0.892 --   625 o    0.830
   628   8 o    1.862 --   630 h    0.830   629 h    0.793
   629   1 h    0.880 --   628 o    0.793
   630   1 h    0.878 --   628 o    0.830
   631   8 o    1.852 --   633 h    0.849   632 h    0.816
   632   1 h    0.877 --   631 o    0.816
   633   1 h    0.896 --   631 o    0.849
   634   8 o    1.858 --   635 h    0.918   636 h    0.797
   635   1 h    0.923 --   634 o    0.918
   636   1 h    0.879 --   634 o    0.797
   637   8 o    1.850 --   638 h    0.860   639 h    0.809
   638   1 h    0.896 --   637 o    0.860
   639   1 h    0.880 --   637 o    0.809
   640   8 o    1.844 --   641 h    0.821   642 h    0.789
   641   1 h    0.886 --   640 o    0.821
   642   1 h    0.873 --   640 o    0.789
   643   8 o    1.867 --   644 h    0.901   645 h    0.830
   644   1 h    0.908 --   643 o    0.901
   645   1 h    0.881 --   643 o    0.830
   646   8 o    1.872 --   648 h    0.873   647 h    0.858
   647   1 h    0.890 --   646 o    0.858
   648   1 h    0.899 --   646 o    0.873
   649   8 o    1.845 --   651 h    0.877   650 h    0.808
   650   1 h    0.875 --   649 o    0.808
   651   1 h    0.905 --   649 o    0.877
   652   8 o    1.837 --   654 h    0.853   653 h    0.803
   653   1 h    0.877 --   652 o    0.803
   654   1 h    0.894 --   652 o    0.853
   655   8 o    1.880 --   657 h    0.810   656 h    0.778    30 h    0.104
   656   1 h    0.873 --   655 o    0.778
   657   1 h    0.888 --   655 o    0.810
   658   8 o    1.856 --   659 h    0.865   660 h    0.811
   659   1 h    0.900 --   658 o    0.865
   660   1 h    0.878 --   658 o    0.811
   661   8 o    1.829 --   663 h    0.849   662 h    0.802
   662   1 h    0.879 --   661 o    0.802
   663   1 h    0.891 --   661 o    0.849
   664   8 o    1.842 --   666 h    0.859   665 h    0.851
   665   1 h    0.889 --   664 o    0.851
   666   1 h    0.893 --   664 o    0.859
   667   8 o    1.811 --   668 h    0.871   669 h    0.794
   668   1 h    0.903 --   667 o    0.871
   669   1 h    0.881 --   667 o    0.794
   670   8 o    1.858 --   672 h    0.838   671 h    0.822
   671   1 h    0.880 --   670 o    0.822
   672   1 h    0.893 --   670 o    0.838
   673   8 o    1.890 --   675 h    0.816   674 h    0.813
   674   1 h    0.868 --   673 o    0.813
   675   1 h    0.880 --   673 o    0.816
   676   8 o    1.847 --   677 h    0.907   678 h    0.814
   677   1 h    0.917 --   676 o    0.907
   678   1 h    0.875 --   676 o    0.814
   679   8 o    1.826 --   680 h    0.880   681 h    0.818
   680   1 h    0.905 --   679 o    0.880
   681   1 h    0.879 --   679 o    0.818
   682   8 o    1.830 --   684 h    0.863   683 h    0.834
   683   1 h    0.891 --   682 o    0.834
   684   1 h    0.893 --   682 o    0.863
   685   8 o    1.802 --   687 h    0.864   686 h    0.832
   686   1 h    0.893 --   685 o    0.832
   687   1 h    0.896 --   685 o    0.864
   688   8 o    1.869 --   689 h    0.865   690 h    0.796
   689   1 h    0.900 --   688 o    0.865
   690   1 h    0.884 --   688 o    0.796
   691   8 o    1.832 --   692 h    0.871   693 h    0.839
   692   1 h    0.898 --   691 o    0.871
   693   1 h    0.895 --   691 o    0.839
   694   8 o    1.844 --   695 h    0.831   696 h    0.807
   695   1 h    0.891 --   694 o    0.831
   696   1 h    0.889 --   694 o    0.807
   697   8 o    1.867 --   699 h    0.828   698 h    0.817
   698   1 h    0.889 --   697 o    0.817
   699   1 h    0.890 --   697 o    0.828
   700   8 o    1.854 --   702 h    0.816   701 h    0.799
   701   1 h    0.877 --   700 o    0.799
   702   1 h    0.889 --   700 o    0.816
   703   8 o    1.843 --   705 h    0.850   704 h    0.834
   704   1 h    0.885 --   703 o    0.834
   705   1 h    0.888 --   703 o    0.850
   706   8 o    1.873 --   707 h    0.810   708 h    0.785
   707   1 h    0.883 --   706 o    0.810
   708   1 h    0.868 --   706 o    0.785
   709   8 o    1.852 --   710 h    0.847   711 h    0.816
   710   1 h    0.889 --   709 o    0.847
   711   1 h    0.881 --   709 o    0.816
   712   8 o    1.847 --   714 h    0.845   713 h    0.776
   713   1 h    0.872 --   712 o    0.776
   714   1 h    0.894 --   712 o    0.845
   715   8 o    1.850 --   717 h    0.836   716 h    0.808
   716   1 h    0.875 --   715 o    0.808
   717   1 h    0.887 --   715 o    0.836
   718   8 o    1.834 --   719 h    0.861   720 h    0.826
   719   1 h    0.893 --   718 o    0.861
   720   1 h    0.884 --   718 o    0.826
   721   8 o    1.823 --   723 h    0.895   722 h    0.845
   722   1 h    0.886 --   721 o    0.845
   723   1 h    0.906 --   721 o    0.895
   724   8 o    1.844 --   726 h    0.837   725 h    0.793
   725   1 h    0.874 --   724 o    0.793
   726   1 h    0.896 --   724 o    0.837
   727   8 o    1.824 --   728 h    0.857   729 h    0.818
   728   1 h    0.897 --   727 o    0.857
   729   1 h    0.884 --   727 o    0.818
   730   8 o    1.851 --   732 h    0.919   731 h    0.797
   731   1 h    0.881 --   730 o    0.797
   732   1 h    0.924 --   730 o    0.919
   733   8 o    1.871 --   735 h    0.864   734 h    0.809
   734   1 h    0.887 --   733 o    0.809
   735   1 h    0.895 --   733 o    0.864
   736   8 o    1.859 --   737 h    0.862   738 h    0.831
   737   1 h    0.897 --   736 o    0.862
   738   1 h    0.892 --   736 o    0.831
   739   8 o    1.844 --   740 h    0.864   741 h    0.842
   740   1 h    0.898 --   739 o    0.864
   741   1 h    0.893 --   739 o    0.842
   742   8 o    1.836 --   744 h    0.888   743 h    0.820
   743   1 h    0.885 --   742 o    0.820
   744   1 h    0.904 --   742 o    0.888
   745   8 o    1.851 --   746 h    0.854   747 h    0.801
   746   1 h    0.900 --   745 o    0.854
   747   1 h    0.877 --   745 o    0.801
   748   8 o    1.861 --   749 h    0.825   750 h    0.792
   749   1 h    0.886 --   748 o    0.825
   750   1 h    0.868 --   748 o    0.792
   751   8 o    1.828 --   752 h    0.860   753 h    0.853
   752   1 h    0.885 --   751 o    0.860
   753   1 h    0.888 --   751 o    0.853
   754   8 o    1.817 --   756 h    0.851   755 h    0.790
   755   1 h    0.865 --   754 o    0.790
   756   1 h    0.890 --   754 o    0.851
 ---------------------------------------------------------------------------

Topologies differ in total number of bonds
Writing topology from bond orders to xtbtopo.mol

molecular dipole:
                 x           y           z       tot (Debye)
 q only:        3.306       3.412      -0.780
   full:        4.370       3.558      -0.808      14.471
molecular quadrupole (traceless):
                xx          xy          yy          xz          yz          zz
 q only:      105.892      -0.150     -74.360      -4.704     -51.124     -31.532
  q+dip:      176.181      21.885    -129.229      -4.198     -86.369     -46.952
   full:      179.051      23.043    -131.238      -4.145     -86.861     -47.813


           -------------------------------------------------
          | TOTAL ENERGY            -1283.302631129445 Eh   |
          | GRADIENT NORM               0.097829841175 Eh/α |
          | HOMO-LUMO GAP               6.203790673401 eV   |
           -------------------------------------------------

------------------------------------------------------------------------
 * finished run on 2022/11/24 at 12:22:38.222     
------------------------------------------------------------------------
 total:
 * wall-time:     0 d,  0 h,  0 min, 57.386 sec
 *  cpu-time:     0 d,  0 h,  1 min, 14.060 sec
 * ratio c/w:     1.291 speedup
 SCF:
 * wall-time:     0 d,  0 h,  0 min, 56.313 sec
 *  cpu-time:     0 d,  0 h,  1 min, 12.283 sec
 * ratio c/w:     1.284 speedup

