756
 energy: -1283.241761264592 gnorm: 0.085750096295 xtb: 6.5.1 (579679a)
o            5.68725874455308       -7.71187623071471       -0.80657330386865
h            4.76860156538290       -7.83810627290345       -1.06524787156939
h            5.65319983681272       -7.49121212508736        0.13871477323025
o           -0.73870152886540        3.28896400485936        4.05831808148092
h           -0.06421524584224        2.82588525372246        4.59765869854294
h           -0.27339979813465        3.98097785485662        3.55711725998133
o           -0.86067498754915       -2.13434098428211       -2.42631059849423
h           -1.24782756213027       -2.93927558050277       -2.03544731635732
h           -1.59923257162781       -1.59220077408007       -2.74885317616930
o           -5.45641452506989        2.75970904566209       -1.20308588618133
h           -4.53246034369152        2.62913977597622       -1.46982728493362
h           -5.96996278782459        2.57883871944292       -2.00058074919208
o           -3.36571954473852        2.36957524155803        0.56766813843327
h           -4.15838965099684        2.87316308743657        0.81905959711007
h           -2.99583953985507        2.06983277836709        1.41364067744661
o           -4.48006511825276       -3.55761129673504        3.36356355353857
h           -5.39495481187186       -3.67414520912365        3.03136875715870
h           -4.18784371436392       -4.41181669708437        3.71843580091447
o           -0.61126198528901       -4.71417812833239       -3.68460074295344
h           -1.02373771212036       -5.56699212781059       -3.43260589153303
h            0.08767127446591       -4.53586152977624       -3.04011620974701
o            0.42422252794172       -5.30639487248825        0.61721574113671
h           -0.01447854595676       -5.05231155456119        1.44691683855945
h            0.92912113449861       -6.10863848245872        0.86941717173805
o           -2.43848639876456       -3.64468653725649        1.51592577845712
h           -1.68562516611279       -3.12458505460995        1.86406203575797
h           -3.20547566260517       -3.45783639469209        2.08249134849233
o            1.61778676190659        1.94148704377462       -4.94118311367129
h            1.52901876154215        2.17873234306371       -5.87689484415877
h            1.50464395320359        2.77462250067858       -4.40246054355257
o           -2.76733240275512       -0.26881917815950       -3.47331365555595
h           -2.50387899739724       -0.15365176794459       -4.40559363496188
h           -3.71220844029238       -0.52172912479528       -3.54152696802730
o           -1.08541638299835        4.46602931415478       -3.12707061997934
h           -1.27503879700555        5.30575040064806       -3.58766470224712
h           -1.37194257261524        3.72798079432912       -3.70429785282616
o           -4.79207631940521       -3.60251386276959        0.15938113571325
h           -5.71131347752087       -3.80472716530874       -0.12296360919161
h           -4.86418683391502       -2.82403089509486        0.74044054920394
o           -3.00668050804887        2.14319095266118       -2.25142532421916
h           -2.99219911759262        1.28164931759223       -2.71535516337725
h           -2.10312906897779        2.30455721239008       -1.93630819435485
o           -0.39130122839600        2.59796782486832       -1.37791557256108
h            0.02699188259582        1.90227588031256       -1.91689321925608
h            0.14127784839278        3.40746140596555       -1.43497616726691
o            0.28061909356495        0.58007284438277       -3.01054016179074
h            0.83322490949595        0.93564149779383       -3.71782526777108
h            0.71231382881388       -0.23598332150622       -2.70285913283646
o           -2.97827599148444       -0.96032852090379        3.28128773547196
h           -2.89850830378511        0.00979900609075        3.27779467339592
h           -3.76478286311460       -1.18245084129575        2.74468920065587
o           -5.79933113845489       -0.76220924978444        8.01083397147859
h           -6.30224617049631       -0.42947478705466        7.23508660884981
h           -6.18379630028564       -1.61817763437027        8.20582728998764
o           -0.25530705251318       -4.60044083718435        3.17133600607268
h           -0.72722489363004       -4.00902616185436        3.77666829151207
h            0.66557928704967       -4.27353902451344        3.10860766429257
o           -4.56664738621969        0.97043413426606        5.11614189953948
h           -4.50716738943837        0.00012322258869        5.18632187772845
h           -4.60364404688767        1.30620860391385        6.02598525932705
o           -0.66075390439702       -1.91737390151166        2.31811187733242
h           -0.01417075498513       -2.02687203215298        3.03344200226600
h           -1.43401771055596       -1.45176929080929        2.69680912719805
o            4.42861987792539        1.23511524310953        1.36020533240407
h            5.17236559842301        0.69988302496672        1.69470854046972
h            4.59738157846867        2.15308667224317        1.65261562557498
o            1.32249331300321       -2.69072571696245        0.33043178734348
h            1.81201863048635       -2.65140518271047        1.16397379080992
h            0.95285832769638       -3.58309146327116        0.32722592344073
o            0.90438210719411        4.87968184647769       -0.65069623403020
h            1.49645999236265        5.36282052595347       -1.24768801174327
h            0.25633952661754        5.51851175250890       -0.29647671559366
o           -3.04257110131916       -0.83985842268058        8.14005259618964
h           -2.77176050264429       -0.10651960011741        7.56147720316828
h           -4.00531337539891       -0.92650930294127        8.05036690511044
o           -6.96304158048928       -0.89171405526949        3.59867882802536
h           -6.91397544174147        0.05211399466512        3.32377510062976
h           -6.67553189326351       -0.87181083761590        4.52088747136517
o           -7.93257733243852        0.57502641605077       -1.44137428167327
h           -7.43206226357532        0.99147420001368       -2.16810804904913
h           -7.56777752798407        0.91740191648629       -0.60973005993100
o            2.81245679786826        3.81460753319208        0.80448088086275
h            2.04534551953889        4.31994080610844        0.45988048803345
h            3.54468266813500        4.43158267585100        0.91619481919834
o           -3.59983661011796       -2.62352122099745       -1.99404066639861
h           -4.04936284161176       -3.10562656716923       -1.27389548981153
h           -3.79803438632970       -1.69122412379303       -1.87355272807753
o            1.86410643375348       -1.46680606321392       -2.06156386453433
h            2.17859553117619       -2.15806764848060       -2.66939577174137
h            1.77864919448214       -1.89743044616224       -1.19130987817358
o           -5.27873890675433       -5.79131856229862       -2.44131851340184
h           -5.52583625412936       -4.84190843578182       -2.52036448696799
h           -4.93028853698222       -6.02824686531710       -3.31719538034014
o           -6.29344060841289       -1.46697500999824       -0.89981195871784
h           -5.45618692799093       -0.99442104984046       -0.77793022452567
h           -6.91689761657043       -0.82637066103198       -1.28541742574252
o            1.06220324965194        1.74980682345816        5.29740891102179
h            0.57301213563764        0.94093505210293        5.06185881807570
h            1.69659213739502        1.93286458507454        4.58734060060008
o            3.91797954550113       -1.71094981116293        1.42597859360189
h            4.42801913458158       -2.39392014689887        1.90282977496130
h            4.55336451295199       -1.17405616347428        0.91466869513971
o            2.28914817101969       -0.35954505864254        3.01365702460184
h            2.88531808350861       -0.82990951110336        2.39363307762575
h            1.85084505158413       -1.06047728101209        3.53995840777331
o            2.51146577719364        2.50255194462048        3.12118158942618
h            2.54516175986721        3.05657720981984        2.31432960058348
h            2.65775552982143        1.60289981128741        2.79923811139483
o           -3.86338126406671        4.31858310503442       -3.62352882501973
h           -3.53010010828785        4.22010870967071       -4.53580485498109
h           -3.58022281323750        3.52135673809905       -3.14025042705694
o           -6.73657209160080        4.89214630692099       -2.78383572202381
h           -6.41724909022662        4.52383249619204       -3.64018015357472
h           -5.92980143195021        5.17607617817880       -2.31043718684418
o            2.89319139077846       -2.80396899705574        7.16798423307540
h            2.09149458255748       -2.25738856876618        7.26676739901089
h            3.61762952486679       -2.31718729701824        7.57838332239993
o           -1.64432375414460       -2.75646239316358        4.82824071074987
h           -1.73398602442571       -2.85081498590969        5.79411714513880
h           -2.45541336319409       -2.36360818451146        4.48096840096911
o            1.01574174756225       -2.10445168315528        4.53457767599532
h            1.29484758676788       -3.02352195558635        4.69610742630891
h            0.81144715011652       -1.74310363957984        5.41389678611439
o           -0.18606759913722        0.70368308101423        2.39475932972137
h            0.74520473596186        0.44958542128884        2.33566354660389
h           -0.27050799460301        1.60666677643821        2.03925352580391
o           -0.91225516116377       -3.01824117017624       -7.70262713307284
h           -0.93142916538476       -3.90644978397107       -7.31041137726174
h            0.00923961154292       -2.79364689891365       -7.86717811870652
o            3.78169363874534       -2.85052383173670        4.65422583969439
h            3.40782062443227       -2.78136141345333        5.55588800224095
h            4.50814850264723       -2.19804601757161        4.59500787348859
o           -9.03672459479914        0.94002071858788        1.62892951557267
h           -8.34308555545301        1.62970653280066        1.64195368566449
h           -9.46362573019252        0.90938553263011        2.50832241738525
o           -8.62564678003801        4.94702314232952        3.00977664086185
h           -7.89401779961647        5.56563742273632        3.25969537567527
h           -9.34038244622682        5.45162705851422        2.61310304166421
o           -9.75791210498966       -3.75442567667525        1.24312668166655
h          -10.38398153240451       -3.80338505813302        0.50559176569245
h           -9.24283509487715       -2.92959210650112        1.11285589985236
o            3.09667293529975       -6.29294563985908        3.77510968485652
h            3.93871220377766       -6.10590504591217        4.20189197986077
h            2.44789558099120       -5.75081491705618        4.25560380767782
o            6.57288990598667       -3.10099710509850        6.44427281241930
h            5.95045483343442       -2.50447390954210        6.88870858068583
h            7.42967987619635       -2.94918766478311        6.84210927240898
o            2.68594426240600        2.58806692748682       -1.58335204780109
h            2.87593568947912        3.08392682078231       -0.76317163829529
h            2.29398990167038        3.20820717885175       -2.21899691402808
o            4.58127270386277       -5.33661697138445       -2.20913722764271
h            4.08866647476543       -4.67125031121534       -2.71792693333888
h            3.98542418704388       -6.06595468711869       -2.02861179139119
o           -8.99355798770395        5.69676178447142       -4.00744388530114
h           -8.15056926261398        5.53690805830214       -3.53212936299944
h           -8.77390583248259        6.18021882161721       -4.80251703963655
o            7.60774535777590        2.33733700134889        2.04088042495292
h            7.64973570048016        1.65600871216063        1.34022509425788
h            8.44078988658834        2.82789238853665        2.02213572239232
o           -0.30721920599717        2.28420435187823       -7.07233011804997
h           -0.05296089308661        1.34730251750125       -6.96015818635719
h           -1.14721777786474        2.28097986107736       -7.55305879024921
o           -8.73443817984431       -2.47305501485707       -1.50945461315720
h           -9.27161578260666       -1.85095367037408       -1.00328378941832
h           -8.55197207227316       -2.05999168488020       -2.36893290391757
o           -2.82482877452054        1.75139362721080        3.17213138059888
h           -3.42023335778098        1.73396760632769        3.93782004016039
h           -2.02074423142136        2.24071743281291        3.42016858648666
o            3.51204134666288       -5.29089088442655        0.75450319349921
h            3.17827522562898       -5.98827552552564        0.16699732300647
h            3.70154774098123       -4.52267494179963        0.16874930244405
o           -2.34534328300573       -6.21287081258833        2.07976048074606
h           -2.21129465024267       -5.26680477606143        1.84326179048756
h           -3.19203346755264       -6.43948071096396        1.65443175290650
o            2.85447652097017       -0.49678172620996       -5.02626093437840
h            2.38331796548275        0.33942597180892       -4.92015701812213
h            2.19621542554141       -1.20243211494173       -4.87025582635185
o            1.83016159970305       -1.91765453098547       -7.89261208634649
h            2.30283678694978       -2.51968546553082       -7.28705231982855
h            2.49684394535039       -1.26061006434436       -8.13880185880595
o           -0.83136863626815       -0.04673678836384        4.78929742486299
h           -0.72082994802360        0.23118065805157        3.84578543169937
h           -1.01775948047514       -0.99851282016117        4.79307574981229
o           -1.25937928685831       -5.36831508784353       -6.28289995909102
h           -2.15703795457647       -5.71168946008614       -6.24335305576025
h           -1.03096115765046       -5.12479886353646       -5.36846605782923
o            1.88937315170955        0.77716272509699        0.26252294444394
h            2.75636751437207        0.71788136919707        0.68343558149274
h            1.99776828305280        1.40926408465243       -0.46187531454872
o           -1.58322676451273       -4.29430524728706       -0.90040630136272
h           -0.82473425528370       -4.76230566036736       -0.51620925250739
h           -2.06998084045310       -3.93852383179542       -0.13511701976406
o            5.40205497701335       -3.72721828459968        2.36540105004518
h            5.39857854093597       -4.37467690403045        3.07743577268429
h            5.58531251101106       -4.19452497954436        1.53378791599982
o           -3.34522764013950       -2.43702526110020       -6.73767814949817
h           -2.56518076061029       -2.67647221188461       -7.26578584740199
h           -3.21368145204416       -2.86065385589713       -5.86091138054175
o           -7.30856615943278       -4.20342510411843       -0.14464262108029
h           -7.37207310634081       -4.07347494197506        0.81718855678368
h           -7.77178949325625       -3.46357507725974       -0.59609715809599
o           -1.49937787829234        2.23584177196504       -4.58166187092694
h           -1.07669137410781        1.53121137333866       -4.07357709746547
h           -1.04969502671263        2.28254727143192       -5.44199947910736
o          -10.77408425021187        2.64777657934691        0.59234748194362
h          -10.09908131673694        2.03313507787151        0.96414357724982
h          -10.44658829509599        3.56940841794088        0.67992450191854
o            5.27293464149277       -4.96767042031423        4.94716007701684
h            4.60498203926342       -4.24340165970962        4.83580604034803
h            5.86957434133788       -4.59813431439874        5.61168652666426
o            0.24721084676428        1.15419131901777        7.78116271328652
h           -0.70701362390561        1.20109274636603        7.57086246209757
h            0.67644122854191        1.51407683272817        6.98241376339190
o            3.86576564164571        0.24876797252005       -2.24589527003256
h            3.52066229086307        1.12799338714817       -2.02801021804721
h            3.10955548540467       -0.37064618491247       -2.16972611389893
o            5.31897673232086        3.69417342036543        2.01672266429426
h            5.06720173687989        3.81230416680565        2.94432871043393
h            6.22351862690007        3.32052765793103        2.02591690794133
o           -5.31004321144974       -0.96910094168954       -3.93096093169693
h           -5.37126255546989       -1.00671127490028       -4.90363703685486
h           -5.44665003337578       -1.88756773087711       -3.61678414304548
o            5.15561507637720       -7.04441056334011        1.81968419237506
h            4.52079084077430       -7.64233119216718        2.21873844895177
h            4.61550420828725       -6.27405533521180        1.51100456691338
o           -2.93666495424496        2.03948946798209       -7.65841968437454
h           -2.80469825628809        1.23741502689638       -7.09809681995964
h           -3.84616220036427        1.97199468574394       -7.96819605283406
o            5.27334553615464       -1.09738117288796       -4.17057776976597
h            4.37864039186258       -0.76493330933197       -4.38710313417727
h            5.63603504780525       -1.44450441698332       -5.01219389418317
o           -8.85753802362338       -4.78620257935030        4.31077099825944
h           -8.90096976509411       -5.53257691460393        3.70084057184672
h           -8.27780665520932       -5.04914826945489        5.03583525108984
o          -10.67771347915287       -1.11780509969310       -0.17084627214954
h          -10.73842461122025       -0.26934521291080       -0.64154546457916
h          -11.05354272008463       -0.98134493885376        0.71725704335502
o           -9.26036473115058       -5.68927578846560       -1.28609539927970
h          -10.05129520647023       -5.14334137751586       -1.23348598586061
h           -8.55736880397260       -5.19759404898252       -0.81182940618082
o           -7.52572451118516        5.89793306660700        0.08333407066838
h           -6.84968004850696        6.30235614018572        0.63712230398986
h           -7.15034275911224        5.82603906557747       -0.79738443402091
o           -5.03072849426393        6.55373119886382        1.25782245210290
h           -4.21471355847120        7.00673808203529        1.58916258186206
h           -4.89328898451478        6.48142014577276        0.29217633619258
o           -2.60598570232452        4.59129991993293       -0.87306937299942
h           -2.06993057635781        4.42551736561336       -1.67472634782390
h           -2.74082670801427        3.74252438077952       -0.41021611444129
o           -0.54919579944710        3.99428583072167        7.36172509880087
h           -0.19600324161545        3.32086306070011        7.94816864129229
h            0.16324555575479        4.20790079790327        6.73616202633849
o            0.70846006667125        5.05993695365382        2.48852190802228
h            1.59840996160419        5.27756726076280        2.80203929083509
h            0.29358677936171        5.92191912398191        2.30813944615762
o           -0.22746889169632        4.96196919184327       -6.15562115819954
h           -0.03802979857170        4.09012300313065       -6.52317482009883
h            0.62543949417347        5.35571959391196       -5.90545672450894
o            2.34726630982727        2.68931222169337       -7.51468534970975
h            2.93397584089420        3.46135578226543       -7.49178938133354
h            1.60834010068282        2.88415984121599       -8.09330808662652
o            5.46474247489709        2.24438383727265       -0.90784433007274
h            5.03695007308682        1.77453666166389       -0.16637731706395
h            5.69019375938075        3.13379203375593       -0.58263748504464
o            4.12363714122128        4.64516102373571       -6.70916519354334
h            5.03027044130603        4.96446273921164       -6.78224368006357
h            4.18006934498542        3.87817481199451       -6.08620037954022
o           -1.45855301367949        6.83670698791019       -4.30597971130360
h           -2.42494461192064        6.98956127442909       -4.24897404509277
h           -1.24528253136610        6.58073727875873       -5.20812518370555
o           -5.10719606066910       -1.33406032372990        1.72992114270294
h           -5.33970930709747       -0.54631769511434        1.20513401619106
h           -5.81137773573764       -1.39700894478942        2.39851511007257
o            0.36621275522399       -7.17808712193811       -1.85140582323204
h           -0.28496162586214       -7.37115812242570       -2.53541787587148
h           -0.08983237266569       -7.42510953552027       -1.01469953175894
o            8.63043788819333       -3.20959734082273       -1.48727216541524
h            7.69436205843980       -3.03079949621132       -1.68318877603858
h            8.74207058053618       -4.16505336367876       -1.32290474606479
o            2.23373575516073       -3.74498530665148        2.61504423818376
h            2.83825106687525       -3.43996355855041        3.30844254075217
h            2.70692075125989       -4.41587428690816        2.09557378717903
o            2.88883526268257        7.68699886422308       -3.47097313617307
h            3.74125331369752        8.05104511664771       -3.71500651493246
h            3.07805335252710        7.00905271002080       -2.77651552680305
o           -7.19197588434979       -2.49268065923633        6.20569781665342
h           -8.04398701570270       -2.23730937132924        5.82218841243456
h           -7.10357425875151       -3.45656089281031        6.09063279762921
o           -7.87925522898597       -2.73273741516445       -5.95585635793314
h           -8.74404139885344       -3.09507689584794       -6.14716395228394
h           -7.96705799733968       -2.27345257057549       -5.08717780772644
o           -4.74948232255704        6.05249813476717       -1.36015033570923
h           -4.00003570828829        5.41866010977263       -1.24736549347300
h           -4.47861916158666        6.66994358278221       -2.04931607187038
o           -4.11517987620558        6.87889009539673       -3.96075477763284
h           -4.65159287743908        6.98470763847915       -4.74590444558909
h           -4.06754771982468        5.90091020033114       -3.81064437895960
o            3.79936622660603        0.68057526775808        4.90710877413283
h            3.41420932813949        0.63739447536448        5.79705683736596
h            3.17505194032819        0.27264115390503        4.26982606525782
o           -6.11213272783426       -3.30813338578130       -2.88616961802942
h           -6.96587527162645       -3.69133933702858       -3.18141953273707
h           -6.29390117877050       -2.77859858990976       -2.08821381506148
o            1.36356867359208       -4.43641678520208       -5.81398959399514
h            1.65732239803853       -5.05851694468584       -5.12702353752982
h            0.68312937972125       -4.89081236814480       -6.31461210754906
o            1.55315856600253       -4.54801566954854       -1.88434454647613
h            2.28574156563538       -4.00516372231251       -1.53967827675315
h            1.20229893885409       -5.06767378903622       -1.15097033911613
o           -5.17791810980775        3.93391911562272        1.81716497430903
h           -5.16199502698534        4.88497149328670        1.57911421539424
h           -6.07539808864259        3.61277762911716        1.58138177878407
o           -8.04163034272137       -1.17546742704378       -3.79532134498143
h           -7.15930478278083       -0.76644057129173       -3.76389753029668
h           -8.69173473130612       -0.52728986387969       -4.13006691472427
o          -10.07636087894460        5.23879444475978        0.72060264854438
h           -9.16354148913357        5.49902095971722        0.49609375257396
h          -10.58716760005393        5.43728762054437       -0.07592552165612
o            5.50733970554509        5.88130572594974        4.28835639063872
h            5.40270099415313        5.00912404376812        4.69209383388131
h            6.22289273325835        5.80665686427549        3.63817517156085
o           -6.53938227119556        1.59759013638041       -3.46879464187522
h           -7.06020466067471        1.70624682019921       -4.27780254421824
h           -5.62676480716521        1.46361308241030       -3.78334498559256
o            1.47733229173764        4.57419020962002        5.55741001800002
h            1.89613147808267        4.25368645345554        4.75310819172068
h            1.18079444734944        5.49028784332697        5.36730481493725
o            3.65899616882886        0.21560240259727       -7.54074121669200
h            3.22347568853529        1.07851321283890       -7.59832847694955
h            3.46006058298596       -0.12309724217933       -6.64563203203766
o           -0.86719017244478       -5.51582990185765        6.07542256814012
h           -1.61909851798474       -5.62937455482322        5.47252048047552
h           -1.10857555724948       -4.82788354638293        6.70286706942792
o            7.42251458006079        3.98123939623215       -3.28303253210997
h            7.86922162881663        4.84588109101328       -3.24194052122209
h            7.65906384501462        3.54371257682488       -2.42868154787394
o           -8.10650904810183       -1.58762182040511        1.17584316390890
h           -8.46686840326858       -0.69057956723021        1.27696446202684
h           -7.43600744410908       -1.53937588418125        0.46843728163985
o            8.93138183827246        3.74612643484562        4.48770876794348
h            9.43637245082097        2.92543284878669        4.29894533125625
h            9.48139120034431        4.28463776648390        5.05453610415504
o          -11.83559114622883       -0.80329966777218        2.24431925207884
h          -11.53897062264815       -0.07938451473498        2.81013122778446
h          -11.74319325940114       -1.61748257553455        2.75794955532554
o           -6.47275034917708        1.66950083240855        3.30169817887827
h           -7.21125775556080        2.13156989143919        3.73900635700593
h           -5.77118360156634        1.54901679658683        3.96965752500708
o           -7.66863130352696        3.19266778779375        1.20355793723750
h           -8.09053029378415        3.88261426818221        1.75008005873246
h           -7.91486532308229        3.35049985745036        0.26900331904291
o           -7.19407692525475        0.38991817742478        6.02374694723468
h           -7.03715879641290        1.35107014245189        6.13321407857867
h           -8.13066361046105        0.22409831660874        6.13320483467937
o           -1.82666537362726       -3.06252634286802        7.50747324107854
h           -2.21546049115604       -2.21283426649981        7.83471305331810
h           -2.60512157800422       -3.64845359520698        7.47740607316847
o            1.57453334091925       -4.63850704675292        5.37952425930337
h            2.01878288400349       -4.40301536820115        6.19957622842152
h            0.70108779345531       -5.01505333191788        5.61009313231216
o           -2.92574869625750        4.34622149107011       -6.12731669372549
h           -2.00365217380720        4.62720198070199       -6.17080382159091
h           -2.99807353284749        3.56243245338800       -6.69813902796647
o            4.81217384024074        3.87807619080355       -2.91829295174911
h            5.78446276973471        3.96775140768348       -3.06677792577325
h            4.74364043109871        3.21269627483528       -2.20391223462739
o            6.46626575477879        1.11767897010485       -3.13396362604000
h            6.13852934258552        1.50191116485732       -2.29905019180101
h            5.79623046154268        0.46887519969909       -3.41248432399972
o            3.69399919168186        6.53047196242191        0.87462658435490
h            3.40257908691847        6.43046904030008        1.80184608162990
h            4.56399619706602        6.97963288635023        0.91991024345348
o            4.66177239479420        3.28818597343150        4.64137241398707
h            5.36927238165475        2.61706112079671        4.72466724895931
h            3.89547720378929        2.82918294471684        4.24174125806352
o            6.94302275644694        1.89550540444079        4.61192889571895
h            7.08571226410835        1.73118020618627        3.65879262464804
h            7.52785202928825        2.64682612723504        4.79617104372541
o            6.23441648488896       -4.65716402712201       -0.08220644437310
h            5.71107821934287       -4.95866120565016       -0.84700219751764
h            6.83648515943116       -5.38062654870121        0.15516267880452
o            7.54980522355143       -2.51814282857405        1.07993565860656
h            8.48791775621596       -2.78623654210133        1.04734684933010