      -----------------------------------------------------------      
     |                   =====================                   |     
     |                           x T B                           |     
     |                   =====================                   |     
     |                         S. Grimme                         |     
     |          Mulliken Center for Theoretical Chemistry        |     
     |                    University of Bonn                     |     
      -----------------------------------------------------------      

   * xtb version 6.5.1 (579679a) compiled by 'ehlert@majestix' on 2022-07-11

   xtb is free software: you can redistribute it and/or modify it under
   the terms of the GNU Lesser General Public License as published by
   the Free Software Foundation, either version 3 of the License, or
   (at your option) any later version.
   
   xtb is distributed in the hope that it will be useful,
   but WITHOUT ANY WARRANTY; without even the implied warranty of
   MERCHANTABILITY or FITNESS FOR A PARTICULAR PURPOSE.  See the
   GNU Lesser General Public License for more details.
   
   Cite this work as:
   * C. Bannwarth, E. Caldeweyher, S. Ehlert, A. Hansen, P. Pracht,
     J. Seibert, S. Spicher, S. Grimme, WIREs Comput. Mol. Sci., 2020, 11,
     e01493. DOI: 10.1002/wcms.1493
   
   for GFN2-xTB:
   * C. Bannwarth, S. Ehlert and S. Grimme., J. Chem. Theory Comput., 2019,
     15, 1652-1671. DOI: 10.1021/acs.jctc.8b01176
   for GFN1-xTB:
   * S. Grimme, C. Bannwarth, P. Shushkov, J. Chem. Theory Comput., 2017,
     13, 1989-2009. DOI: 10.1021/acs.jctc.7b00118
   for GFN0-xTB:
   * P. Pracht, E. Caldeweyher, S. Ehlert, S. Grimme, ChemRxiv, 2019, preprint.
     DOI: 10.26434/chemrxiv.8326202.v1
   for GFN-FF:
   * S. Spicher and S. Grimme, Angew. Chem. Int. Ed., 2020, 59, 15665-15673.
     DOI: 10.1002/anie.202004239
   
   for ALPB and GBSA implicit solvation:
   * S. Ehlert, M. Stahn, S. Spicher, S. Grimme, J. Chem. Theory Comput.,
     2021, 17, 4250-4261. DOI: 10.1021/acs.jctc.1c00471
   
   for DFT-D4:
   * E. Caldeweyher, C. Bannwarth and S. Grimme, J. Chem. Phys., 2017,
     147, 034112. DOI: 10.1063/1.4993215
   * E. Caldeweyher, S. Ehlert, A. Hansen, H. Neugebauer, S. Spicher,
     C. Bannwarth and S. Grimme, J. Chem. Phys., 2019, 150, 154122.
     DOI: 10.1063/1.5090222
   * E. Caldeweyher, J.-M. Mewes, S. Ehlert and S. Grimme, Phys. Chem. Chem. Phys.
     2020, 22, 8499-8512. DOI: 10.1039/D0CP00502A
   
   for sTDA-xTB:
   * S. Grimme and C. Bannwarth, J. Chem. Phys., 2016, 145, 054103.
     DOI: 10.1063/1.4959605
   
   in the mass-spec context:
   * V. Asgeirsson, C. Bauer and S. Grimme, Chem. Sci., 2017, 8, 4879.
     DOI: 10.1039/c7sc00601b
   * J. Koopman and S. Grimme, ACS Omega 2019, 4, 12, 15120-15133.
     DOI: 10.1021/acsomega.9b02011
   
   for metadynamics refer to:
   * S. Grimme, J. Chem. Theory Comput., 2019, 155, 2847-2862
     DOI: 10.1021/acs.jctc.9b00143
   
   for SPH calculations refer to:
   * S. Spicher and S. Grimme, J. Chem. Theory Comput., 2021, 17, 1701-1714
     DOI: 10.1021/acs.jctc.0c01306
   
   with help from (in alphabetical order)
   P. Atkinson, C. Bannwarth, F. Bohle, G. Brandenburg, E. Caldeweyher
   M. Checinski, S. Dohm, S. Ehlert, S. Ehrlich, I. Gerasimov, C. Hölzer
   A. Katbashev, J. Koopman, C. Lavigne, S. Lehtola, F. März, M. Müller,
   F. Musil, H. Neugebauer, J. Pisarek, C. Plett, P. Pracht, F. Pultar,
   J. Seibert, P. Shushkov, S. Spicher, M. Stahn, M. Steiner, T. Strunk,
   J. Stückrath, T. Rose, and J. Unsleber
   
 * started run on 2022/11/24 at 09:28:10.075     

           -------------------------------------------------
          |                Calculation Setup                |
           -------------------------------------------------

          program call               : xtb solvent_cluster.coord --gfn2 --sp --lmo --chrg 0
          hostname                   : cn0341
          coordinate file            : solvent_cluster.coord
          omp threads                :                     2

   ID    Z sym.   atoms
    1    8 o      1, 4, 7, 10, 13, 16, 19, 22, 25, 28, 31, 34, 37, 40, 43,
                  46, 49, 52, 55, 58, 61, 64, 67, 70, 73, 76, 79, 82, 85, 88,
                  91, 94, 97, 100, 103, 106, 109, 112, 115, 118, 121, 124,
                  127, 130, 133, 136, 139, 142, 145, 148, 151, 154, 157, 160,
                  163, 166, 169, 172, 175, 178, 181, 184, 187, 190, 193, 196,
                  199, 202, 205, 208, 211, 214, 217, 220, 223, 226, 229, 232,
                  235, 238, 241, 244, 247, 250, 253, 256, 259, 262, 265, 268,
                  271, 274, 277, 280, 283, 286, 289, 292, 295, 298, 301, 304,
                  307, 310, 313, 316, 319, 322, 325, 328, 331, 334, 337, 340,
                  343, 346, 349, 352, 355, 358, 361, 364, 367, 370, 373, 376,
                  379, 382, 385, 388, 391, 394, 397, 400, 403, 406, 409, 412,
                  415, 418, 421, 424, 427, 430, 433, 436, 439, 442, 445, 448,
                  451, 454, 457, 460, 463, 466, 469, 472, 475, 478, 481, 484,
                  487, 490, 493, 496, 499, 502, 505, 508, 511, 514, 517, 520,
                  523, 526, 529, 532, 535, 538, 541, 544, 547, 550, 553, 556,
                  559, 562, 565, 568, 571, 574, 577, 580, 583, 586, 589, 592,
                  595, 598, 601, 604, 607, 610, 613, 616, 619, 622, 625, 628,
                  631, 634, 637, 640, 643, 646, 649, 652, 655, 658, 661, 664,
                  667, 670, 673, 676, 679, 682, 685, 688, 691, 694, 697, 700,
                  703, 706, 709, 712, 715, 718, 721, 724, 727, 730, 733, 736,
                  739, 742, 745, 748, 751, 754
    2    1 h      2, 3, 5, 6, 8, 9, 11, 12, 14, 15, 17, 18, 20, 21, 23, 24,
                  26, 27, 29, 30, 32, 33, 35, 36, 38, 39, 41, 42, 44, 45, 47,
                  48, 50, 51, 53, 54, 56, 57, 59, 60, 62, 63, 65, 66, 68, 69,
                  71, 72, 74, 75, 77, 78, 80, 81, 83, 84, 86, 87, 89, 90, 92,
                  93, 95, 96, 98, 99, 101, 102, 104, 105, 107, 108, 110, 111,
                  113, 114, 116, 117, 119, 120, 122, 123, 125, 126, 128, 129,
                  131, 132, 134, 135, 137, 138, 140, 141, 143, 144, 146, 147,
                  149, 150, 152, 153, 155, 156, 158, 159, 161, 162, 164, 165,
                  167, 168, 170, 171, 173, 174, 176, 177, 179, 180, 182, 183,
                  185, 186, 188, 189, 191, 192, 194, 195, 197, 198, 200, 201,
                  203, 204, 206, 207, 209, 210, 212, 213, 215, 216, 218, 219,
                  221, 222, 224, 225, 227, 228, 230, 231, 233, 234, 236, 237,
                  239, 240, 242, 243, 245, 246, 248, 249, 251, 252, 254, 255,
                  257, 258, 260, 261, 263, 264, 266, 267, 269, 270, 272, 273,
                  275, 276, 278, 279, 281, 282, 284, 285, 287, 288, 290, 291,
                  293, 294, 296, 297, 299, 300, 302, 303, 305, 306, 308, 309,
                  311, 312, 314, 315, 317, 318, 320, 321, 323, 324, 326, 327,
                  329, 330, 332, 333, 335, 336, 338, 339, 341, 342, 344, 345,
                  347, 348, 350, 351, 353, 354, 356, 357, 359, 360, 362, 363,
                  365, 366, 368, 369, 371, 372, 374, 375, 377, 378, 380, 381,
                  383, 384, 386, 387, 389, 390, 392, 393, 395, 396, 398, 399,
                  401, 402, 404, 405, 407, 408, 410, 411, 413, 414, 416, 417,
                  419, 420, 422, 423, 425, 426, 428, 429, 431, 432, 434, 435,
                  437, 438, 440, 441, 443, 444, 446, 447, 449, 450, 452, 453,
                  455, 456, 458, 459, 461, 462, 464, 465, 467, 468, 470, 471,
                  473, 474, 476, 477, 479, 480, 482, 483, 485, 486, 488, 489,
                  491, 492, 494, 495, 497, 498, 500, 501, 503, 504, 506, 507,
                  509, 510, 512, 513, 515, 516, 518, 519, 521, 522, 524, 525,
                  527, 528, 530, 531, 533, 534, 536, 537, 539, 540, 542, 543,
                  545, 546, 548, 549, 551, 552, 554, 555, 557, 558, 560, 561,
                  563, 564, 566, 567, 569, 570, 572, 573, 575, 576, 578, 579,
                  581, 582, 584, 585, 587, 588, 590, 591, 593, 594, 596, 597,
                  599, 600, 602, 603, 605, 606, 608, 609, 611, 612, 614, 615,
                  617, 618, 620, 621, 623, 624, 626, 627, 629, 630, 632, 633,
                  635, 636, 638, 639, 641, 642, 644, 645, 647, 648, 650, 651,
                  653, 654, 656, 657, 659, 660, 662, 663, 665, 666, 668, 669,
                  671, 672, 674, 675, 677, 678, 680, 681, 683, 684, 686, 687,
                  689, 690, 692, 693, 695, 696, 698, 699, 701, 702, 704, 705,
                  707, 708, 710, 711, 713, 714, 716, 717, 719, 720, 722, 723,
                  725, 726, 728, 729, 731, 732, 734, 735, 737, 738, 740, 741,
                  743, 744, 746, 747, 749, 750, 752, 753, 755, 756

molecular fragmentation (1/2 indicates fragments):
111222222222222222222222222222222222222222222222222222222222222222222222
222222222222222222222222222222222222222222222222222222222222222222222222
222222222222222222222222222222222222222222222222222222222222222222222222
222222222222222222222222222222222222222222222222222222222222222222222222
222222222222222222222222222222222222222222222222222222222222222222222222
222222222222222222222222222222222222222222222222222222222222222222222222
222222222222222222222222222222222222222222222222222222222222222222222222
222222222222222222222222222222222222222222222222222222222222222222222222
222222222222222222222222222222222222222222222222222222222222222222222222
222222222222222222222222222222222222222222222222222222222222222222222222
222222222222222222222222222222222222
# atoms in fragment 1/2:     3   753
 fragment masses (1/2) :       18.02     4521.84
CMA distance (Bohr)    :  17.134
constraining FC (au)   :  0.0500

           -------------------------------------------------
          |                 G F N 2 - x T B                 |
           -------------------------------------------------

        Reference                      10.1021/acs.jctc.8b01176
      * Hamiltonian:
        H0-scaling (s, p, d)           1.850000    2.230000    2.230000
        zeta-weighting                 0.500000
      * Dispersion:
        s8                             2.700000
        a1                             0.520000
        a2                             5.000000
        s9                             5.000000
      * Repulsion:
        kExp                           1.500000    1.000000
        rExp                           1.000000
      * Coulomb:
        alpha                          2.000000
        third order                    shell-resolved
        anisotropic                    true
        a3                             3.000000
        a5                             4.000000
        cn-shift                       1.200000
        cn-exp                         4.000000
        max-rad                        5.000000


          ...................................................
          :                      SETUP                      :
          :.................................................:
          :  # basis functions                1512          :
          :  # atomic orbitals                1512          :
          :  # shells                         1008          :
          :  # electrons                      2016          :
          :  max. iterations                   250          :
          :  Hamiltonian                  GFN2-xTB          :
          :  restarted?                      false          :
          :  GBSA solvation                  false          :
          :  PC potential                    false          :
          :  electronic temp.          300.0000000     K    :
          :  accuracy                    1.0000000          :
          :  -> integral cutoff          0.2500000E+02      :
          :  -> integral neglect         0.1000000E-07      :
          :  -> SCF convergence          0.1000000E-05 Eh   :
          :  -> wf. convergence          0.1000000E-03 e    :
          :  Broyden damping             0.4000000          :
          ...................................................

 iter      E             dE          RMSdq      gap      omega  full diag
   1  -1291.0132967 -0.129101E+04  0.407E+00    8.46       0.0  T
   2  -1291.0839805 -0.706839E-01  0.241E+00    8.37       1.0  T
   3  -1291.1146279 -0.306474E-01  0.208E-01    7.87       1.0  T
   4  -1291.1196246 -0.499669E-02  0.450E-02    8.03       1.0  T
   5  -1291.1196945 -0.699199E-04  0.305E-02    8.01       1.0  T
   6  -1291.1197322 -0.377300E-04  0.407E-03    8.03       1.0  T
   7  -1291.1197344 -0.211439E-05  0.759E-04    8.03       4.8  T
   8  -1291.1197344 -0.327752E-07  0.392E-04    8.03       9.3  T
   9  -1291.1197344 -0.150117E-07  0.615E-05    8.03      59.1  T

   *** convergence criteria satisfied after 9 iterations ***

         #    Occupation            Energy/Eh            Energy/eV
      -------------------------------------------------------------
         1        2.0000           -0.6932981             -18.8656
       ...           ...                  ...                  ...
      1002        2.0000           -0.4066711             -11.0661
      1003        2.0000           -0.4063258             -11.0567
      1004        2.0000           -0.4053440             -11.0300
      1005        2.0000           -0.4051860             -11.0257
      1006        2.0000           -0.4043996             -11.0043
      1007        2.0000           -0.4019889             -10.9387
      1008        2.0000           -0.4002266             -10.8907 (HOMO)
      1009                         -0.1052364              -2.8636 (LUMO)
      1010                         -0.0928690              -2.5271
      1011                         -0.0860951              -2.3428
      1012                         -0.0784099              -2.1336
      1013                         -0.0715426              -1.9468
       ...                                ...                  ...
      1512                          0.4288440              11.6694
      -------------------------------------------------------------
                  HL-Gap            0.2949901 Eh            8.0271 eV
             Fermi-level           -0.2527315 Eh           -6.8772 eV
 
 localization/xTB-IFF output generation
 averaging CT terms over           14  occ. levels
 averaging CT terms over            1  virt. levels
 dipole moment from electron density (au)
     X       Y       Z   
  -6.3911  -0.7833   0.2246  total (Debye):   16.376
cpu  time for init local    0.85 s
wall time for init local    0.46 s
 doing rotations ...
 initialization of trafo matrix to unity

 converged in     16 iterations, threshold :   0.99998778D-06
 doing transformations ...
 lmo centers(Z=2) and atoms on file <lmocent.coord>
 LMO Fii/eV  ncent    charge center   contributions...
    1 LP   *******   0.00  -9.40562  -0.28177  -6.95794  127O : 40.91  445O : 24.89  517O : 23.36   73O : 21.25  337O : 19.87  463O : 19.70  181O : 19.52  532O : 18.43    7O : 18.35  472O : 17.59  424O : 17.34  115O : 16.86
  121O : 16.55  502O : 16.44  598O : 16.32  412O : 15.73  166O : 15.15   19O : 14.78   76O : 14.73  649O : 14.60  184O : 13.49  136O : 13.07  580O : 13.06  313O : 12.92
  661O : 12.83  538O : 12.80   88O : 12.56  334O : 12.49  403O : 12.49  544O : 12.47  679O : 11.90  718O : 11.87  163O : 11.84  688O : 11.68  643O : 11.44  142O : 11.41
  748O : 11.34  553O : 11.09  256O : 11.06  172O : 10.97  229O : 10.87  646O : 10.84  100O : 10.65  199O : 10.23  487O : 10.20  541O : 10.15  448O :  9.98  682O :  9.97
  151O :  9.78  379O :  9.66  619O :  9.65  670O :  9.48  703O :  9.44  157O :  9.30  250O :  8.99  241O :  8.91   10O :  8.65  475O :  8.58  730O :  8.47  427O :  8.36
  220O :  8.35  658O :  8.29  364O :  8.27  535O :  8.20  442O :  8.16  481O :  8.05  223O :  8.00  304O :  7.93  604O :  7.87  478O :  7.85  550O :  7.68  343O :  7.68
  685O :  7.37  238O :  7.30  139O :  7.10  655O :  7.06   13O :  7.06  625O :  7.00  457O :  6.81  301O :  6.76  490O :  6.54  526O :  6.52  556O :  6.51  214O :  6.45
  634O :  6.39   25O :  6.25  178O :  6.24  331O :  6.15   34O :  6.13  589O :  6.08  196O :  5.88  265O :  5.88  286O :  5.86  727O :  5.82  433O :  5.81   97O :  5.77
  709O :  5.51  469O :  5.48   28O :  5.42   79O :  5.39  568O :  5.35  295O :  5.29  694O :  5.29  391O :  5.29  715O :  5.21   61O :  5.21  316O :  5.15  307O :  5.13
  298O :  5.10  154O :  5.08  505O :  5.00  628O :  4.98   16O :  4.90  232O :  4.83  421O :  4.75  664O :  4.73  529O :  4.70  322O :  4.69  607O :  4.69  610O :  4.68
  637O :  4.62  691O :  4.60  436O :  4.55  280O :  4.51  493O :  4.43  373O :  4.42  244O :  4.41  148O :  4.39  325O :  4.39  520O :  4.35   31O :  4.32  616O :  4.31
   94O :  4.30  562O :  4.25  175O :  4.25  340O :  4.23  289O :  4.13  400O :  4.13  721O :  4.04  565O :  3.85  382O :  3.84  355O :  3.82  397O :  3.76   22O :  3.76
  583O :  3.75  601O :  3.74  376O :  3.73  211O :  3.66   67O :  3.64   55O :  3.60   43O :  3.55  193O :  3.54   91O :  3.51  499O :  3.37   49O :  3.34  754O :  3.33
  736O :  3.27  595O :  3.23  697O :  3.19  208O :  3.19  559O :  3.11  418O :  3.02  292O :  3.01  370O :  2.98  145O :  2.98  190O :  2.97  454O :  2.97  187O :  2.94
  106O :  2.94  571O :  2.93  319O :  2.92  460O :  2.87  109O :  2.86  676O :  2.84  430O :  2.83  367O :  2.80  226O :  2.80  205O :  2.77  673O :  2.66    1O :  2.64
  259O :  2.64  592O :  2.63  169O :  2.60  283O :  2.58  660H :  2.57  466O :  2.57   85O :  2.57  385O :  2.56  451O :  2.54  652O :  2.54  352O :  2.49  262O :  2.43
   21H :  2.42  742O :  2.42  657H :  2.40   37O :  2.34   64O :  2.32   58O :  2.26  613O :  2.22  346O :  2.15  586O :  2.12  749H :  2.11  622O :  2.05  271O :  2.04
  439O :  1.98  406O :  1.89  415O :  1.89  518H :  1.88   89H :  1.87  133O :  1.85  751O :  1.80  552H :  1.78  112O :  1.77  712O :  1.77  547O :  1.77  700O :  1.72
   46O :  1.66  561H :  1.66  253O :  1.64  130O :  1.62  274O :  1.59  582H :  1.59   40O :  1.58  745O :  1.51  577O :  1.51  197H :  1.51  174H :  1.51  394O :  1.49
  706O :  1.47  488H :  1.46  328O :  1.45  508O :  1.43  308H :  1.42  268O :  1.41  277O :  1.39  690H :  1.33  459H :  1.29  574O :  1.29  185H :  1.28  215H :  1.24
  251H :  1.23   70O :  1.21  235O :  1.19  423H :  1.17    4O :  1.15  361O :  1.13  667O :  1.12  733O :  1.12  719H :  1.11  222H :  1.10  527H :  1.10  288H :  1.08
  380H :  1.07  729H :  1.06  731H :  1.05  514O :  1.05  189H :  1.05  201H :  1.04  294H :  1.03  554H :  1.03  138H :  1.02  354H :  0.99  551H :  0.99  409O :  0.98
  124O :  0.98  182H :  0.98  511O :  0.96  666H :  0.96  155H :  0.96   82O :  0.96  464H :  0.96  118O :  0.94  324H :  0.90  473H :  0.90  234H :  0.89  147H :  0.89
  103O :  0.89  176H :  0.86  332H :  0.84  631O :  0.83  228H :  0.81  465H :  0.78   26H :  0.77  137H :  0.76  489H :  0.75  217O :  0.75  572H :  0.74   74H :  0.74
   99H :  0.73  449H :  0.73  314H :  0.73  310O :  0.69  496O :  0.69  476H :  0.68  358O :  0.68  383H :  0.68  523O :  0.68  140H :  0.67   52O :  0.67  315H :  0.67
  388O :  0.66  207H :  0.66  705H :  0.64  255H :  0.62  371H :  0.62  533H :  0.62  639H :  0.62  716H :  0.62  717H :  0.61  374H :  0.60  443H :  0.59  648H :  0.59
  202O :  0.58  152H :  0.58  269H :  0.58  349O :  0.58  564H :  0.58  484O :  0.57  309H :  0.56  621H :  0.56  393H :  0.56  680H :  0.55  233H :  0.54  603H :  0.53
  674H :  0.53  299H :  0.53  450H :  0.52   66H :  0.52  614H :  0.51  516H :  0.50  242H :  0.49  470H :  0.49  287H :  0.48  491H :  0.47  247O :  0.47  386H :  0.47
  336H :  0.47  743H :  0.47   69H :  0.47  164H :  0.46  653H :  0.46  344H :  0.46  320H :  0.46   45H :  0.45  545H :  0.45  497H :  0.44  422H :  0.44  638H :  0.44
  102H :  0.43  482H :  0.43  617H :  0.43  671H :  0.43  432H :  0.43  739O :  0.42  663H :  0.42   36H :  0.41  438H :  0.41  506H :  0.41  540H :  0.41  390H :  0.41
  683H :  0.40   90H :  0.40  486H :  0.40   75H :  0.40   92H :  0.39  170H :  0.39   72H :  0.38  323H :  0.38   57H :  0.37  548H :  0.37  626H :  0.37  753H :  0.36
  702H :  0.36  687H :  0.36  402H :  0.36  258H :  0.36  724O :  0.35  474H :  0.35  444H :  0.35  159H :  0.35   15H :  0.35   77H :  0.35  495H :  0.35  132H :  0.34
  330H :  0.34  483H :  0.33  149H :  0.33   11H :  0.33  435H :  0.33  455H :  0.33  573H :  0.33  689H :  0.33  225H :  0.32  117H :  0.32  477H :  0.32  141H :  0.32
  629H :  0.31  471H :  0.31  624H :  0.31  392H :  0.31  167H :  0.30   48H :  0.30  366H :  0.30  212H :  0.30  240H :  0.30  618H :  0.30   30H :  0.30   32H :  0.30
   53H :  0.29  515H :  0.29  356H :  0.28   39H :  0.28  555H :  0.28  160O :  0.28  647H :  0.27  704H :  0.27  126H :  0.27  119H :  0.27  414H :  0.27  195H :  0.27
  462H :  0.27   35H :  0.27  342H :  0.26   51H :  0.26  144H :  0.26  635H :  0.26  605H :  0.26  566H :  0.26  446H :  0.26  420H :  0.26  329H :  0.25  503H :  0.25
  156H :  0.25  413H :  0.25  534H :  0.24  116H :  0.24  636H :  0.24  452H :  0.23  640O :  0.23  165H :  0.23  270H :  0.23  456H :  0.23  627H :  0.22  468H :  0.22
   27H :  0.22  546H :  0.22  302H :  0.21  326H :  0.21  318H :  0.21  737H :  0.21  675H :  0.21   93H :  0.21  131H :  0.21  206H :  0.20  612H :  0.20   86H :  0.20
  441H :  0.20  279H :  0.20  609H :  0.19  125H :  0.19  398H :  0.19  732H :  0.19  620H :  0.19  108H :  0.19  266H :  0.19  275H :  0.19  467H :  0.18  381H :  0.18
  480H :  0.18  282H :  0.18   98H :  0.17  360H :  0.17  281H :  0.17  600H :  0.17  642H :  0.17  654H :  0.17   44H :  0.17  695H :  0.17  110H :  0.16  447H :  0.16
   24H :  0.16  327H :  0.16  408H :  0.16  209H :  0.16  698H :  0.16   59H :  0.16  353H :  0.16  333H :  0.16  218H :  0.15  369H :  0.15  509H :  0.15  150H :  0.15
   96H :  0.15  293H :  0.15  257H :  0.15  524H :  0.15  261H :  0.15  560H :  0.14  410H :  0.14  114H :  0.14  458H :  0.14  341H :  0.14   20H :  0.14  317H :  0.14
  143H :  0.14  668H :  0.14  426H :  0.14  128H :  0.14  711H :  0.13  537H :  0.13  720H :  0.13  632H :  0.13  216H :  0.13  276H :  0.13   29H :  0.13  722H :  0.13
  348H :  0.13  578H :  0.13  177H :  0.13  431H :  0.12  591H :  0.12  401H :  0.12  134H :  0.12  404H :  0.12  500H :  0.12   18H :  0.12  339H :  0.11  611H :  0.11
  351H :  0.11  686H :  0.11  378H :  0.11  123H :  0.11  513H :  0.11  602H :  0.11  696H :  0.10  569H :  0.10   23H :  0.10  692H :  0.10  272H :  0.10  440H :  0.10
  707H :  0.10  321H :  0.10  347H :  0.10  596H :  0.10  203H :  0.09  543H :  0.09  135H :  0.09  246H :  0.09  536H :  0.09  522H :  0.09  672H :  0.09   68H :  0.09
  107H :  0.09    3H :  0.09  750H :  0.09  359H :  0.09  303H :  0.09  300H :  0.09  101H :  0.09   84H :  0.09  651H :  0.08  597H :  0.08   12H :  0.08  662H :  0.08
  558H :  0.08  504H :  0.08   14H :  0.08  701H :  0.08  746H :  0.08  395H :  0.08   80H :  0.08  419H :  0.07  501H :  0.07  363H :  0.07
    2 LP   *******   0.00  73.63768 -22.57864  42.95208  127O : 32.99  445O : 24.35  517O : 20.10   73O : 18.28  337O : 17.09  463O : 16.94  181O : 16.79  532O : 15.85    7O : 15.78  472O : 15.14  424O : 14.92  115O : 14.49
  121O : 14.23  502O : 14.15  598O : 14.04  412O : 13.53   76O : 13.42  166O : 13.04   19O : 12.73  649O : 12.56  184O : 11.48  136O : 11.25  580O : 11.24  313O : 11.11
  661O : 11.04  538O : 11.01   88O : 10.81  334O : 10.75  403O : 10.75  544O : 10.71  679O : 10.24  718O : 10.21  163O : 10.19  688O : 10.04  643O :  9.84  142O :  9.82
  748O :  9.75  553O :  9.54  256O :  9.51  172O :  9.44  229O :  9.35  646O :  9.33  100O :  9.15  199O :  8.80  487O :  8.78  541O :  8.73  448O :  8.59  682O :  8.58
  151O :  8.42  379O :  8.31  619O :  8.30  670O :  8.15  703O :  8.12  157O :  8.00  250O :  7.74  241O :  7.67   10O :  7.44  475O :  7.38  730O :  7.29  427O :  7.19
  220O :  7.19  658O :  7.13  364O :  7.12  535O :  7.05  442O :  7.02  481O :  6.92  223O :  6.88  304O :  6.82  604O :  6.77  478O :  6.75  550O :  6.60  343O :  6.60
  685O :  6.34  238O :  6.26  139O :  6.11   13O :  6.08  655O :  6.08  625O :  5.97  457O :  5.86  301O :  5.81  490O :  5.63  526O :  5.61  556O :  5.60  214O :  5.55
  634O :  5.50   25O :  5.38  178O :  5.37  331O :  5.29   34O :  5.28  589O :  5.11  196O :  5.06  265O :  5.06  286O :  5.04  727O :  5.01  433O :  4.99   97O :  4.96
  709O :  4.74  469O :  4.71   28O :  4.66   79O :  4.64  568O :  4.60  295O :  4.56  391O :  4.55  694O :  4.55  715O :  4.48   61O :  4.47  316O :  4.43  307O :  4.42
  298O :  4.39  154O :  4.37  505O :  4.30  628O :  4.28  664O :  4.24   16O :  4.21  232O :  4.16  421O :  4.09  529O :  4.04  322O :  4.04  607O :  4.03  610O :  4.03
  280O :  4.01  637O :  3.98  691O :  3.95  436O :  3.92  493O :  3.81  373O :  3.80  244O :  3.80  325O :  3.77  520O :  3.75  616O :  3.72   31O :  3.72   94O :  3.70
  148O :  3.69  175O :  3.66  562O :  3.65  340O :  3.64  289O :  3.56  400O :  3.55  721O :  3.48  565O :  3.31  382O :  3.31  355O :  3.28  397O :  3.23   22O :  3.23
  583O :  3.23  601O :  3.22  376O :  3.21  211O :  3.14   67O :  3.13   55O :  3.09   43O :  3.05  193O :  3.05   91O :  3.02   49O :  2.92  499O :  2.90  754O :  2.87
  736O :  2.81  595O :  2.78  697O :  2.75  208O :  2.75  559O :  2.67  292O :  2.59  418O :  2.59  370O :  2.56  145O :  2.56  190O :  2.55  454O :  2.55  187O :  2.53
  106O :  2.53  571O :  2.52  319O :  2.51  460O :  2.47  109O :  2.46  676O :  2.44  430O :  2.43  367O :  2.41  226O :  2.41  205O :  2.39  673O :  2.28    1O :  2.28
  259O :  2.27  592O :  2.26  169O :  2.23  283O :  2.22  660H :  2.21  466O :  2.21   85O :  2.21  385O :  2.21  451O :  2.19  652O :  2.18  352O :  2.18  262O :  2.09
  742O :  2.08   21H :  2.08  657H :  2.06   37O :  2.01   64O :  2.00   58O :  1.95  613O :  1.91  346O :  1.86  586O :  1.83  749H :  1.81  622O :  1.76  271O :  1.75
  439O :  1.72  406O :  1.63  415O :  1.62  518H :  1.62   89H :  1.61  133O :  1.59  751O :  1.55  552H :  1.53  712O :  1.53  112O :  1.53  547O :  1.52  700O :  1.48
   46O :  1.43  561H :  1.43  253O :  1.41  130O :  1.39  274O :  1.37  582H :  1.37   40O :  1.36  577O :  1.31  745O :  1.30  197H :  1.30  174H :  1.30  394O :  1.28
  706O :  1.27  488H :  1.26  328O :  1.25  508O :  1.23  308H :  1.22  268O :  1.21  277O :  1.19  690H :  1.14  459H :  1.11  574O :  1.11  215H :  1.07  251H :  1.06
   70O :  1.04  185H :  1.02  235O :  1.02  423H :  1.01    4O :  0.99  361O :  0.97  667O :  0.97  733O :  0.97  719H :  0.96  222H :  0.95  527H :  0.94  288H :  0.93
  380H :  0.92  729H :  0.91  731H :  0.90  514O :  0.90  189H :  0.90  201H :  0.89  294H :  0.89  554H :  0.89  138H :  0.88  666H :  0.86  354H :  0.85  551H :  0.85
  409O :  0.85  124O :  0.85  182H :  0.84  511O :  0.83  155H :  0.82  464H :  0.82   82O :  0.82  118O :  0.81  324H :  0.77  473H :  0.77  234H :  0.77  103O :  0.76
  147H :  0.76  176H :  0.74  332H :  0.72  631O :  0.71  228H :  0.70  465H :  0.67   26H :  0.66  137H :  0.65  489H :  0.64  217O :  0.64  572H :  0.64   74H :  0.63
   99H :  0.63  449H :  0.63  314H :  0.63  310O :  0.60  496O :  0.59  358O :  0.59  476H :  0.59  383H :  0.59  523O :  0.58   52O :  0.58  140H :  0.58  315H :  0.57
  388O :  0.57  207H :  0.56  705H :  0.55  255H :  0.54  371H :  0.54  533H :  0.53  639H :  0.53  716H :  0.53  717H :  0.53  374H :  0.52  443H :  0.51  648H :  0.50
  202O :  0.50  152H :  0.50  269H :  0.50  349O :  0.50  564H :  0.50  484O :  0.49  309H :  0.49  621H :  0.49  393H :  0.48  680H :  0.48   77H :  0.47  233H :  0.46
  603H :  0.46  674H :  0.45  299H :  0.45  450H :  0.45   66H :  0.44  614H :  0.44  516H :  0.43  242H :  0.42  470H :  0.42  287H :  0.41  491H :  0.41  336H :  0.41
  247O :  0.41  386H :  0.40  743H :  0.40   69H :  0.40  320H :  0.40  164H :  0.40  653H :  0.40  344H :  0.40   45H :  0.39  545H :  0.38  497H :  0.38  422H :  0.38
  102H :  0.38  638H :  0.38  482H :  0.37  617H :  0.37  671H :  0.37  432H :  0.37  739O :  0.36  663H :  0.36   36H :  0.36  438H :  0.35  506H :  0.35  540H :  0.35
  390H :  0.35  683H :  0.35   90H :  0.35  486H :  0.34   75H :  0.34   92H :  0.34  170H :  0.34   72H :  0.33  323H :  0.33  548H :  0.32   57H :  0.32  626H :  0.31
  753H :  0.31  702H :  0.31  687H :  0.31  402H :  0.31  258H :  0.31  724O :  0.31  474H :  0.30  444H :  0.30  159H :  0.30   15H :  0.30  495H :  0.30  132H :  0.30
  330H :  0.29  483H :  0.29   11H :  0.29  435H :  0.28  149H :  0.28  455H :  0.28  573H :  0.28  689H :  0.28  225H :  0.28  618H :  0.28  117H :  0.27  477H :  0.27
  141H :  0.27  629H :  0.27  471H :  0.27  624H :  0.27  392H :  0.26   48H :  0.26  167H :  0.26  212H :  0.26  366H :  0.26  240H :  0.26   30H :  0.26   32H :  0.26
   53H :  0.25  515H :  0.25  356H :  0.24   39H :  0.24  555H :  0.24  160O :  0.24  647H :  0.24  126H :  0.24  704H :  0.24  414H :  0.23  119H :  0.23  195H :  0.23
   51H :  0.23  462H :  0.23   35H :  0.23  342H :  0.23  144H :  0.23  635H :  0.22  605H :  0.22  566H :  0.22  420H :  0.22  329H :  0.22  503H :  0.22  156H :  0.22
  413H :  0.22  627H :  0.21  534H :  0.21  116H :  0.21  636H :  0.20  452H :  0.20  640O :  0.20  165H :  0.19  270H :  0.19  456H :  0.19  468H :  0.19   27H :  0.19
  546H :  0.19  302H :  0.18  326H :  0.18  318H :  0.18  737H :  0.18  441H :  0.18  675H :  0.18   93H :  0.18  131H :  0.18  206H :  0.18  612H :  0.18   86H :  0.17
  275H :  0.17  279H :  0.17  446H :  0.17  609H :  0.17  125H :  0.17  398H :  0.17  732H :  0.16  620H :  0.16  108H :  0.16  266H :  0.16  467H :  0.16  381H :  0.16
  128H :  0.15  480H :  0.15  282H :  0.15   98H :  0.15  360H :  0.15  600H :  0.15  281H :  0.14  642H :  0.14  654H :  0.14   44H :  0.14  695H :  0.14  110H :  0.14
   24H :  0.14  327H :  0.14  408H :  0.14  209H :  0.14  698H :  0.13   59H :  0.13  333H :  0.13  218H :  0.13  369H :  0.13  509H :  0.13  353H :  0.13  150H :  0.13
   96H :  0.13  293H :  0.13  257H :  0.13  524H :  0.13  261H :  0.13  560H :  0.12  410H :  0.12  114H :  0.12  458H :  0.12  341H :  0.12   20H :  0.12  317H :  0.12
  143H :  0.12  668H :  0.12  426H :  0.12  711H :  0.12  537H :  0.12  720H :  0.11  632H :  0.11  578H :  0.11  216H :  0.11   29H :  0.11  276H :  0.11  722H :  0.11
  348H :  0.11  177H :  0.11  431H :  0.10  401H :  0.10  134H :  0.10  404H :  0.10  591H :  0.10  500H :  0.10   18H :  0.10  339H :  0.10  611H :  0.10  447H :  0.10
  351H :  0.10  686H :  0.09  378H :  0.09  123H :  0.09  602H :  0.09  513H :  0.09  696H :  0.09  569H :  0.09   23H :  0.09  692H :  0.09  272H :  0.09  321H :  0.08
  707H :  0.08  440H :  0.08  347H :  0.08  596H :  0.08  203H :  0.08  543H :  0.08  135H :  0.08  246H :  0.08  536H :  0.08  522H :  0.08  672H :  0.08   68H :  0.08
    3H :  0.08  107H :  0.08  750H :  0.08  359H :  0.08  303H :  0.08  101H :  0.07  300H :  0.07   84H :  0.07  651H :  0.07  597H :  0.07
    3 LP   *******   0.00 -27.59110  39.82293  20.87139  127O : 30.11  517O : 22.25  445O : 19.54   73O : 16.68  337O : 15.59  463O : 15.46  181O : 15.32  532O : 14.46    7O : 14.40  472O : 13.81  424O : 13.61  115O : 13.22
  121O : 12.99  502O : 12.90  598O : 12.81  412O : 12.36   76O : 12.25  166O : 11.89   19O : 11.60  649O : 11.46  184O : 10.48  136O : 10.26  580O : 10.25  313O : 10.14
  661O : 10.07  538O : 10.05   88O :  9.86  334O :  9.81  403O :  9.80  544O :  9.78  679O :  9.34  718O :  9.32  163O :  9.30  688O :  9.16  643O :  8.98  142O :  8.96
  748O :  8.90  553O :  8.71  256O :  8.68  172O :  8.61  229O :  8.53  646O :  8.51  100O :  8.36  199O :  8.03  487O :  8.01  541O :  7.97  448O :  7.84  682O :  7.83
  151O :  7.68  379O :  7.59  619O :  7.58  670O :  7.42  703O :  7.41  157O :  7.30  250O :  7.06  241O :  7.00   10O :  6.79  475O :  6.73  730O :  6.65  427O :  6.56
  220O :  6.56  658O :  6.51  364O :  6.49  535O :  6.43  442O :  6.41  481O :  6.31  223O :  6.27  304O :  6.22  604O :  6.18  478O :  6.16  550O :  6.03  343O :  6.03
  685O :  5.79  238O :  5.71  139O :  5.57   13O :  5.54  655O :  5.54  625O :  5.49  457O :  5.34  301O :  5.30  490O :  5.13  526O :  5.12  556O :  5.11  214O :  5.06
  634O :  5.01   25O :  4.91  178O :  4.90  331O :  4.83   34O :  4.82  589O :  4.77  196O :  4.62  265O :  4.61  286O :  4.60  727O :  4.57  433O :  4.56   97O :  4.53
  709O :  4.32  469O :  4.30   28O :  4.25   79O :  4.23  568O :  4.20  295O :  4.16  694O :  4.15  391O :  4.15  715O :  4.09   61O :  4.08  316O :  4.04  307O :  4.03
  298O :  4.00  154O :  3.99  505O :  3.92  628O :  3.91  664O :  3.87   16O :  3.84  232O :  3.79  421O :  3.73  529O :  3.69  322O :  3.68  607O :  3.68  610O :  3.68
  280O :  3.66  637O :  3.63  691O :  3.61  436O :  3.57  493O :  3.48  373O :  3.47  244O :  3.46  520O :  3.42   31O :  3.39  616O :  3.38   94O :  3.38  148O :  3.37
  325O :  3.35  175O :  3.34  562O :  3.33  340O :  3.32  289O :  3.25  400O :  3.24  721O :  3.17  565O :  3.02  382O :  3.02  355O :  3.00   22O :  2.95  583O :  2.94
  601O :  2.93  376O :  2.93  397O :  2.88  211O :  2.87   67O :  2.86   55O :  2.82   43O :  2.79  193O :  2.78   91O :  2.75   49O :  2.67  499O :  2.64  754O :  2.62
  736O :  2.56  595O :  2.53  697O :  2.51  208O :  2.51  559O :  2.44  292O :  2.37  418O :  2.36  370O :  2.34  145O :  2.34  190O :  2.33  454O :  2.33  187O :  2.31
  106O :  2.30  571O :  2.30  319O :  2.29  460O :  2.26  109O :  2.24  676O :  2.23  430O :  2.22  367O :  2.20  226O :  2.20  205O :  2.18  673O :  2.08    1O :  2.08
  259O :  2.07  592O :  2.07  169O :  2.04  385O :  2.03  283O :  2.02  660H :  2.02  466O :  2.02   85O :  2.01  451O :  1.99  652O :  1.99  352O :  1.95  262O :  1.90
   21H :  1.90  742O :  1.90  657H :  1.88   37O :  1.84   64O :  1.82   58O :  1.78  613O :  1.75  346O :  1.70  586O :  1.67  749H :  1.66  622O :  1.61  271O :  1.60
  439O :  1.55  406O :  1.48  415O :  1.48   89H :  1.47  133O :  1.45  751O :  1.41  712O :  1.39  552H :  1.39  112O :  1.39  700O :  1.35  518H :  1.34  547O :  1.33
   46O :  1.31  561H :  1.30  253O :  1.28  130O :  1.27  274O :  1.25  582H :  1.25   40O :  1.24  577O :  1.20  745O :  1.19  197H :  1.18  174H :  1.18  394O :  1.17
  706O :  1.16  488H :  1.15  328O :  1.14  508O :  1.13  308H :  1.12  268O :  1.11  277O :  1.09  690H :  1.04  459H :  1.01  574O :  1.01  215H :  0.97  251H :  0.96
   70O :  0.95  185H :  0.93  235O :  0.93  423H :  0.92    4O :  0.90  361O :  0.89  667O :  0.88  733O :  0.88  719H :  0.87  222H :  0.86  527H :  0.86  288H :  0.85
  380H :  0.84  729H :  0.83  731H :  0.83  514O :  0.82  189H :  0.82  201H :  0.81  294H :  0.81  554H :  0.81  138H :  0.80  666H :  0.79  354H :  0.78  551H :  0.77
  124O :  0.77  182H :  0.77  409O :  0.76  511O :  0.75  155H :  0.75  464H :  0.75   82O :  0.75  118O :  0.74  324H :  0.71  473H :  0.70  234H :  0.70  147H :  0.70
  103O :  0.70  176H :  0.67  332H :  0.66  631O :  0.65  228H :  0.64  465H :  0.61   26H :  0.60  137H :  0.59  489H :  0.59  217O :  0.59  572H :  0.58   74H :  0.58
   99H :  0.57  449H :  0.57  314H :  0.57  310O :  0.54  496O :  0.54  476H :  0.54  358O :  0.54  383H :  0.54  523O :  0.53   52O :  0.53  140H :  0.53  315H :  0.52
  388O :  0.52  207H :  0.51  705H :  0.50  255H :  0.49  371H :  0.49  716H :  0.48  639H :  0.48  533H :  0.48  717H :  0.48  374H :  0.47  443H :  0.46  648H :  0.46
  202O :  0.46  152H :  0.46  269H :  0.46  349O :  0.46  564H :  0.45  484O :  0.45  309H :  0.44  621H :  0.44  393H :  0.44  680H :  0.43   77H :  0.43  233H :  0.42
  603H :  0.42  674H :  0.41  299H :  0.41  450H :  0.41   66H :  0.41  614H :  0.40  516H :  0.39  242H :  0.39  470H :  0.38  287H :  0.38  491H :  0.37  336H :  0.37
  247O :  0.37  386H :  0.37  743H :  0.37   69H :  0.37  320H :  0.36  164H :  0.36  653H :  0.36  344H :  0.36   45H :  0.35  545H :  0.35  497H :  0.35  422H :  0.34
  638H :  0.34  102H :  0.34  482H :  0.34  617H :  0.34  432H :  0.33  739O :  0.33  663H :  0.33  671H :  0.33   36H :  0.32  438H :  0.32  506H :  0.32  540H :  0.32
  390H :  0.32  683H :  0.32   90H :  0.32  486H :  0.31   75H :  0.31   92H :  0.31  170H :  0.31   72H :  0.30  323H :  0.30   57H :  0.29  548H :  0.29  626H :  0.29
  753H :  0.29  702H :  0.28  687H :  0.28  402H :  0.28  258H :  0.28  724O :  0.28  474H :  0.28  444H :  0.28  159H :  0.28   15H :  0.27  495H :  0.27  132H :  0.27
  330H :  0.27  483H :  0.26   11H :  0.26  435H :  0.26  149H :  0.26  455H :  0.26  573H :  0.26  689H :  0.26  117H :  0.25  477H :  0.25  225H :  0.25  141H :  0.25
  629H :  0.25  471H :  0.25  624H :  0.24  392H :  0.24   48H :  0.24  167H :  0.24  212H :  0.24  366H :  0.24  240H :  0.24  618H :  0.23   30H :  0.23   32H :  0.23
   53H :  0.23  515H :  0.23  356H :  0.22   39H :  0.22  555H :  0.22  160O :  0.22  647H :  0.22  126H :  0.21  704H :  0.21  414H :  0.21  119H :  0.21  195H :  0.21
   51H :  0.21  462H :  0.21   35H :  0.21  342H :  0.21  144H :  0.21  605H :  0.20  635H :  0.20  566H :  0.20  420H :  0.20  446H :  0.20  329H :  0.20  503H :  0.20
  156H :  0.20  413H :  0.20  534H :  0.19  116H :  0.19  636H :  0.18  452H :  0.18  640O :  0.18  270H :  0.18  165H :  0.18  456H :  0.18  627H :  0.17  468H :  0.17
   27H :  0.17  546H :  0.17  302H :  0.17  318H :  0.17  326H :  0.17  737H :  0.16  675H :  0.16   93H :  0.16  131H :  0.16  206H :  0.16  612H :  0.16   86H :  0.16
  441H :  0.16  279H :  0.16  609H :  0.15  125H :  0.15  732H :  0.15  398H :  0.15  620H :  0.15  108H :  0.15  266H :  0.15  275H :  0.15  467H :  0.14  381H :  0.14
  128H :  0.14  480H :  0.14  282H :  0.14   98H :  0.14  360H :  0.13  600H :  0.13  281H :  0.13  654H :  0.13  642H :  0.13   44H :  0.13  695H :  0.13  110H :  0.13
  447H :  0.13   24H :  0.13  408H :  0.13  327H :  0.12  209H :  0.12  698H :  0.12   59H :  0.12  353H :  0.12  333H :  0.12  218H :  0.12  369H :  0.12  509H :  0.12
  150H :  0.12  257H :  0.12  293H :  0.12   96H :  0.12  524H :  0.11  261H :  0.11  560H :  0.11  114H :  0.11  458H :  0.11  341H :  0.11   20H :  0.11  317H :  0.11
  143H :  0.11  668H :  0.11  426H :  0.11  711H :  0.11  537H :  0.11  720H :  0.10  632H :  0.10  578H :  0.10  216H :  0.10  276H :  0.10   29H :  0.10  722H :  0.10
  348H :  0.10  177H :  0.10  672H :  0.10  431H :  0.10  410H :  0.09  591H :  0.09  401H :  0.09  134H :  0.09  500H :  0.09  404H :  0.09   18H :  0.09  339H :  0.09
  611H :  0.09  351H :  0.09  686H :  0.09  378H :  0.09  123H :  0.09  602H :  0.08  513H :  0.08  696H :  0.08   23H :  0.08  569H :  0.08  692H :  0.08  272H :  0.08
  440H :  0.08  707H :  0.08  321H :  0.08  347H :  0.08  596H :  0.07  203H :  0.07  543H :  0.07  135H :  0.07  246H :  0.07  536H :  0.07  522H :  0.07   68H :  0.07
    3H :  0.07  107H :  0.07  750H :  0.07
    4 LP   *******   0.00 -30.90967  34.35008  -8.03970  127O : 27.95  445O : 18.14  517O : 17.03  532O : 16.36   73O : 15.49  337O : 14.48  463O : 14.36  181O : 14.23    7O : 13.37  472O : 12.82  424O : 12.64  115O : 12.28
  121O : 12.06  502O : 11.99  598O : 11.89  412O : 11.48   76O : 11.37  166O : 11.04   19O : 10.77  649O : 10.64  184O :  9.72  136O :  9.53  580O :  9.52  313O :  9.41
  661O :  9.35  538O :  9.33   88O :  9.16  334O :  9.11  403O :  9.11  544O :  9.08  679O :  8.67  718O :  8.65  163O :  8.63  688O :  8.51  643O :  8.34  142O :  8.32
  748O :  8.26  553O :  8.08  256O :  8.06  172O :  7.99  229O :  7.92  646O :  7.90  100O :  7.76  199O :  7.45  487O :  7.43  541O :  7.40  448O :  7.28  682O :  7.27
  151O :  7.13  379O :  7.04  619O :  7.03  670O :  6.91  703O :  6.88  157O :  6.78  250O :  6.55  241O :  6.50   10O :  6.30  475O :  6.25  730O :  6.17  427O :  6.09
  220O :  6.09  658O :  6.04  364O :  6.03  535O :  5.97  442O :  5.95  481O :  5.87  223O :  5.85  304O :  5.78  604O :  5.74  478O :  5.72  550O :  5.60  343O :  5.59
  685O :  5.37  238O :  5.30  139O :  5.17  655O :  5.15   13O :  5.15  625O :  5.10  457O :  4.96  301O :  4.93  490O :  4.77  526O :  4.75  556O :  4.75  214O :  4.70
  634O :  4.66   25O :  4.56  178O :  4.55  331O :  4.48   34O :  4.47  589O :  4.43  196O :  4.29  265O :  4.28  286O :  4.27  727O :  4.24  433O :  4.23   97O :  4.21
  709O :  4.01  469O :  3.99   28O :  3.95   79O :  3.93  568O :  3.90  295O :  3.86  694O :  3.85  391O :  3.85  715O :  3.79   61O :  3.79  316O :  3.76  307O :  3.74
  298O :  3.72  154O :  3.70  505O :  3.64  628O :  3.63  664O :  3.59   16O :  3.57  232O :  3.52  421O :  3.47  529O :  3.42  322O :  3.42  607O :  3.42  610O :  3.41
  280O :  3.40  637O :  3.37  691O :  3.35  436O :  3.32  493O :  3.23  373O :  3.22  244O :  3.22  325O :  3.20  520O :  3.17   31O :  3.15  616O :  3.14   94O :  3.14
  148O :  3.13  562O :  3.10  175O :  3.10  340O :  3.08  289O :  3.02  400O :  3.01  721O :  2.94  565O :  2.81  382O :  2.80  355O :  2.78   22O :  2.74  397O :  2.74
  583O :  2.73  601O :  2.72  376O :  2.72  211O :  2.66   67O :  2.65   55O :  2.63   43O :  2.59  193O :  2.58   91O :  2.56   49O :  2.48  499O :  2.45  754O :  2.43
  736O :  2.38  595O :  2.35  697O :  2.33  208O :  2.33  559O :  2.27  418O :  2.20  292O :  2.20  370O :  2.17  145O :  2.17  190O :  2.16  454O :  2.16  187O :  2.14
  106O :  2.14  571O :  2.13  319O :  2.13  460O :  2.09  109O :  2.08  676O :  2.07  430O :  2.06  367O :  2.04  226O :  2.04  205O :  2.02  673O :  1.93    1O :  1.93
  259O :  1.92  592O :  1.92  169O :  1.89  283O :  1.88  660H :  1.87   85O :  1.87  466O :  1.87  385O :  1.87  451O :  1.85  652O :  1.85  352O :  1.81  262O :  1.77
   21H :  1.76  742O :  1.76  657H :  1.75   37O :  1.71   64O :  1.69   58O :  1.65  613O :  1.62  346O :  1.57  586O :  1.55  749H :  1.54  622O :  1.49  271O :  1.49
  439O :  1.44  406O :  1.38  415O :  1.37  518H :  1.37   89H :  1.36  133O :  1.35  751O :  1.31  552H :  1.29  112O :  1.29  712O :  1.29  547O :  1.29  700O :  1.25
   46O :  1.21  561H :  1.21  253O :  1.19  130O :  1.18  274O :  1.16  582H :  1.16   40O :  1.15  577O :  1.11  745O :  1.10  197H :  1.10  174H :  1.10  394O :  1.08
  706O :  1.07  488H :  1.06  328O :  1.06  508O :  1.04  308H :  1.04  268O :  1.03  277O :  1.01  690H :  0.97  459H :  0.94  574O :  0.94  215H :  0.90  251H :  0.89
   70O :  0.88  185H :  0.87  235O :  0.86  733O :  0.86  423H :  0.85    4O :  0.84  361O :  0.82  667O :  0.82  719H :  0.81  222H :  0.80  527H :  0.80  288H :  0.79
  380H :  0.78  729H :  0.77  731H :  0.77  514O :  0.77  189H :  0.76  201H :  0.76  294H :  0.75  554H :  0.75  138H :  0.75  666H :  0.73  354H :  0.72  551H :  0.72
  124O :  0.72  182H :  0.71  155H :  0.70  464H :  0.70   82O :  0.70  511O :  0.70  118O :  0.68  409O :  0.68  324H :  0.66  473H :  0.65  234H :  0.65  147H :  0.65
  103O :  0.65  176H :  0.63  332H :  0.61  631O :  0.60  228H :  0.59  465H :  0.57   26H :  0.56  137H :  0.55  489H :  0.55  217O :  0.54  572H :  0.54   74H :  0.54
   99H :  0.53  449H :  0.53  314H :  0.53  310O :  0.50  496O :  0.50  476H :  0.50  358O :  0.50  383H :  0.50  523O :  0.50   52O :  0.49  140H :  0.49  315H :  0.49
  388O :  0.48  207H :  0.48  705H :  0.46  255H :  0.45  371H :  0.45  639H :  0.45  716H :  0.45  717H :  0.45  374H :  0.44  443H :  0.43  648H :  0.43  202O :  0.43
  152H :  0.42  269H :  0.42  564H :  0.42  349O :  0.42  484O :  0.42  309H :  0.41  621H :  0.41  393H :  0.41  680H :  0.40   77H :  0.40  233H :  0.39  603H :  0.39
  674H :  0.38  299H :  0.38  450H :  0.38   66H :  0.38  614H :  0.37  533H :  0.37  516H :  0.37  242H :  0.36  470H :  0.36  287H :  0.35  491H :  0.35  336H :  0.34
  247O :  0.34  386H :  0.34  743H :  0.34   69H :  0.34  320H :  0.34  164H :  0.34  653H :  0.34  344H :  0.34   45H :  0.33  545H :  0.33  497H :  0.32  422H :  0.32
  638H :  0.32  102H :  0.32  482H :  0.32  617H :  0.31  671H :  0.31  432H :  0.31  739O :  0.31  663H :  0.30   36H :  0.30  438H :  0.30  506H :  0.30  540H :  0.30
  390H :  0.30  683H :  0.29   90H :  0.29  486H :  0.29   75H :  0.29   92H :  0.29  170H :  0.29   72H :  0.28  323H :  0.28  548H :  0.27   57H :  0.27  626H :  0.27
  753H :  0.27  702H :  0.26  687H :  0.26  402H :  0.26  258H :  0.26  724O :  0.26  474H :  0.26  444H :  0.26  159H :  0.26   15H :  0.25  495H :  0.25  132H :  0.25
  330H :  0.25  483H :  0.24   11H :  0.24  435H :  0.24  149H :  0.24  455H :  0.24  573H :  0.24  689H :  0.24  225H :  0.24  117H :  0.23  477H :  0.23  141H :  0.23
  629H :  0.23  471H :  0.23  624H :  0.23  240H :  0.23  392H :  0.22   48H :  0.22  167H :  0.22  212H :  0.22  366H :  0.22  618H :  0.22   30H :  0.22   32H :  0.22
   53H :  0.21  515H :  0.21  356H :  0.21   39H :  0.20  555H :  0.20  160O :  0.20  647H :  0.20  704H :  0.20  126H :  0.20  414H :  0.20  119H :  0.20  195H :  0.20
   51H :  0.20  462H :  0.19   35H :  0.19  342H :  0.19  144H :  0.19  635H :  0.19  605H :  0.19  566H :  0.19  420H :  0.19  446H :  0.19  329H :  0.18  503H :  0.18
  156H :  0.18  413H :  0.18  116H :  0.17  636H :  0.17  452H :  0.17  640O :  0.17  165H :  0.16  270H :  0.16  456H :  0.16  627H :  0.16  468H :  0.16   27H :  0.16
  546H :  0.16  302H :  0.16  326H :  0.15  318H :  0.15  737H :  0.15  675H :  0.15   93H :  0.15  131H :  0.15  206H :  0.15  612H :  0.15   86H :  0.15  441H :  0.15
  279H :  0.14  609H :  0.14  125H :  0.14  398H :  0.14  732H :  0.14  620H :  0.14  108H :  0.14  266H :  0.14  275H :  0.14  467H :  0.13  381H :  0.13  128H :  0.13
  480H :  0.13  282H :  0.13   98H :  0.13  360H :  0.13  600H :  0.12  281H :  0.12  534H :  0.12  642H :  0.12  654H :  0.12   44H :  0.12  695H :  0.12  110H :  0.12
  447H :  0.12   24H :  0.12  327H :  0.12  408H :  0.12  209H :  0.12  698H :  0.11   59H :  0.11  353H :  0.11  333H :  0.11  218H :  0.11  369H :  0.11  509H :  0.11
  150H :  0.11   96H :  0.11  293H :  0.11  257H :  0.11  524H :  0.11  261H :  0.11  560H :  0.11  114H :  0.10  458H :  0.10  341H :  0.10   20H :  0.10  317H :  0.10
  143H :  0.10  668H :  0.10  426H :  0.10  711H :  0.10  410H :  0.10  537H :  0.10  720H :  0.10  632H :  0.10  578H :  0.10  216H :  0.09  276H :  0.09   29H :  0.09
  722H :  0.09  177H :  0.09  348H :  0.09  431H :  0.09  591H :  0.09  401H :  0.09  134H :  0.08  404H :  0.08  500H :  0.08   18H :  0.08  339H :  0.08  611H :  0.08
  351H :  0.08  686H :  0.08  378H :  0.08  123H :  0.08  513H :  0.08  602H :  0.08  696H :  0.08   23H :  0.08  569H :  0.08  692H :  0.07  272H :  0.07  440H :  0.07
  707H :  0.07  321H :  0.07
    5 LP   *******   0.00   2.78754  -7.06739  45.35238  127O : 25.97   73O : 16.93  445O : 16.85  517O : 15.82  337O : 13.50  463O : 13.34  181O : 13.22  532O : 12.48    7O : 12.42  472O : 11.91  424O : 11.74  115O : 11.40
  121O : 11.20  502O : 11.13  598O : 11.05  412O : 10.65   76O : 10.56  166O : 10.26   19O : 10.01  649O :  9.88  184O :  9.04  136O :  8.85  580O :  8.84  313O :  8.75
  661O :  8.69  538O :  8.67   88O :  8.51  334O :  8.46  403O :  8.46  544O :  8.43  679O :  8.06  718O :  8.04  163O :  8.02  688O :  7.91  643O :  7.75  142O :  7.73
  748O :  7.68  553O :  7.51  256O :  7.49  229O :  7.39  646O :  7.34  172O :  7.32  100O :  7.21  199O :  6.92  487O :  6.91  541O :  6.87  448O :  6.76  682O :  6.75
  151O :  6.62  379O :  6.54  619O :  6.54  670O :  6.42  703O :  6.39  157O :  6.30  250O :  6.09  241O :  6.04   10O :  5.86  475O :  5.81  730O :  5.74  427O :  5.66
  220O :  5.65  658O :  5.61  364O :  5.60  535O :  5.55  442O :  5.53  481O :  5.45  223O :  5.41  304O :  5.37  604O :  5.33  478O :  5.31  343O :  5.20  550O :  5.20
  685O :  4.99  238O :  4.93  139O :  4.81   13O :  4.78  655O :  4.78  625O :  4.74  457O :  4.61  301O :  4.58  490O :  4.43  526O :  4.41  556O :  4.41  214O :  4.37
  634O :  4.33   25O :  4.23  178O :  4.23  331O :  4.16   34O :  4.15  589O :  4.12  196O :  3.98  265O :  3.98  286O :  3.96  727O :  3.94  433O :  3.93   97O :  3.91
  709O :  3.73  469O :  3.71   28O :  3.67   79O :  3.65  568O :  3.62  295O :  3.59  391O :  3.58  694O :  3.58  715O :  3.53   61O :  3.52  316O :  3.49  307O :  3.47
  298O :  3.45  154O :  3.44  505O :  3.38  628O :  3.37  664O :  3.34   16O :  3.30  232O :  3.27  421O :  3.22  529O :  3.18  322O :  3.18  607O :  3.17  610O :  3.17
  280O :  3.16  637O :  3.13  691O :  3.11  436O :  3.08  493O :  3.00  373O :  3.00  244O :  2.99  325O :  2.97  520O :  2.96   31O :  2.93  616O :  2.92   94O :  2.91
  148O :  2.91  175O :  2.88  562O :  2.87  340O :  2.86  289O :  2.80  400O :  2.79  721O :  2.73  565O :  2.61  382O :  2.60  355O :  2.58  397O :  2.55   22O :  2.54
  583O :  2.54  601O :  2.53  376O :  2.53  211O :  2.47   55O :  2.44   67O :  2.43   43O :  2.40  193O :  2.40   91O :  2.37   49O :  2.30  754O :  2.26  499O :  2.23
  736O :  2.21  595O :  2.19  697O :  2.16  208O :  2.16  559O :  2.10  292O :  2.04  418O :  2.04  145O :  2.01  370O :  2.01  454O :  2.01  190O :  2.01  187O :  1.99
  106O :  1.99  571O :  1.98  319O :  1.98  460O :  1.95  109O :  1.94  676O :  1.92  430O :  1.92  367O :  1.90  226O :  1.90  205O :  1.88  673O :  1.80    1O :  1.79
  259O :  1.79  592O :  1.78  169O :  1.76  283O :  1.74  660H :  1.74  466O :  1.74   85O :  1.74  385O :  1.74  652O :  1.72  451O :  1.70  352O :  1.68  262O :  1.64
   21H :  1.64  742O :  1.64  657H :  1.62   37O :  1.58   64O :  1.57   58O :  1.53  613O :  1.51  346O :  1.46  586O :  1.44  749H :  1.43  622O :  1.39  271O :  1.38
  439O :  1.34  406O :  1.28  415O :  1.28  518H :  1.28   89H :  1.27  133O :  1.25  751O :  1.22  112O :  1.20  552H :  1.20  712O :  1.20  547O :  1.20  700O :  1.16
   46O :  1.13  561H :  1.12  253O :  1.11  130O :  1.10  274O :  1.08  582H :  1.08   40O :  1.07  577O :  1.03  174H :  1.03  745O :  1.03  197H :  1.02  394O :  1.01
  706O :  1.00  488H :  0.99  328O :  0.98  508O :  0.97  308H :  0.96  268O :  0.95  277O :  0.94  690H :  0.90  459H :  0.87  574O :  0.87  215H :  0.84  251H :  0.83
   70O :  0.82  185H :  0.81  235O :  0.80  423H :  0.79    4O :  0.78  361O :  0.76  667O :  0.76  733O :  0.76  719H :  0.75  222H :  0.75  527H :  0.74  380H :  0.73
  288H :  0.72  729H :  0.72  731H :  0.71  514O :  0.71  189H :  0.71  201H :  0.70  294H :  0.70  554H :  0.70  138H :  0.69  666H :  0.68  354H :  0.67  551H :  0.67
  124O :  0.67  409O :  0.67  182H :  0.66  511O :  0.65  155H :  0.65  464H :  0.65   82O :  0.65  118O :  0.64  324H :  0.61  473H :  0.61  103O :  0.60  147H :  0.60
  234H :  0.59  176H :  0.58  332H :  0.57  631O :  0.56  228H :  0.55  465H :  0.53   26H :  0.52  137H :  0.51  489H :  0.51  217O :  0.51  572H :  0.50   99H :  0.49
  449H :  0.49  314H :  0.49  310O :  0.47  496O :  0.47  476H :  0.46  358O :  0.46  383H :  0.46   52O :  0.46  523O :  0.46  140H :  0.46  315H :  0.45  388O :  0.45
  207H :  0.44  705H :  0.43   74H :  0.43  371H :  0.42  255H :  0.42  533H :  0.42  639H :  0.42  716H :  0.42  717H :  0.41  374H :  0.41  443H :  0.40  648H :  0.40
  152H :  0.39  269H :  0.39  349O :  0.39  564H :  0.39  484O :  0.39  202O :  0.39  309H :  0.38  621H :  0.38  393H :  0.38  680H :  0.38   77H :  0.37  603H :  0.36
  233H :  0.36  674H :  0.36  299H :  0.36  450H :  0.35   66H :  0.35  614H :  0.34  516H :  0.34  242H :  0.33  470H :  0.33  287H :  0.33  491H :  0.32  336H :  0.32
  247O :  0.32  386H :  0.32  743H :  0.32  320H :  0.31   69H :  0.31  164H :  0.31  653H :  0.31  344H :  0.31   45H :  0.30  545H :  0.30  497H :  0.30  422H :  0.30
  638H :  0.30  102H :  0.29  482H :  0.29  617H :  0.29  671H :  0.29  432H :  0.29  739O :  0.29  663H :  0.28   36H :  0.28  438H :  0.28  506H :  0.28  540H :  0.27
  390H :  0.27  683H :  0.27   90H :  0.27  486H :  0.27   92H :  0.27  170H :  0.26  687H :  0.26   72H :  0.26  323H :  0.26  548H :  0.25   57H :  0.25  626H :  0.25
  753H :  0.25  702H :  0.25  402H :  0.25  258H :  0.24  724O :  0.24  474H :  0.24  444H :  0.24  159H :  0.24   15H :  0.24  495H :  0.23  132H :  0.23  330H :  0.23
  483H :  0.23   11H :  0.22  435H :  0.22  149H :  0.22   75H :  0.22  455H :  0.22  573H :  0.22  689H :  0.22  225H :  0.22  117H :  0.21  477H :  0.21  141H :  0.21
  629H :  0.21  471H :  0.21  624H :  0.21  392H :  0.21   48H :  0.21  167H :  0.21  212H :  0.21  366H :  0.20  240H :  0.20  618H :  0.20   32H :  0.20   30H :  0.20
   53H :  0.20  515H :  0.20  356H :  0.19   39H :  0.19  555H :  0.19  160O :  0.19  647H :  0.19  704H :  0.19  126H :  0.18  414H :  0.18  119H :  0.18  195H :  0.18
   51H :  0.18  462H :  0.18  342H :  0.18  144H :  0.18   35H :  0.18  635H :  0.18  605H :  0.18  566H :  0.18  420H :  0.17  446H :  0.17  329H :  0.17  503H :  0.17
  156H :  0.17  413H :  0.17  534H :  0.16  116H :  0.16  636H :  0.16  452H :  0.16  640O :  0.15  165H :  0.15  270H :  0.15  456H :  0.15  627H :  0.15  468H :  0.15
   27H :  0.15  546H :  0.15  302H :  0.14  326H :  0.14  318H :  0.14  737H :  0.14  675H :  0.14   93H :  0.14  131H :  0.14  206H :  0.14  612H :  0.14   86H :  0.14
  441H :  0.14  279H :  0.13  609H :  0.13  125H :  0.13  398H :  0.13  732H :  0.13  620H :  0.13  108H :  0.13  266H :  0.13  275H :  0.13  467H :  0.12  381H :  0.12
  128H :  0.12  480H :  0.12  282H :  0.12   98H :  0.12  360H :  0.12  600H :  0.11  281H :  0.11  642H :  0.11  654H :  0.11   44H :  0.11  695H :  0.11  110H :  0.11
  447H :  0.11   24H :  0.11  327H :  0.11  408H :  0.11  209H :  0.11  698H :  0.11   59H :  0.11  353H :  0.11  333H :  0.11  218H :  0.10  369H :  0.10  509H :  0.10
   96H :  0.10  150H :  0.10  293H :  0.10  257H :  0.10  524H :  0.10  261H :  0.10  560H :  0.10  410H :  0.10  458H :  0.10  341H :  0.10  114H :  0.10   20H :  0.10
  317H :  0.09  143H :  0.09  668H :  0.09  426H :  0.09  711H :  0.09  537H :  0.09  720H :  0.09  632H :  0.09  578H :  0.09  216H :  0.09  276H :  0.09   29H :  0.09
  722H :  0.09  348H :  0.09  177H :  0.08  431H :  0.08  500H :  0.08  591H :  0.08  339H :  0.08  401H :  0.08  134H :  0.08  404H :  0.08   18H :  0.08  611H :  0.08
  686H :  0.08  351H :  0.08  378H :  0.07  123H :  0.07  602H :  0.07  513H :  0.07  696H :  0.07  569H :  0.07   23H :  0.07
    6 LP   *******   0.00   8.87064   9.73834  -2.09183  127O : 25.66  445O : 16.61  517O : 15.59   73O : 14.18  115O : 13.31  337O : 13.26  463O : 13.14  181O : 13.02  532O : 12.30    7O : 12.24  472O : 11.74  424O : 11.57
  121O : 11.04  502O : 10.97  598O : 10.89  412O : 10.50   76O : 10.49  166O : 10.11   19O :  9.86  649O :  9.74  184O :  8.93  136O :  8.72  580O :  8.72  313O :  8.62
  661O :  8.56  538O :  8.54   88O :  8.38  334O :  8.34  403O :  8.34  544O :  8.31  679O :  7.94  718O :  7.91  163O :  7.90  688O :  7.79  643O :  7.63  142O :  7.62
  748O :  7.56  553O :  7.40  256O :  7.36  172O :  7.32  229O :  7.25  646O :  7.23  100O :  7.10  199O :  6.82  487O :  6.81  541O :  6.77  448O :  6.66  682O :  6.65
  151O :  6.53  379O :  6.45  619O :  6.44  670O :  6.32  703O :  6.30  157O :  6.21  250O :  6.00  241O :  5.95   10O :  5.77  475O :  5.72  730O :  5.65  427O :  5.58
  220O :  5.57  658O :  5.53  364O :  5.52  535O :  5.47  442O :  5.45  481O :  5.37  223O :  5.33  304O :  5.29  604O :  5.25  478O :  5.24  550O :  5.12  343O :  5.12
  685O :  4.92  238O :  4.86  139O :  4.74   13O :  4.71  655O :  4.71  625O :  4.67  457O :  4.54  301O :  4.51  490O :  4.36  526O :  4.35  556O :  4.35  214O :  4.30
  634O :  4.26   25O :  4.17  178O :  4.17  331O :  4.10   34O :  4.09  589O :  4.06  196O :  3.93  265O :  3.92  286O :  3.91  727O :  3.88  433O :  3.87   97O :  3.85
  709O :  3.68  469O :  3.65   28O :  3.62   79O :  3.60  568O :  3.57  295O :  3.53  694O :  3.53  391O :  3.53  715O :  3.47  316O :  3.44  307O :  3.42  154O :  3.41
  298O :  3.40  505O :  3.34  628O :  3.32  664O :  3.29   16O :  3.27   61O :  3.25  232O :  3.23  421O :  3.17  529O :  3.13  322O :  3.13  607O :  3.13  610O :  3.12
  280O :  3.12  637O :  3.08  691O :  3.07  436O :  3.04  148O :  2.97  493O :  2.96  373O :  2.95  244O :  2.95  325O :  2.93  520O :  2.91   31O :  2.88  616O :  2.88
   94O :  2.87  175O :  2.84  562O :  2.83  340O :  2.82  289O :  2.76  400O :  2.75  721O :  2.69  565O :  2.57  382O :  2.56  355O :  2.55  397O :  2.51   22O :  2.51
  583O :  2.50  601O :  2.49  376O :  2.49  211O :  2.44   67O :  2.43   55O :  2.39   43O :  2.37  193O :  2.36   91O :  2.34   49O :  2.26  499O :  2.25  754O :  2.23
  736O :  2.18  595O :  2.15  208O :  2.13  697O :  2.13  559O :  2.07  292O :  2.01  418O :  2.01  370O :  1.99  145O :  1.99  190O :  1.98  454O :  1.98  187O :  1.98
  319O :  1.97  106O :  1.96  571O :  1.95  460O :  1.92  109O :  1.91  676O :  1.89  430O :  1.89  367O :  1.87  226O :  1.87  205O :  1.85    1O :  1.77  673O :  1.76
  259O :  1.76  592O :  1.76  169O :  1.73  283O :  1.72  660H :  1.72  466O :  1.71   85O :  1.71  385O :  1.71  451O :  1.69  652O :  1.69  352O :  1.66  262O :  1.62
   21H :  1.61  742O :  1.61  657H :  1.60   37O :  1.56   64O :  1.55   58O :  1.51  613O :  1.48  346O :  1.43  586O :  1.42  749H :  1.41  622O :  1.37  271O :  1.36
  439O :  1.32  406O :  1.26  415O :  1.26  518H :  1.26   89H :  1.25  133O :  1.23  751O :  1.21  712O :  1.19  552H :  1.18  112O :  1.18  547O :  1.18  700O :  1.14
   46O :  1.11  561H :  1.11  253O :  1.09  130O :  1.08  274O :  1.06  582H :  1.06   40O :  1.05  577O :  1.02  745O :  1.01  197H :  1.01  174H :  1.00  394O :  0.99
  706O :  0.98  488H :  0.97  508O :  0.96  328O :  0.95  308H :  0.95  268O :  0.94  277O :  0.92  690H :  0.89  459H :  0.86  574O :  0.86  215H :  0.83  251H :  0.82
   70O :  0.81  185H :  0.79  235O :  0.79  423H :  0.78    4O :  0.77  361O :  0.75  667O :  0.75  733O :  0.75  719H :  0.74  222H :  0.74  527H :  0.73  288H :  0.72
  380H :  0.72  729H :  0.71  731H :  0.70  514O :  0.70  189H :  0.70  201H :  0.69  294H :  0.69  554H :  0.69  138H :  0.68  666H :  0.67  354H :  0.66  551H :  0.66
  124O :  0.66  409O :  0.66  182H :  0.65  155H :  0.65  464H :  0.64   82O :  0.64  511O :  0.63  118O :  0.63  324H :  0.60  473H :  0.60  234H :  0.59  147H :  0.59
  103O :  0.59  176H :  0.57  332H :  0.56  631O :  0.55  228H :  0.54  465H :  0.52   26H :  0.51  137H :  0.50  489H :  0.50  217O :  0.50  572H :  0.49   74H :  0.49
   99H :  0.49  449H :  0.49  314H :  0.49  310O :  0.46  496O :  0.46  476H :  0.46  358O :  0.46  383H :  0.46  523O :  0.45   52O :  0.45  140H :  0.45  315H :  0.44
  388O :  0.44  207H :  0.44  705H :  0.43  255H :  0.42  371H :  0.42  533H :  0.41  716H :  0.41  639H :  0.41  717H :  0.41  374H :  0.40  443H :  0.39  648H :  0.39
  202O :  0.39  152H :  0.39  269H :  0.39  349O :  0.39  564H :  0.39  484O :  0.38  309H :  0.38  621H :  0.38  393H :  0.37  680H :  0.37  233H :  0.36   77H :  0.36
  603H :  0.36  674H :  0.35  299H :  0.35  450H :  0.35   66H :  0.34  614H :  0.34  516H :  0.34  242H :  0.33  470H :  0.33  287H :  0.32  491H :  0.32  336H :  0.31
  247O :  0.31  386H :  0.31  743H :  0.31  320H :  0.31   69H :  0.31  164H :  0.31  653H :  0.31  344H :  0.31   45H :  0.30  545H :  0.30  497H :  0.30  422H :  0.29
  638H :  0.29  102H :  0.29  482H :  0.29  617H :  0.29  671H :  0.28  432H :  0.28  739O :  0.28  663H :  0.28   36H :  0.28  438H :  0.27  506H :  0.27  540H :  0.27
  390H :  0.27  683H :  0.27   90H :  0.27  486H :  0.27   75H :  0.26   92H :  0.26  170H :  0.26   72H :  0.25  323H :  0.25  548H :  0.25  753H :  0.25   57H :  0.24
  626H :  0.24  149H :  0.24  702H :  0.24  687H :  0.24  402H :  0.24  258H :  0.24  724O :  0.24  474H :  0.24  444H :  0.23  159H :  0.23   15H :  0.23  495H :  0.23
  132H :  0.23  330H :  0.23  483H :  0.22   11H :  0.22  435H :  0.22  455H :  0.22  573H :  0.22  689H :  0.22  225H :  0.22  477H :  0.21  141H :  0.21  629H :  0.21
  471H :  0.21  624H :  0.21  392H :  0.20  167H :  0.20  212H :  0.20  366H :  0.20  240H :  0.20  618H :  0.20   30H :  0.20   32H :  0.20   53H :  0.19  515H :  0.19
   48H :  0.19  356H :  0.19   39H :  0.19  555H :  0.19  160O :  0.18  647H :  0.18  126H :  0.18  704H :  0.18  414H :  0.18  119H :  0.18  195H :  0.18  462H :  0.18
   35H :  0.18   51H :  0.18  156H :  0.18  342H :  0.18  144H :  0.17  635H :  0.17  605H :  0.17  566H :  0.17  420H :  0.17  446H :  0.17  329H :  0.17  503H :  0.17
  413H :  0.17  534H :  0.16  636H :  0.16  452H :  0.15  640O :  0.15  165H :  0.15  270H :  0.15  117H :  0.15  456H :  0.15  627H :  0.15  468H :  0.14   27H :  0.14
  546H :  0.14  302H :  0.14  326H :  0.14  318H :  0.14  737H :  0.14  675H :  0.14   93H :  0.14  206H :  0.14  131H :  0.14  612H :  0.14   86H :  0.14  441H :  0.13
  279H :  0.13  609H :  0.13  125H :  0.13  398H :  0.13  732H :  0.13  620H :  0.13  108H :  0.13  266H :  0.13  275H :  0.12  467H :  0.12  381H :  0.12  480H :  0.12
  128H :  0.12  282H :  0.12   98H :  0.12  360H :  0.11  600H :  0.11  281H :  0.11  642H :  0.11  654H :  0.11   44H :  0.11  695H :  0.11  110H :  0.11  447H :  0.11
   24H :  0.11  327H :  0.11  408H :  0.11  209H :  0.11  698H :  0.10   59H :  0.10  353H :  0.10  333H :  0.10  218H :  0.10  369H :  0.10  509H :  0.10   96H :  0.10
  293H :  0.10  257H :  0.10  524H :  0.10  261H :  0.10  560H :  0.10  410H :  0.10  114H :  0.10  458H :  0.09  341H :  0.09   20H :  0.09  116H :  0.09  317H :  0.09
  150H :  0.09  143H :  0.09  668H :  0.09  426H :  0.09  711H :  0.09  537H :  0.09  720H :  0.09  632H :  0.09  578H :  0.09  216H :  0.09  276H :  0.09   29H :  0.09
  722H :  0.08  348H :  0.08  177H :  0.08  431H :  0.08  591H :  0.08  401H :  0.08  134H :  0.08  404H :  0.08  513H :  0.08  500H :  0.08   18H :  0.08  339H :  0.08
  611H :  0.08  351H :  0.07  686H :  0.07  378H :  0.07  123H :  0.07  602H :  0.07
    7 LP   *******   0.00  47.01260 -21.62882  33.98643  127O : 25.36  445O : 16.46  181O : 16.16  517O : 15.45   73O : 14.06  337O : 13.14  463O : 13.03  532O : 12.19    7O : 12.14  472O : 11.64  424O : 11.47  115O : 11.14
  121O : 10.94  502O : 10.88  598O : 10.79  412O : 10.40   76O : 10.32  166O : 10.02  649O :  9.65   19O :  9.59  184O :  8.83  136O :  8.65  580O :  8.64  313O :  8.54
  661O :  8.49  538O :  8.47   88O :  8.31  334O :  8.27  403O :  8.26  544O :  8.24  679O :  7.87  718O :  7.85  163O :  7.83  688O :  7.72  643O :  7.57  142O :  7.55
  748O :  7.50  553O :  7.33  256O :  7.31  172O :  7.25  229O :  7.19  646O :  7.17  100O :  7.04  199O :  6.76  487O :  6.74  541O :  6.71  448O :  6.60  682O :  6.60
  151O :  6.47  619O :  6.41  379O :  6.39  670O :  6.27  703O :  6.24  157O :  6.15  250O :  5.95  241O :  5.90   10O :  5.73  475O :  5.67  730O :  5.60  427O :  5.54
  220O :  5.52  658O :  5.48  364O :  5.47  535O :  5.42  442O :  5.40  481O :  5.32  223O :  5.29  304O :  5.24  604O :  5.21  478O :  5.19  550O :  5.08  343O :  5.08
  685O :  4.88  238O :  4.81  139O :  4.70  655O :  4.67   13O :  4.67  625O :  4.64  457O :  4.50  301O :  4.47  490O :  4.33  526O :  4.31  556O :  4.31  214O :  4.26
  634O :  4.23   25O :  4.16  178O :  4.13  331O :  4.07   34O :  4.06  589O :  4.00  196O :  3.89  265O :  3.89  286O :  3.88  727O :  3.85  433O :  3.84   97O :  3.82
  469O :  3.62   28O :  3.59   79O :  3.57  568O :  3.54  709O :  3.52  295O :  3.50  694O :  3.50  391O :  3.50  715O :  3.44   61O :  3.44  316O :  3.41  307O :  3.39
  298O :  3.38  154O :  3.36  505O :  3.31  628O :  3.29  664O :  3.26   16O :  3.24  232O :  3.20  421O :  3.14  529O :  3.11  322O :  3.10  607O :  3.10  610O :  3.10
  280O :  3.08  637O :  3.06  691O :  3.04  436O :  3.01  493O :  2.93  373O :  2.92  244O :  2.92  325O :  2.90  520O :  2.88   31O :  2.86  616O :  2.85   94O :  2.85
  148O :  2.84  175O :  2.81  562O :  2.81  340O :  2.80  289O :  2.74  400O :  2.73  721O :  2.67  565O :  2.55  382O :  2.54  355O :  2.52  397O :  2.49   22O :  2.49
  583O :  2.47  376O :  2.47  601O :  2.45  211O :  2.42   67O :  2.41   55O :  2.38   43O :  2.35  193O :  2.34   91O :  2.32   49O :  2.25  499O :  2.23  754O :  2.21
  736O :  2.16  595O :  2.13  697O :  2.11  208O :  2.11  559O :  2.06  292O :  1.99  418O :  1.99  370O :  1.97  145O :  1.97  454O :  1.96  190O :  1.96  187O :  1.95
  106O :  1.94  571O :  1.94  319O :  1.93  460O :  1.90  109O :  1.89  676O :  1.88  430O :  1.87  367O :  1.85  226O :  1.85  205O :  1.84  673O :  1.76    1O :  1.75
  259O :  1.75  592O :  1.74  169O :  1.72  283O :  1.70  660H :  1.70  466O :  1.70   85O :  1.70  385O :  1.70  451O :  1.68  652O :  1.68  352O :  1.65   21H :  1.61
  262O :  1.61  742O :  1.60  657H :  1.59   37O :  1.55   64O :  1.54   58O :  1.50  613O :  1.47  346O :  1.43  586O :  1.41  749H :  1.39  622O :  1.36  271O :  1.35
  439O :  1.30  406O :  1.25  415O :  1.25  518H :  1.25   89H :  1.24  133O :  1.22  751O :  1.19  552H :  1.17  712O :  1.17  112O :  1.17  547O :  1.17  700O :  1.14
   46O :  1.10  561H :  1.10  253O :  1.08  274O :  1.08  130O :  1.07  582H :  1.05   40O :  1.04  577O :  1.01  745O :  1.00  197H :  1.00  174H :  1.00  394O :  0.98
  706O :  0.98  488H :  0.96  328O :  0.96  508O :  0.95  308H :  0.94  268O :  0.93  277O :  0.92  690H :  0.88  459H :  0.85  574O :  0.85  215H :  0.82  251H :  0.81
   70O :  0.80  185H :  0.79  235O :  0.78  423H :  0.77    4O :  0.76  361O :  0.75  667O :  0.74  733O :  0.74  719H :  0.74  222H :  0.73  527H :  0.73  288H :  0.72
  380H :  0.71  729H :  0.70  731H :  0.70  514O :  0.69  189H :  0.69  201H :  0.69  294H :  0.68  554H :  0.68  138H :  0.68  666H :  0.66  551H :  0.65  354H :  0.65
  124O :  0.65  409O :  0.65  511O :  0.63  155H :  0.63  464H :  0.63   82O :  0.62  118O :  0.62  324H :  0.60  473H :  0.59  234H :  0.59  147H :  0.59  103O :  0.59
  182H :  0.57  176H :  0.57  332H :  0.55  631O :  0.55  228H :  0.54  465H :  0.51   26H :  0.51  137H :  0.50  489H :  0.49  217O :  0.49  572H :  0.49   74H :  0.49
   99H :  0.48  449H :  0.48  314H :  0.48  310O :  0.46  496O :  0.45  476H :  0.45  358O :  0.45  383H :  0.45  523O :  0.45   52O :  0.45  140H :  0.45  315H :  0.44
  388O :  0.44  207H :  0.43  705H :  0.42  255H :  0.41  371H :  0.41  533H :  0.41  639H :  0.41  716H :  0.41  717H :  0.40  621H :  0.40  374H :  0.40  443H :  0.39
  648H :  0.39  202O :  0.39  269H :  0.39  152H :  0.39  349O :  0.38  564H :  0.38  484O :  0.38  309H :  0.37  393H :  0.37  680H :  0.37   77H :  0.36  233H :  0.36
  299H :  0.35  674H :  0.35  450H :  0.35  603H :  0.34   66H :  0.34  614H :  0.34  516H :  0.33  242H :  0.33  470H :  0.32  287H :  0.32  491H :  0.31  336H :  0.31
  247O :  0.31  386H :  0.31  743H :  0.31   69H :  0.31  320H :  0.31  164H :  0.31  653H :  0.31  344H :  0.31   45H :  0.30  545H :  0.30  497H :  0.29  422H :  0.29
  638H :  0.29  102H :  0.29  482H :  0.29  617H :  0.28  432H :  0.28  671H :  0.28  739O :  0.28  663H :  0.28   36H :  0.27  438H :  0.27  506H :  0.27  540H :  0.27
  390H :  0.27  683H :  0.27   90H :  0.27  486H :  0.26   75H :  0.26   92H :  0.26  170H :  0.26   72H :  0.25  323H :  0.25  548H :  0.24   57H :  0.24  626H :  0.24
  753H :  0.24  702H :  0.24  687H :  0.24  402H :  0.24  258H :  0.24  724O :  0.23  474H :  0.23  444H :  0.23  159H :  0.23   15H :  0.23  495H :  0.23  132H :  0.23
  330H :  0.22  483H :  0.22   11H :  0.22  435H :  0.22  149H :  0.22  455H :  0.22  573H :  0.22  689H :  0.22  225H :  0.21  117H :  0.21  477H :  0.21  141H :  0.21
  629H :  0.21  471H :  0.21  624H :  0.20  392H :  0.20   48H :  0.20  167H :  0.20  212H :  0.20  366H :  0.20  240H :  0.20  618H :  0.20   30H :  0.20   32H :  0.20
   53H :  0.19  515H :  0.19  356H :  0.19   39H :  0.19  555H :  0.19  160O :  0.18  647H :  0.18  126H :  0.18  704H :  0.18  414H :  0.18  195H :  0.18  119H :  0.18
   51H :  0.18  462H :  0.18   35H :  0.18  342H :  0.17  144H :  0.17  635H :  0.17  605H :  0.17  566H :  0.17  420H :  0.17  446H :  0.17  329H :  0.17  503H :  0.17
  156H :  0.17  413H :  0.17  534H :  0.16  116H :  0.16  636H :  0.16  452H :  0.15  640O :  0.15  165H :  0.15  270H :  0.15  456H :  0.15  627H :  0.15   27H :  0.14
  468H :  0.14  546H :  0.14  302H :  0.14  326H :  0.14  318H :  0.14  737H :  0.14  675H :  0.14   93H :  0.14  131H :  0.14  206H :  0.14  612H :  0.14   86H :  0.13
  279H :  0.13  620H :  0.13  609H :  0.13  441H :  0.13  125H :  0.13  398H :  0.13  275H :  0.13  732H :  0.13  108H :  0.12  266H :  0.12  467H :  0.12  381H :  0.12
  128H :  0.12  480H :  0.12  282H :  0.11   98H :  0.11  360H :  0.11  600H :  0.11  281H :  0.11  654H :  0.11  642H :  0.11   44H :  0.11  695H :  0.11  110H :  0.11
  447H :  0.11   24H :  0.11  327H :  0.11  408H :  0.11  209H :  0.10  698H :  0.10   59H :  0.10  353H :  0.10  333H :  0.10  218H :  0.10  369H :  0.10  509H :  0.10
  150H :  0.10   96H :  0.10  293H :  0.10  257H :  0.10  524H :  0.10  261H :  0.10  560H :  0.10  410H :  0.09  114H :  0.09  458H :  0.09  341H :  0.09  317H :  0.09
  143H :  0.09  276H :  0.09  668H :  0.09  711H :  0.09  426H :  0.09  537H :  0.09  720H :  0.09  632H :  0.09  578H :  0.09  216H :  0.09   29H :  0.09  722H :  0.08
  348H :  0.08  177H :  0.08  431H :  0.08  591H :  0.08  401H :  0.08  134H :  0.08  404H :  0.08  500H :  0.08   18H :  0.08  339H :  0.08  611H :  0.08  351H :  0.07
  686H :  0.07  602H :  0.07  378H :  0.07  123H :  0.07  513H :  0.07
    8 LP   *******   0.00  64.12905 -21.51242 -13.80624  127O : 24.64  445O : 15.99  463O : 15.70  517O : 15.01   73O : 13.65  337O : 12.76  181O : 12.54  532O : 11.84    7O : 11.79  472O : 11.30  424O : 11.14  115O : 10.82
  502O : 10.56  598O : 10.48  121O : 10.39  412O : 10.11   76O : 10.02  166O :  9.73   19O :  9.49  649O :  9.38  184O :  8.57  136O :  8.39  580O :  8.39  313O :  8.30
  661O :  8.25  538O :  8.22   88O :  8.07  334O :  8.03  403O :  8.03  544O :  8.00  679O :  7.65  718O :  7.62  163O :  7.61  688O :  7.50  643O :  7.35  142O :  7.33
  748O :  7.28  553O :  7.12  256O :  7.10  172O :  7.05  229O :  6.98  646O :  6.96  100O :  6.84  199O :  6.57  487O :  6.55  541O :  6.52  448O :  6.41  682O :  6.41
  151O :  6.28  379O :  6.21  619O :  6.20  670O :  6.09  703O :  6.07  157O :  5.98  250O :  5.78  241O :  5.73   10O :  5.55  475O :  5.51  730O :  5.44  427O :  5.37
  220O :  5.36  658O :  5.32  364O :  5.31  535O :  5.26  442O :  5.24  481O :  5.17  223O :  5.14  304O :  5.09  604O :  5.06  478O :  5.03  550O :  4.93  343O :  4.93
  685O :  4.74  238O :  4.67  139O :  4.55   13O :  4.54  655O :  4.53  625O :  4.49  457O :  4.37  301O :  4.34  490O :  4.20  526O :  4.19  556O :  4.18  214O :  4.14
  634O :  4.11   25O :  4.02  178O :  4.01   34O :  3.94  331O :  3.94  589O :  3.91  196O :  3.78  265O :  3.78  286O :  3.76  727O :  3.73  433O :  3.73   97O :  3.71
  709O :  3.54  469O :  3.52   28O :  3.48   79O :  3.46  568O :  3.44  295O :  3.40  694O :  3.40  391O :  3.40  715O :  3.34   61O :  3.34  316O :  3.31  307O :  3.30
  298O :  3.28  154O :  3.26  505O :  3.21  628O :  3.20  664O :  3.16   16O :  3.15  232O :  3.11  421O :  3.05  529O :  3.02  607O :  3.01  322O :  3.01  610O :  3.01
  280O :  3.00  637O :  2.97  691O :  2.95  436O :  2.92  493O :  2.86  373O :  2.84  244O :  2.84  325O :  2.82  520O :  2.80   31O :  2.78  616O :  2.77   94O :  2.76
  148O :  2.76  175O :  2.73  562O :  2.72  340O :  2.72  289O :  2.66  400O :  2.65  721O :  2.59  565O :  2.47  382O :  2.47  355O :  2.45  397O :  2.41   22O :  2.41
  583O :  2.41  601O :  2.40  376O :  2.40  211O :  2.35   67O :  2.34   55O :  2.31   43O :  2.28  193O :  2.27   91O :  2.25   49O :  2.18  499O :  2.16  754O :  2.14
  736O :  2.10  595O :  2.07  697O :  2.05  208O :  2.05  559O :  2.00  292O :  1.94  418O :  1.93  370O :  1.91  145O :  1.91  190O :  1.91  454O :  1.90  187O :  1.89
  106O :  1.89  571O :  1.88  319O :  1.88  460O :  1.85  109O :  1.84  676O :  1.82  430O :  1.82  367O :  1.80  226O :  1.80  205O :  1.78  673O :  1.71    1O :  1.70
  259O :  1.69  592O :  1.69  169O :  1.67  283O :  1.66  660H :  1.65  466O :  1.65   85O :  1.65  385O :  1.65  451O :  1.63  652O :  1.63  352O :  1.60  262O :  1.56
   21H :  1.55  742O :  1.55  657H :  1.54   37O :  1.50   64O :  1.49   58O :  1.45  613O :  1.43  346O :  1.39  586O :  1.36  749H :  1.35  622O :  1.32  271O :  1.31
  439O :  1.27  406O :  1.21  415O :  1.21  518H :  1.21   89H :  1.20  133O :  1.18  751O :  1.16  552H :  1.14  712O :  1.14  112O :  1.14  547O :  1.13   46O :  1.07
  700O :  1.07  561H :  1.06  253O :  1.05  130O :  1.04  274O :  1.02  582H :  1.02   40O :  1.01  577O :  0.98  745O :  0.97  197H :  0.97  174H :  0.97  394O :  0.96
  706O :  0.95  488H :  0.94  328O :  0.93  508O :  0.92  308H :  0.91  268O :  0.91  277O :  0.89  690H :  0.85  574O :  0.83  459H :  0.83  215H :  0.80  251H :  0.79
   70O :  0.78  185H :  0.76  235O :  0.76  423H :  0.75    4O :  0.74  361O :  0.73  667O :  0.72  733O :  0.72  719H :  0.72  222H :  0.71  527H :  0.71  288H :  0.70
  380H :  0.69  729H :  0.68  731H :  0.68  514O :  0.67  189H :  0.67  201H :  0.67  294H :  0.66  554H :  0.66  138H :  0.66  666H :  0.64  354H :  0.64  551H :  0.63
  409O :  0.63  124O :  0.63  182H :  0.63  511O :  0.62  155H :  0.62   82O :  0.61  118O :  0.60  324H :  0.58  473H :  0.58  234H :  0.57  147H :  0.57  103O :  0.57
  176H :  0.55  332H :  0.55  631O :  0.53  228H :  0.52  464H :  0.50   26H :  0.49  137H :  0.49  489H :  0.48  217O :  0.48  572H :  0.48   74H :  0.47   99H :  0.47
  449H :  0.47  314H :  0.47  310O :  0.45  496O :  0.44  358O :  0.44  476H :  0.44  383H :  0.44  523O :  0.44   52O :  0.44  140H :  0.43  315H :  0.43  388O :  0.42
  207H :  0.42  705H :  0.41  255H :  0.40  371H :  0.40  533H :  0.40  639H :  0.40  716H :  0.40  465H :  0.39  717H :  0.39  374H :  0.39  443H :  0.38  648H :  0.38
  202O :  0.38  152H :  0.37  269H :  0.37  349O :  0.37  564H :  0.37  484O :  0.37  309H :  0.36  621H :  0.36  393H :  0.36  680H :  0.36   77H :  0.35  233H :  0.35
  603H :  0.34  674H :  0.34  299H :  0.34  450H :  0.34   66H :  0.33  614H :  0.33  516H :  0.32  242H :  0.32  470H :  0.31  287H :  0.31  491H :  0.31  336H :  0.30
  247O :  0.30  386H :  0.30  743H :  0.30   69H :  0.30  320H :  0.30  164H :  0.30  653H :  0.30  344H :  0.30   45H :  0.29  545H :  0.29  497H :  0.29  422H :  0.28
  638H :  0.28  102H :  0.28  482H :  0.28  617H :  0.28  671H :  0.27  432H :  0.27  739O :  0.27  663H :  0.27   36H :  0.27  438H :  0.26  506H :  0.26  540H :  0.26
  390H :  0.26  683H :  0.26   90H :  0.26  486H :  0.26   75H :  0.26   92H :  0.25  170H :  0.25   72H :  0.25  323H :  0.24  548H :  0.24   57H :  0.24  626H :  0.23
  753H :  0.23  687H :  0.23  402H :  0.23  702H :  0.23  258H :  0.23  724O :  0.23  474H :  0.23  495H :  0.23  444H :  0.23  159H :  0.23   15H :  0.22  132H :  0.22
  330H :  0.22  483H :  0.21   11H :  0.21  435H :  0.21  149H :  0.21  455H :  0.21  573H :  0.21  689H :  0.21  225H :  0.21  117H :  0.20  477H :  0.20  141H :  0.20
  629H :  0.20  471H :  0.20  624H :  0.20  392H :  0.20   48H :  0.20  167H :  0.20  212H :  0.19  366H :  0.19  240H :  0.19  618H :  0.19   30H :  0.19   32H :  0.19
   53H :  0.19  515H :  0.19  356H :  0.18   39H :  0.18  555H :  0.18  160O :  0.18  647H :  0.18  704H :  0.18  126H :  0.18  414H :  0.17  119H :  0.17  195H :  0.17
   51H :  0.17  462H :  0.17   35H :  0.17  342H :  0.17  144H :  0.17  635H :  0.17  605H :  0.17  566H :  0.17  420H :  0.16  446H :  0.16  329H :  0.16  503H :  0.16
  156H :  0.16  413H :  0.16  534H :  0.15  116H :  0.15  636H :  0.15  452H :  0.15  640O :  0.15  165H :  0.15  270H :  0.15  456H :  0.14  627H :  0.14  468H :  0.14
   27H :  0.14  546H :  0.14  302H :  0.14  326H :  0.14  318H :  0.14  737H :  0.13  675H :  0.13   93H :  0.13  131H :  0.13  206H :  0.13  612H :  0.13   86H :  0.13
  441H :  0.13  279H :  0.13  609H :  0.12  125H :  0.12  398H :  0.12  732H :  0.12  620H :  0.12  108H :  0.12  266H :  0.12  275H :  0.12  467H :  0.12  381H :  0.12
  128H :  0.12  480H :  0.11  282H :  0.11   98H :  0.11  360H :  0.11  600H :  0.11  281H :  0.11  654H :  0.11  642H :  0.11   44H :  0.11  695H :  0.11  110H :  0.11
  447H :  0.11   24H :  0.10  327H :  0.10  408H :  0.10  209H :  0.10  698H :  0.10   59H :  0.10  353H :  0.10  218H :  0.10  369H :  0.10  333H :  0.10  509H :  0.10
  150H :  0.10   96H :  0.09  293H :  0.09  257H :  0.09  524H :  0.09  261H :  0.09  560H :  0.09  410H :  0.09  114H :  0.09  458H :  0.09  341H :  0.09   20H :  0.09
  317H :  0.09  143H :  0.09  668H :  0.09  426H :  0.09  711H :  0.09  537H :  0.09  632H :  0.09  720H :  0.09  578H :  0.08  216H :  0.08  276H :  0.08   29H :  0.08
  722H :  0.08  348H :  0.08  177H :  0.08  431H :  0.08  591H :  0.08  134H :  0.08  401H :  0.08  404H :  0.07  500H :  0.07   18H :  0.07  339H :  0.07  611H :  0.07
  351H :  0.07  686H :  0.07  378H :  0.07
    9 LP   *******   0.00 -10.26332  -2.51636  -8.90973  127O : 24.62  445O : 15.06  517O : 14.14   73O : 12.86  337O : 12.02  463O : 11.92  181O : 11.81  532O : 11.15    7O : 11.10  472O : 10.64  424O : 10.49  115O : 10.23
  121O : 10.01  502O :  9.95  598O :  9.87  412O :  9.52  166O :  9.17   76O :  8.95   19O :  8.94  649O :  8.84  184O :  8.09  136O :  7.91  580O :  7.90  313O :  7.82
  661O :  7.76  538O :  7.75   88O :  7.60  334O :  7.58  403O :  7.56  544O :  7.56  679O :  7.20  718O :  7.18  163O :  7.17  688O :  7.06  643O :  6.92  142O :  6.91
  748O :  6.86  553O :  6.71  256O :  6.68  172O :  6.64  229O :  6.58  646O :  6.56  100O :  6.44  199O :  6.19  487O :  6.17  541O :  6.14  448O :  6.04  682O :  6.03
  151O :  5.92  379O :  5.85  619O :  5.84  670O :  5.73  703O :  5.71  157O :  5.63  250O :  5.44  241O :  5.39   10O :  5.23  475O :  5.19  730O :  5.13  427O :  5.06
  220O :  5.05  658O :  5.01  364O :  5.00  535O :  4.96  442O :  4.94  481O :  4.87  223O :  4.84  304O :  4.80  604O :  4.76  478O :  4.75  550O :  4.64  343O :  4.64
  685O :  4.46  238O :  4.41  139O :  4.30   13O :  4.28  655O :  4.27  625O :  4.23  457O :  4.12  301O :  4.09  490O :  3.96  526O :  3.94  556O :  3.94  214O :  3.91
  634O :  3.87   25O :  3.78  178O :  3.78  331O :  3.72   34O :  3.71  589O :  3.68  196O :  3.56  265O :  3.56  286O :  3.54  727O :  3.52  433O :  3.51   97O :  3.49
  709O :  3.33  469O :  3.31   28O :  3.28   79O :  3.26  568O :  3.24  295O :  3.20  694O :  3.20  391O :  3.20  715O :  3.15   61O :  3.15  316O :  3.12  307O :  3.10
  298O :  3.09  154O :  3.07  505O :  3.02  628O :  3.01   16O :  2.96  232O :  2.92  664O :  2.90  421O :  2.88  529O :  2.84  322O :  2.84  607O :  2.84  610O :  2.83
  637O :  2.80  691O :  2.78  436O :  2.75  493O :  2.68  373O :  2.68  244O :  2.67  325O :  2.65  520O :  2.63   31O :  2.62  616O :  2.61   94O :  2.60  175O :  2.57
  562O :  2.57  340O :  2.56  280O :  2.53  289O :  2.50  400O :  2.50  148O :  2.47  721O :  2.44  565O :  2.33  382O :  2.33  355O :  2.31   22O :  2.27  397O :  2.27
  583O :  2.27  601O :  2.26  376O :  2.25  211O :  2.21   67O :  2.20   49O :  2.18   55O :  2.18   43O :  2.15  193O :  2.14   91O :  2.12  499O :  2.04  754O :  2.02
  736O :  1.98  595O :  1.95  697O :  1.93  208O :  1.93  559O :  1.88  418O :  1.83  292O :  1.82  370O :  1.80  145O :  1.80  190O :  1.79  454O :  1.79  187O :  1.79
  106O :  1.78  571O :  1.77  319O :  1.76  460O :  1.74  109O :  1.73  676O :  1.72  430O :  1.71  367O :  1.70  226O :  1.69  205O :  1.68  673O :  1.61    1O :  1.60
  259O :  1.60  592O :  1.59  169O :  1.57  283O :  1.56  660H :  1.56  466O :  1.55  385O :  1.55   85O :  1.55  451O :  1.54  652O :  1.54  352O :  1.50  262O :  1.47
   21H :  1.46  742O :  1.46  657H :  1.45   37O :  1.42   64O :  1.40   58O :  1.37  613O :  1.35  346O :  1.30  586O :  1.28  749H :  1.28  622O :  1.24  271O :  1.23
[...]
   370   8 o    1.812 --   372 h    0.859   371 h    0.826
   371   1 h    0.893 --   370 o    0.826
   372   1 h    0.899 --   370 o    0.859
   373   8 o    1.858 --   375 h    0.858   374 h    0.832
   374   1 h    0.890 --   373 o    0.832
   375   1 h    0.891 --   373 o    0.858
   376   8 o    1.864 --   378 h    0.805   377 h    0.802
   377   1 h    0.874 --   376 o    0.802
   378   1 h    0.874 --   376 o    0.805
   379   8 o    1.849 --   381 h    0.872   380 h    0.826
   380   1 h    0.891 --   379 o    0.826
   381   1 h    0.897 --   379 o    0.872
   382   8 o    1.851 --   384 h    0.851   383 h    0.849
   383   1 h    0.895 --   382 o    0.849
   384   1 h    0.891 --   382 o    0.851
   385   8 o    1.841 --   387 h    0.866   386 h    0.834
   386   1 h    0.887 --   385 o    0.834
   387   1 h    0.894 --   385 o    0.866
   388   8 o    1.856 --   389 h    0.879   390 h    0.829
   389   1 h    0.899 --   388 o    0.879
   390   1 h    0.886 --   388 o    0.829
   391   8 o    1.819 --   393 h    0.859   392 h    0.849
   392   1 h    0.892 --   391 o    0.849
   393   1 h    0.893 --   391 o    0.859
   394   8 o    1.837 --   396 h    0.833   395 h    0.819
   395   1 h    0.879 --   394 o    0.819
   396   1 h    0.887 --   394 o    0.833
   397   8 o    1.844 --   399 h    0.809   398 h    0.804
   398   1 h    0.880 --   397 o    0.804
   399   1 h    0.879 --   397 o    0.809
   400   8 o    1.824 --   401 h    0.865   402 h    0.820
   401   1 h    0.898 --   400 o    0.865
   402   1 h    0.882 --   400 o    0.820
   403   8 o    1.856 --   405 h    0.831   404 h    0.809
   404   1 h    0.889 --   403 o    0.809
   405   1 h    0.881 --   403 o    0.831
   406   8 o    1.860 --   408 h    0.840   407 h    0.776
   407   1 h    0.876 --   406 o    0.776
   408   1 h    0.886 --   406 o    0.840
   409   8 o    1.864 --   410 h    0.870   411 h    0.813
   410   1 h    0.896 --   409 o    0.870
   411   1 h    0.878 --   409 o    0.813
   412   8 o    1.839 --   414 h    0.843   413 h    0.842
   413   1 h    0.886 --   412 o    0.842
   414   1 h    0.887 --   412 o    0.843
   415   8 o    1.874 --   416 h    0.854   417 h    0.829
   416   1 h    0.895 --   415 o    0.854
   417   1 h    0.882 --   415 o    0.829
   418   8 o    1.851 --   419 h    0.813   420 h    0.801
   419   1 h    0.887 --   418 o    0.813
   420   1 h    0.881 --   418 o    0.801
   421   8 o    1.827 --   422 h    0.879   423 h    0.798
   422   1 h    0.903 --   421 o    0.879
   423   1 h    0.873 --   421 o    0.798
   424   8 o    1.853 --   425 h    0.883   426 h    0.856
   425   1 h    0.901 --   424 o    0.883
   426   1 h    0.895 --   424 o    0.856
   427   8 o    1.848 --   429 h    0.808   428 h    0.797
   428   1 h    0.873 --   427 o    0.797
   429   1 h    0.885 --   427 o    0.808
   430   8 o    1.874 --   432 h    0.836   431 h    0.818
   431   1 h    0.884 --   430 o    0.818
   432   1 h    0.878 --   430 o    0.836
   433   8 o    1.876 --   434 h    0.830   435 h    0.821
   434   1 h    0.878 --   433 o    0.830
   435   1 h    0.882 --   433 o    0.821
   436   8 o    1.876 --   437 h    0.833   438 h    0.811   522 h    0.109
   437   1 h    0.892 --   436 o    0.833
   438   1 h    0.880 --   436 o    0.811
   439   8 o    1.857 --   440 h    0.895   441 h    0.793
   440   1 h    0.908 --   439 o    0.895
   441   1 h    0.871 --   439 o    0.793
   442   8 o    1.815 --   443 h    0.859   444 h    0.858
   443   1 h    0.901 --   442 o    0.859
   444   1 h    0.901 --   442 o    0.858
   445   8 o    1.829 --   447 h    0.863   446 h    0.825
   446   1 h    0.889 --   445 o    0.825
   447   1 h    0.901 --   445 o    0.863
   448   8 o    1.842 --   449 h    0.854   450 h    0.844
   449   1 h    0.892 --   448 o    0.854
   450   1 h    0.897 --   448 o    0.844
   451   8 o    1.872 --   453 h    0.832   452 h    0.812
   452   1 h    0.872 --   451 o    0.812
   453   1 h    0.886 --   451 o    0.832
   454   8 o    1.827 --   455 h    0.898   456 h    0.828
   455   1 h    0.909 --   454 o    0.898
   456   1 h    0.885 --   454 o    0.828
   457   8 o    1.867 --   458 h    0.849   459 h    0.832
   458   1 h    0.888 --   457 o    0.849
   459   1 h    0.886 --   457 o    0.832
   460   8 o    1.868 --   462 h    0.885   461 h    0.803
   461   1 h    0.881 --   460 o    0.803
   462   1 h    0.899 --   460 o    0.885
   463   8 o    1.835 --   464 h    0.880   465 h    0.845
   464   1 h    0.904 --   463 o    0.880
   465   1 h    0.888 --   463 o    0.845
   466   8 o    1.859 --   467 h    0.854   468 h    0.785
   467   1 h    0.891 --   466 o    0.854
   468   1 h    0.870 --   466 o    0.785
   469   8 o    1.822 --   470 h    0.877   471 h    0.849
   470   1 h    0.903 --   469 o    0.877
   471   1 h    0.896 --   469 o    0.849
   472   8 o    1.844 --   474 h    0.889   473 h    0.867
   473   1 h    0.897 --   472 o    0.867
   474   1 h    0.901 --   472 o    0.889
   475   8 o    1.870 --   476 h    0.873   477 h    0.865
   476   1 h    0.892 --   475 o    0.873
   477   1 h    0.889 --   475 o    0.865
   478   8 o    1.837 --   479 h    0.882   480 h    0.813
   479   1 h    0.900 --   478 o    0.882
   480   1 h    0.882 --   478 o    0.813
   481   8 o    1.844 --   482 h    0.848   483 h    0.804
   482   1 h    0.895 --   481 o    0.848
   483   1 h    0.883 --   481 o    0.804
   484   8 o    1.854 --   485 h    0.868   486 h    0.844
   485   1 h    0.896 --   484 o    0.868
   486   1 h    0.891 --   484 o    0.844
   487   8 o    1.883 --   488 h    0.847   489 h    0.806
   488   1 h    0.891 --   487 o    0.847
   489   1 h    0.883 --   487 o    0.806
   490   8 o    1.867 --   492 h    0.884   491 h    0.845
   491   1 h    0.890 --   490 o    0.845
   492   1 h    0.898 --   490 o    0.884
   493   8 o    1.836 --   494 h    0.837   495 h    0.832
   494   1 h    0.890 --   493 o    0.837
   495   1 h    0.884 --   493 o    0.832
   496   8 o    1.851 --   498 h    0.814   497 h    0.806
   497   1 h    0.884 --   496 o    0.806
   498   1 h    0.890 --   496 o    0.814
   499   8 o    1.874 --   501 h    0.841   500 h    0.829
   500   1 h    0.884 --   499 o    0.829
   501   1 h    0.877 --   499 o    0.841
   502   8 o    1.840 --   503 h    0.868   504 h    0.824
   503   1 h    0.901 --   502 o    0.868
   504   1 h    0.879 --   502 o    0.824
   505   8 o    1.850 --   507 h    0.831   506 h    0.814
   506   1 h    0.892 --   505 o    0.814
   507   1 h    0.884 --   505 o    0.831
   508   8 o    1.853 --   509 h    0.855   510 h    0.828
   509   1 h    0.890 --   508 o    0.855
   510   1 h    0.887 --   508 o    0.828
   511   8 o    1.854 --   512 h    0.819   513 h    0.797
   512   1 h    0.881 --   511 o    0.819
   513   1 h    0.877 --   511 o    0.797
   514   8 o    1.848 --   515 h    0.848   516 h    0.799
   515   1 h    0.890 --   514 o    0.848
   516   1 h    0.885 --   514 o    0.799
   517   8 o    1.845 --   519 h    0.813   518 h    0.794
   518   1 h    0.877 --   517 o    0.794
   519   1 h    0.890 --   517 o    0.813
   520   8 o    1.860 --   521 h    0.814   522 h    0.759
   521   1 h    0.889 --   520 o    0.814
   522   1 h    0.879 --   520 o    0.759   436 o    0.109
   523   8 o    1.834 --   525 h    0.914   524 h    0.800
   524   1 h    0.877 --   523 o    0.800
   525   1 h    0.921 --   523 o    0.914
   526   8 o    1.837 --   528 h    0.871   527 h    0.838
   527   1 h    0.887 --   526 o    0.838
   528   1 h    0.898 --   526 o    0.871
   529   8 o    1.855 --   530 h    0.859   531 h    0.822
   530   1 h    0.896 --   529 o    0.859
   531   1 h    0.881 --   529 o    0.822
   532   8 o    1.881 --   534 h    0.853   533 h    0.841
   533   1 h    0.891 --   532 o    0.841
   534   1 h    0.893 --   532 o    0.853
   535   8 o    1.839 --   537 h    0.849   536 h    0.836
   536   1 h    0.888 --   535 o    0.836
   537   1 h    0.892 --   535 o    0.849
   538   8 o    1.847 --   540 h    0.897   539 h    0.789
   539   1 h    0.873 --   538 o    0.789
   540   1 h    0.909 --   538 o    0.897
   541   8 o    1.864 --   543 h    0.849   542 h    0.828
   542   1 h    0.889 --   541 o    0.828
   543   1 h    0.891 --   541 o    0.849
   544   8 o    1.840 --   546 h    0.896   545 h    0.804
   545   1 h    0.876 --   544 o    0.804
   546   1 h    0.909 --   544 o    0.896
   547   8 o    1.857 --   548 h    0.916   549 h    0.812
   548   1 h    0.919 --   547 o    0.916
   549   1 h    0.882 --   547 o    0.812
   550   8 o    1.824 --   551 h    0.846   552 h    0.835
   551   1 h    0.896 --   550 o    0.846
   552   1 h    0.887 --   550 o    0.835
   553   8 o    1.846 --   555 h    0.821   554 h    0.796
   554   1 h    0.874 --   553 o    0.796
   555   1 h    0.890 --   553 o    0.821
   556   8 o    1.839 --   558 h    0.859   557 h    0.854
   557   1 h    0.897 --   556 o    0.854
   558   1 h    0.894 --   556 o    0.859
   559   8 o    1.839 --   561 h    0.869   560 h    0.828
   560   1 h    0.892 --   559 o    0.828
   561   1 h    0.899 --   559 o    0.869
   562   8 o    1.848 --   563 h    0.875   564 h    0.834
   563   1 h    0.899 --   562 o    0.875
   564   1 h    0.887 --   562 o    0.834
   565   8 o    1.855 --   567 h    0.866   566 h    0.810
   566   1 h    0.880 --   565 o    0.810
   567   1 h    0.897 --   565 o    0.866
   568   8 o    1.864 --   570 h    0.862   569 h    0.848
   569   1 h    0.891 --   568 o    0.848
   570   1 h    0.894 --   568 o    0.862
   571   8 o    1.859 --   572 h    0.836   573 h    0.828
   572   1 h    0.880 --   571 o    0.836
   573   1 h    0.888 --   571 o    0.828
   574   8 o    1.842 --   575 h    0.826   576 h    0.804
   575   1 h    0.882 --   574 o    0.826
   576   1 h    0.878 --   574 o    0.804
   577   8 o    1.857 --   579 h    0.826   578 h    0.805
   578   1 h    0.880 --   577 o    0.805
   579   1 h    0.889 --   577 o    0.826
   580   8 o    1.840 --   582 h    0.872   581 h    0.868
   581   1 h    0.896 --   580 o    0.868
   582   1 h    0.900 --   580 o    0.872
   583   8 o    1.870 --   584 h    0.821   585 h    0.817
   584   1 h    0.887 --   583 o    0.821
   585   1 h    0.872 --   583 o    0.817
   586   8 o    1.848 --   587 h    0.865   588 h    0.840
   587   1 h    0.898 --   586 o    0.865
   588   1 h    0.891 --   586 o    0.840
   589   8 o    1.830 --   591 h    0.899   590 h    0.813
   590   1 h    0.875 --   589 o    0.813
   591   1 h    0.912 --   589 o    0.899
   592   8 o    1.855 --   594 h    0.832   593 h    0.830
   593   1 h    0.884 --   592 o    0.830
   594   1 h    0.884 --   592 o    0.832
   595   8 o    1.853 --   597 h    0.872   596 h    0.851
   596   1 h    0.895 --   595 o    0.851
   597   1 h    0.899 --   595 o    0.872
   598   8 o    1.823 --   599 h    0.848   600 h    0.788
   599   1 h    0.899 --   598 o    0.848
   600   1 h    0.879 --   598 o    0.788
   601   8 o    1.832 --   603 h    0.831   602 h    0.796
   602   1 h    0.879 --   601 o    0.796
   603   1 h    0.886 --   601 o    0.831
   604   8 o    1.856 --   605 h    0.883   606 h    0.795
   605   1 h    0.904 --   604 o    0.883
   606   1 h    0.881 --   604 o    0.795
   607   8 o    1.857 --   609 h    0.838   608 h    0.837
   608   1 h    0.890 --   607 o    0.837
   609   1 h    0.892 --   607 o    0.838
   610   8 o    1.854 --   612 h    0.874   611 h    0.801
   611   1 h    0.879 --   610 o    0.801
   612   1 h    0.899 --   610 o    0.874
   613   8 o    1.876 --   614 h    0.870   615 h    0.804
   614   1 h    0.896 --   613 o    0.870
   615   1 h    0.885 --   613 o    0.804
   616   8 o    1.835 --   618 h    0.899   617 h    0.824
   617   1 h    0.880 --   616 o    0.824
   618   1 h    0.908 --   616 o    0.899
   619   8 o    1.866 --   621 h    0.855   620 h    0.831
   620   1 h    0.889 --   619 o    0.831
   621   1 h    0.892 --   619 o    0.855
   622   8 o    1.829 --   623 h    0.883   624 h    0.862
   623   1 h    0.905 --   622 o    0.883
   624   1 h    0.899 --   622 o    0.862
   625   8 o    1.806 --   626 h    0.844   627 h    0.829
   626   1 h    0.888 --   625 o    0.844
   627   1 h    0.898 --   625 o    0.829
   628   8 o    1.877 --   629 h    0.836   630 h    0.801
   629   1 h    0.887 --   628 o    0.836
   630   1 h    0.878 --   628 o    0.801
   631   8 o    1.874 --   632 h    0.846   633 h    0.828
   632   1 h    0.889 --   631 o    0.846
   633   1 h    0.879 --   631 o    0.828
   634   8 o    1.842 --   635 h    0.860   636 h    0.844
   635   1 h    0.898 --   634 o    0.860
   636   1 h    0.889 --   634 o    0.844
   637   8 o    1.842 --   638 h    0.880   639 h    0.869
   638   1 h    0.902 --   637 o    0.880
   639   1 h    0.896 --   637 o    0.869
   640   8 o    1.813 --   642 h    0.865   641 h    0.831
   641   1 h    0.893 --   640 o    0.831
   642   1 h    0.900 --   640 o    0.865
   643   8 o    1.822 --   645 h    0.854   644 h    0.836
   644   1 h    0.890 --   643 o    0.836
   645   1 h    0.894 --   643 o    0.854
   646   8 o    1.847 --   647 h    0.858   648 h    0.800
   647   1 h    0.888 --   646 o    0.858
   648   1 h    0.877 --   646 o    0.800
   649   8 o    1.859 --   651 h    0.907   650 h    0.832
   650   1 h    0.889 --   649 o    0.832
   651   1 h    0.913 --   649 o    0.907
   652   8 o    1.865 --   653 h    0.865   654 h    0.793
   653   1 h    0.899 --   652 o    0.865
   654   1 h    0.877 --   652 o    0.793
   655   8 o    1.829 --   657 h    0.850   656 h    0.814
   656   1 h    0.885 --   655 o    0.814
   657   1 h    0.894 --   655 o    0.850
   658   8 o    1.842 --   659 h    0.837   660 h    0.824
   659   1 h    0.891 --   658 o    0.837
   660   1 h    0.884 --   658 o    0.824
   661   8 o    1.869 --   662 h    0.826   663 h    0.813
   662   1 h    0.877 --   661 o    0.826
   663   1 h    0.888 --   661 o    0.813
   664   8 o    1.820 --   665 h    0.876   666 h    0.863
   665   1 h    0.900 --   664 o    0.876
   666   1 h    0.893 --   664 o    0.863
   667   8 o    1.856 --   668 h    0.909   669 h    0.796
   668   1 h    0.918 --   667 o    0.909
   669   1 h    0.879 --   667 o    0.796
   670   8 o    1.839 --   672 h    0.856   671 h    0.807
   671   1 h    0.876 --   670 o    0.807
   672   1 h    0.901 --   670 o    0.856
   673   8 o    1.858 --   674 h    0.858   675 h    0.800
   674   1 h    0.897 --   673 o    0.858
   675   1 h    0.886 --   673 o    0.800
   676   8 o    1.875 --   677 h    0.815   678 h    0.797
   677   1 h    0.887 --   676 o    0.815
   678   1 h    0.884 --   676 o    0.797
   679   8 o    1.871 --   681 h    0.811   680 h    0.800
   680   1 h    0.880 --   679 o    0.800
   681   1 h    0.878 --   679 o    0.811
   682   8 o    1.849 --   684 h    0.869   683 h    0.854
   683   1 h    0.890 --   682 o    0.854
   684   1 h    0.893 --   682 o    0.869
   685   8 o    1.877 --   687 h    0.826   686 h    0.814
   686   1 h    0.883 --   685 o    0.814
   687   1 h    0.880 --   685 o    0.826
   688   8 o    1.864 --   689 h    0.825   690 h    0.813
   689   1 h    0.888 --   688 o    0.825
   690   1 h    0.882 --   688 o    0.813
   691   8 o    1.835 --   693 h    0.840   692 h    0.824
   692   1 h    0.887 --   691 o    0.824
   693   1 h    0.894 --   691 o    0.840
   694   8 o    1.829 --   695 h    0.833   696 h    0.811
   695   1 h    0.894 --   694 o    0.833
   696   1 h    0.883 --   694 o    0.811
   697   8 o    1.852 --   698 h    0.861   699 h    0.839
   698   1 h    0.896 --   697 o    0.861
   699   1 h    0.886 --   697 o    0.839
   700   8 o    1.855 --   701 h    0.889   702 h    0.835
   701   1 h    0.902 --   700 o    0.889
   702   1 h    0.886 --   700 o    0.835
   703   8 o    1.848 --   704 h    0.916   705 h    0.815
   704   1 h    0.921 --   703 o    0.916
   705   1 h    0.878 --   703 o    0.815
   706   8 o    1.871 --   707 h    0.827   708 h    0.813
   707   1 h    0.885 --   706 o    0.827
   708   1 h    0.880 --   706 o    0.813
   709   8 o    1.811 --   711 h    0.866   710 h    0.840
   710   1 h    0.892 --   709 o    0.840
   711   1 h    0.900 --   709 o    0.866
   712   8 o    1.860 --   713 h    0.840   714 h    0.834
   713   1 h    0.885 --   712 o    0.840
   714   1 h    0.893 --   712 o    0.834
   715   8 o    1.877 --   716 h    0.824   717 h    0.814
   716   1 h    0.887 --   715 o    0.824
   717   1 h    0.873 --   715 o    0.814
   718   8 o    1.817 --   720 h    0.895   719 h    0.844
   719   1 h    0.883 --   718 o    0.844
   720   1 h    0.911 --   718 o    0.895
   721   8 o    1.854 --   723 h    0.859   722 h    0.833
   722   1 h    0.889 --   721 o    0.833
   723   1 h    0.895 --   721 o    0.859
   724   8 o    1.861 --   726 h    0.819   725 h    0.788
   725   1 h    0.878 --   724 o    0.788
   726   1 h    0.887 --   724 o    0.819
   727   8 o    1.855 --   728 h    0.845   729 h    0.844
   728   1 h    0.888 --   727 o    0.845
   729   1 h    0.894 --   727 o    0.844
   730   8 o    1.856 --   732 h    0.842   731 h    0.829
   731   1 h    0.882 --   730 o    0.829
   732   1 h    0.887 --   730 o    0.842
   733   8 o    1.849 --   735 h    0.892   734 h    0.794
   734   1 h    0.874 --   733 o    0.794
   735   1 h    0.907 --   733 o    0.892
   736   8 o    1.885 --   737 h    0.833   738 h    0.821
   737   1 h    0.885 --   736 o    0.833
   738   1 h    0.878 --   736 o    0.821
   739   8 o    1.872 --   740 h    0.851   741 h    0.844
   740   1 h    0.893 --   739 o    0.851
   741   1 h    0.888 --   739 o    0.844
   742   8 o    1.839 --   744 h    0.890   743 h    0.815
   743   1 h    0.880 --   742 o    0.815
   744   1 h    0.904 --   742 o    0.890
   745   8 o    1.877 --   746 h    0.846   747 h    0.829
   746   1 h    0.884 --   745 o    0.846
   747   1 h    0.884 --   745 o    0.829
   748   8 o    1.883 --   749 h    0.833   750 h    0.785
   749   1 h    0.892 --   748 o    0.833
   750   1 h    0.881 --   748 o    0.785
   751   8 o    1.838 --   753 h    0.877   752 h    0.843
   752   1 h    0.877 --   751 o    0.843
   753   1 h    0.890 --   751 o    0.877
   754   8 o    1.854 --   755 h    0.877   756 h    0.875
   755   1 h    0.892 --   754 o    0.877
   756   1 h    0.885 --   754 o    0.875
 ---------------------------------------------------------------------------

Topologies differ in total number of bonds
Writing topology from bond orders to xtbtopo.mol

molecular dipole:
                 x           y           z       tot (Debye)
 q only:       -4.655      -0.385       0.554
   full:       -6.391      -0.783       0.225      16.376
molecular quadrupole (traceless):
                xx          xy          yy          xz          yz          zz
 q only:     -123.380      -0.566     110.079     -28.547     -61.586      13.302
  q+dip:     -154.928     -39.540     138.731     -42.936     -86.262      16.197
   full:     -152.337     -40.718     138.273     -45.333     -87.236      14.064


           -------------------------------------------------
          | TOTAL ENERGY            -1283.342955678962 Eh   |
          | GRADIENT NORM               0.036620138761 Eh/α |
          | HOMO-LUMO GAP               8.027090363043 eV   |
           -------------------------------------------------

------------------------------------------------------------------------
 * finished run on 2022/11/24 at 09:29:07.642     
------------------------------------------------------------------------
 total:
 * wall-time:     0 d,  0 h,  0 min, 57.567 sec
 *  cpu-time:     0 d,  0 h,  1 min, 12.971 sec
 * ratio c/w:     1.268 speedup
 SCF:
 * wall-time:     0 d,  0 h,  0 min, 56.545 sec
 *  cpu-time:     0 d,  0 h,  1 min, 11.260 sec
 * ratio c/w:     1.260 speedup

