      -----------------------------------------------------------      
     |                   =====================                   |     
     |                           x T B                           |     
     |                   =====================                   |     
     |                         S. Grimme                         |     
     |          Mulliken Center for Theoretical Chemistry        |     
     |                    University of Bonn                     |     
      -----------------------------------------------------------      

   * xtb version 6.5.1 (579679a) compiled by 'ehlert@majestix' on 2022-07-11

   xtb is free software: you can redistribute it and/or modify it under
   the terms of the GNU Lesser General Public License as published by
   the Free Software Foundation, either version 3 of the License, or
   (at your option) any later version.
   
   xtb is distributed in the hope that it will be useful,
   but WITHOUT ANY WARRANTY; without even the implied warranty of
   MERCHANTABILITY or FITNESS FOR A PARTICULAR PURPOSE.  See the
   GNU Lesser General Public License for more details.
   
   Cite this work as:
   * C. Bannwarth, E. Caldeweyher, S. Ehlert, A. Hansen, P. Pracht,
     J. Seibert, S. Spicher, S. Grimme, WIREs Comput. Mol. Sci., 2020, 11,
     e01493. DOI: 10.1002/wcms.1493
   
   for GFN2-xTB:
   * C. Bannwarth, S. Ehlert and S. Grimme., J. Chem. Theory Comput., 2019,
     15, 1652-1671. DOI: 10.1021/acs.jctc.8b01176
   for GFN1-xTB:
   * S. Grimme, C. Bannwarth, P. Shushkov, J. Chem. Theory Comput., 2017,
     13, 1989-2009. DOI: 10.1021/acs.jctc.7b00118
   for GFN0-xTB:
   * P. Pracht, E. Caldeweyher, S. Ehlert, S. Grimme, ChemRxiv, 2019, preprint.
     DOI: 10.26434/chemrxiv.8326202.v1
   for GFN-FF:
   * S. Spicher and S. Grimme, Angew. Chem. Int. Ed., 2020, 59, 15665-15673.
     DOI: 10.1002/anie.202004239
   
   for ALPB and GBSA implicit solvation:
   * S. Ehlert, M. Stahn, S. Spicher, S. Grimme, J. Chem. Theory Comput.,
     2021, 17, 4250-4261. DOI: 10.1021/acs.jctc.1c00471
   
   for DFT-D4:
   * E. Caldeweyher, C. Bannwarth and S. Grimme, J. Chem. Phys., 2017,
     147, 034112. DOI: 10.1063/1.4993215
   * E. Caldeweyher, S. Ehlert, A. Hansen, H. Neugebauer, S. Spicher,
     C. Bannwarth and S. Grimme, J. Chem. Phys., 2019, 150, 154122.
     DOI: 10.1063/1.5090222
   * E. Caldeweyher, J.-M. Mewes, S. Ehlert and S. Grimme, Phys. Chem. Chem. Phys.
     2020, 22, 8499-8512. DOI: 10.1039/D0CP00502A
   
   for sTDA-xTB:
   * S. Grimme and C. Bannwarth, J. Chem. Phys., 2016, 145, 054103.
     DOI: 10.1063/1.4959605
   
   in the mass-spec context:
   * V. Asgeirsson, C. Bauer and S. Grimme, Chem. Sci., 2017, 8, 4879.
     DOI: 10.1039/c7sc00601b
   * J. Koopman and S. Grimme, ACS Omega 2019, 4, 12, 15120-15133.
     DOI: 10.1021/acsomega.9b02011
   
   for metadynamics refer to:
   * S. Grimme, J. Chem. Theory Comput., 2019, 155, 2847-2862
     DOI: 10.1021/acs.jctc.9b00143
   
   for SPH calculations refer to:
   * S. Spicher and S. Grimme, J. Chem. Theory Comput., 2021, 17, 1701-1714
     DOI: 10.1021/acs.jctc.0c01306
   
   with help from (in alphabetical order)
   P. Atkinson, C. Bannwarth, F. Bohle, G. Brandenburg, E. Caldeweyher
   M. Checinski, S. Dohm, S. Ehlert, S. Ehrlich, I. Gerasimov, C. Hölzer
   A. Katbashev, J. Koopman, C. Lavigne, S. Lehtola, F. März, M. Müller,
   F. Musil, H. Neugebauer, J. Pisarek, C. Plett, P. Pracht, F. Pultar,
   J. Seibert, P. Shushkov, S. Spicher, M. Stahn, M. Steiner, T. Strunk,
   J. Stückrath, T. Rose, and J. Unsleber
   
 * started run on 2022/11/24 at 09:27:46.526     

           -------------------------------------------------
          |                Calculation Setup                |
           -------------------------------------------------

          program call               : xtb xtbopt.coord --gfn2 --sp --gbsa water
          hostname                   : cn0341
          coordinate file            : xtbopt.coord
          omp threads                :                     2

   ID    Z sym.   atoms
    1    8 o      1, 4, 7, 10, 13, 16, 19, 22, 25, 28, 31, 34, 37, 40, 43,
                  46, 49, 52, 55, 58, 61, 64, 67, 70, 73, 76, 79, 82, 85, 88,
                  91, 94, 97, 100, 103, 106, 109, 112, 115, 118, 121, 124,
                  127, 130, 133, 136, 139, 142, 145, 148, 151, 154, 157, 160,
                  163, 166, 169, 172, 175, 178, 181, 184, 187, 190, 193, 196,
                  199, 202, 205, 208, 211, 214, 217, 220, 223, 226, 229, 232,
                  235, 238, 241, 244, 247, 250, 253, 256, 259, 262, 265, 268,
                  271, 274, 277, 280, 283, 286, 289, 292, 295, 298, 301, 304,
                  307, 310, 313, 316, 319, 322, 325, 328, 331, 334, 337, 340,
                  343, 346, 349, 352, 355, 358, 361, 364, 367, 370, 373, 376,
                  379, 382, 385, 388, 391, 394, 397, 400, 403, 406, 409, 412,
                  415, 418, 421, 424, 427, 430, 433, 436, 439, 442, 445, 448,
                  451, 454, 457, 460, 463, 466, 469, 472, 475, 478, 481, 484,
                  487, 490, 493, 496, 499, 502, 505, 508, 511, 514, 517, 520,
                  523, 526, 529, 532, 535, 538, 541, 544, 547, 550, 553, 556,
                  559, 562, 565, 568, 571, 574, 577, 580, 583, 586, 589, 592,
                  595, 598, 601, 604, 607, 610, 613, 616, 619, 622, 625, 628,
                  631, 634, 637, 640, 643, 646, 649, 652, 655, 658, 661, 664,
                  667, 670, 673, 676, 679, 682, 685, 688, 691, 694, 697, 700,
                  703, 706, 709, 712, 715, 718, 721, 724, 727, 730, 733, 736,
                  739, 742, 745, 748, 751, 754
    2    1 h      2, 3, 5, 6, 8, 9, 11, 12, 14, 15, 17, 18, 20, 21, 23, 24,
                  26, 27, 29, 30, 32, 33, 35, 36, 38, 39, 41, 42, 44, 45, 47,
                  48, 50, 51, 53, 54, 56, 57, 59, 60, 62, 63, 65, 66, 68, 69,
                  71, 72, 74, 75, 77, 78, 80, 81, 83, 84, 86, 87, 89, 90, 92,
                  93, 95, 96, 98, 99, 101, 102, 104, 105, 107, 108, 110, 111,
                  113, 114, 116, 117, 119, 120, 122, 123, 125, 126, 128, 129,
                  131, 132, 134, 135, 137, 138, 140, 141, 143, 144, 146, 147,
                  149, 150, 152, 153, 155, 156, 158, 159, 161, 162, 164, 165,
                  167, 168, 170, 171, 173, 174, 176, 177, 179, 180, 182, 183,
                  185, 186, 188, 189, 191, 192, 194, 195, 197, 198, 200, 201,
                  203, 204, 206, 207, 209, 210, 212, 213, 215, 216, 218, 219,
                  221, 222, 224, 225, 227, 228, 230, 231, 233, 234, 236, 237,
                  239, 240, 242, 243, 245, 246, 248, 249, 251, 252, 254, 255,
                  257, 258, 260, 261, 263, 264, 266, 267, 269, 270, 272, 273,
                  275, 276, 278, 279, 281, 282, 284, 285, 287, 288, 290, 291,
                  293, 294, 296, 297, 299, 300, 302, 303, 305, 306, 308, 309,
                  311, 312, 314, 315, 317, 318, 320, 321, 323, 324, 326, 327,
                  329, 330, 332, 333, 335, 336, 338, 339, 341, 342, 344, 345,
                  347, 348, 350, 351, 353, 354, 356, 357, 359, 360, 362, 363,
                  365, 366, 368, 369, 371, 372, 374, 375, 377, 378, 380, 381,
                  383, 384, 386, 387, 389, 390, 392, 393, 395, 396, 398, 399,
                  401, 402, 404, 405, 407, 408, 410, 411, 413, 414, 416, 417,
                  419, 420, 422, 423, 425, 426, 428, 429, 431, 432, 434, 435,
                  437, 438, 440, 441, 443, 444, 446, 447, 449, 450, 452, 453,
                  455, 456, 458, 459, 461, 462, 464, 465, 467, 468, 470, 471,
                  473, 474, 476, 477, 479, 480, 482, 483, 485, 486, 488, 489,
                  491, 492, 494, 495, 497, 498, 500, 501, 503, 504, 506, 507,
                  509, 510, 512, 513, 515, 516, 518, 519, 521, 522, 524, 525,
                  527, 528, 530, 531, 533, 534, 536, 537, 539, 540, 542, 543,
                  545, 546, 548, 549, 551, 552, 554, 555, 557, 558, 560, 561,
                  563, 564, 566, 567, 569, 570, 572, 573, 575, 576, 578, 579,
                  581, 582, 584, 585, 587, 588, 590, 591, 593, 594, 596, 597,
                  599, 600, 602, 603, 605, 606, 608, 609, 611, 612, 614, 615,
                  617, 618, 620, 621, 623, 624, 626, 627, 629, 630, 632, 633,
                  635, 636, 638, 639, 641, 642, 644, 645, 647, 648, 650, 651,
                  653, 654, 656, 657, 659, 660, 662, 663, 665, 666, 668, 669,
                  671, 672, 674, 675, 677, 678, 680, 681, 683, 684, 686, 687,
                  689, 690, 692, 693, 695, 696, 698, 699, 701, 702, 704, 705,
                  707, 708, 710, 711, 713, 714, 716, 717, 719, 720, 722, 723,
                  725, 726, 728, 729, 731, 732, 734, 735, 737, 738, 740, 741,
                  743, 744, 746, 747, 749, 750, 752, 753, 755, 756

molecular fragmentation (1/2 indicates fragments):
111222222222222222222222222222222222222222222222222222222222222222222222
222222222222222222222222222222222222222222222222222222222222222222222222
222222222222222222222222222222222222222222222222222222222222222222222222
222222222222222222222222222222222222222222222222222222222222222222222222
222222222222222222222222222222222222222222222222222222222222222222222222
222222222222222222222222222222222222222222222222222222222222222222222222
222222222222222222222222222222222222222222222222222222222222222222222222
222222222222222222222222222222222222222222222222222222222222222222222222
222222222222222222222222222222222222222222222222222222222222222222222222
222222222222222222222222222222222222222222222222222222222222222222222222
222222222222222222222222222222222222
# atoms in fragment 1/2:     3   753
 fragment masses (1/2) :       18.02     4521.84
CMA distance (Bohr)    :  17.134
constraining FC (au)   :  0.0500

           -------------------------------------------------
          |                 G F N 2 - x T B                 |
           -------------------------------------------------

        Reference                      10.1021/acs.jctc.8b01176
      * Hamiltonian:
        H0-scaling (s, p, d)           1.850000    2.230000    2.230000
        zeta-weighting                 0.500000
      * Dispersion:
        s8                             2.700000
        a1                             0.520000
        a2                             5.000000
        s9                             5.000000
      * Repulsion:
        kExp                           1.500000    1.000000
        rExp                           1.000000
      * Coulomb:
        alpha                          2.000000
        third order                    shell-resolved
        anisotropic                    true
        a3                             3.000000
        a5                             4.000000
        cn-shift                       1.200000
        cn-exp                         4.000000
        max-rad                        5.000000

      * Solvation model:               GBSA
        Solvent                        water
        Parameter file                 internal GFN2-xTB/GBSA
        Dielectric constant                8.0200E+01
        Reference state                gsolv [1 M gas/solution]
        Free energy shift                  1.8574E-03 Eh       1.1656E+00 kcal/mol
        Temperature                        2.9815E+02 K
        Density                            1.0000E+00 kg/L
        Solvent mass                       1.8000E+01 g/mol
        Interaction kernel             Still
        Born radius scaling (c1)           1.5524E+00
        Born radii integrator          GBOBC
        Born offset                        2.4628E-02 a0       4.6540E-02 AA
        H-bond correction              true
        Ion screening                  false
        Surface tension                    1.0000E-05 Eh       1.5569E+01 dyn/cm
        Grid points                               230 per atom

          ...................................................
          :                      SETUP                      :
          :.................................................:
          :  # basis functions                1512          :
          :  # atomic orbitals                1512          :
          :  # shells                         1008          :
          :  # electrons                      2016          :
          :  max. iterations                   250          :
          :  Hamiltonian                  GFN2-xTB          :
          :  restarted?                      false          :
          :  GBSA solvation                   true          :
          :  PC potential                    false          :
          :  electronic temp.          300.0000000     K    :
          :  accuracy                    1.0000000          :
          :  -> integral cutoff          0.2500000E+02      :
          :  -> integral neglect         0.1000000E-07      :
          :  -> SCF convergence          0.1000000E-05 Eh   :
          :  -> wf. convergence          0.1000000E-03 e    :
          :  Broyden damping             0.4000000          :
          ...................................................

 iter      E             dE          RMSdq      gap      omega  full diag
   1  -1291.2595024 -0.129126E+04  0.408E+00    8.31       0.0  T
   2  -1291.3419504 -0.824481E-01  0.242E+00    8.27       1.0  T
   3  -1291.3776709 -0.357205E-01  0.224E-01    7.90       1.0  T
   4  -1291.3830738 -0.540288E-02  0.483E-02    8.02       1.0  T
   5  -1291.3832346 -0.160817E-03  0.309E-02    7.99       1.0  T
   6  -1291.3832854 -0.507607E-04  0.382E-03    7.99       1.0  T
   7  -1291.3832871 -0.168531E-05  0.950E-04    7.99       3.8  T
   8  -1291.3832872 -0.115513E-06  0.457E-04    7.99       8.0  T
   9  -1291.3832872 -0.347443E-07  0.132E-04    7.99      27.5  T

   *** convergence criteria satisfied after 9 iterations ***

         #    Occupation            Energy/Eh            Energy/eV
      -------------------------------------------------------------
         1        2.0000           -0.6574790             -17.8909
       ...           ...                  ...                  ...
      1002        2.0000           -0.3535616              -9.6209
      1003        2.0000           -0.3531124              -9.6087
      1004        2.0000           -0.3523516              -9.5880
      1005        2.0000           -0.3520456              -9.5796
      1006        2.0000           -0.3514610              -9.5637
      1007        2.0000           -0.3510771              -9.5533
      1008        2.0000           -0.3495215              -9.5110 (HOMO)
      1009                         -0.0560482              -1.5251 (LUMO)
      1010                         -0.0472053              -1.2845
      1011                         -0.0392057              -1.0668
      1012                         -0.0351881              -0.9575
      1013                         -0.0295399              -0.8038
       ...                                ...                  ...
      1512                          0.4865077              13.2385
      -------------------------------------------------------------
                  HL-Gap            0.2934733 Eh            7.9858 eV
             Fermi-level           -0.2027848 Eh           -5.5181 eV

 SCC (total)                   0 d,  0 h,  0 min, 19.887 sec
 SCC setup                      ...        0 min,  0.116 sec (  0.584%)
 Dispersion                     ...        0 min,  0.109 sec (  0.546%)
 classical contributions        ...        0 min,  0.023 sec (  0.117%)
 integral evaluation            ...        0 min,  0.607 sec (  3.051%)
 iterations                     ...        0 min,  6.583 sec ( 33.101%)
 molecular gradient             ...        0 min, 12.384 sec ( 62.275%)
 printout                       ...        0 min,  0.065 sec (  0.326%)

         :::::::::::::::::::::::::::::::::::::::::::::::::::::
         ::                     SUMMARY                     ::
         :::::::::::::::::::::::::::::::::::::::::::::::::::::
         :: total energy           -1283.606508508570 Eh    ::
         :: total w/o Gsasa/hb     -1283.377268946643 Eh    ::
         :: gradient norm              0.098315302463 Eh/a0 ::
         :: HOMO-LUMO gap              7.985816270545 eV    ::
         ::.................................................::
         :: SCC energy             -1291.383287234560 Eh    ::
         :: -> isotropic ES            7.358665520875 Eh    ::
         :: -> anisotropic ES         -1.654867993316 Eh    ::
         :: -> anisotropic XC         -0.119759673584 Eh    ::
         :: -> dispersion             -0.792757173438 Eh    ::
         :: -> Gsolv                  -0.285890447993 Eh    ::
         ::    -> Gelec               -0.056650886066 Eh    ::
         ::    -> Gsasa                0.006718598052 Eh    ::
         ::    -> Ghb                 -0.237815603106 Eh    ::
         ::    -> Gshift               0.001857443127 Eh    ::
         :: repulsion energy           7.621498901810 Eh    ::
         :: add. restraining           0.000000000000 Eh    ::
         :: total charge              -0.000000000000 e     ::
         :::::::::::::::::::::::::::::::::::::::::::::::::::::

           -------------------------------------------------
          |                Property Printout                |
           -------------------------------------------------

    * Orbital Energies and Occupations

         #    Occupation            Energy/Eh            Energy/eV
      -------------------------------------------------------------
         1        2.0000           -0.6574790             -17.8909
       ...           ...                  ...                  ...
       996        2.0000           -0.3569787              -9.7139
       997        2.0000           -0.3555666              -9.6755
       998        2.0000           -0.3553110              -9.6685
       999        2.0000           -0.3549437              -9.6585
      1000        2.0000           -0.3549087              -9.6576
      1001        2.0000           -0.3540313              -9.6337
      1002        2.0000           -0.3535616              -9.6209
      1003        2.0000           -0.3531124              -9.6087
      1004        2.0000           -0.3523516              -9.5880
      1005        2.0000           -0.3520456              -9.5796
      1006        2.0000           -0.3514610              -9.5637
      1007        2.0000           -0.3510771              -9.5533
      1008        2.0000           -0.3495215              -9.5110 (HOMO)
      1009                         -0.0560482              -1.5251 (LUMO)
      1010                         -0.0472053              -1.2845
      1011                         -0.0392057              -1.0668
      1012                         -0.0351881              -0.9575
      1013                         -0.0295399              -0.8038
      1014                         -0.0222656              -0.6059
      1015                         -0.0218243              -0.5939
      1016                         -0.0105371              -0.2867
      1017                         -0.0092576              -0.2519
      1018                         -0.0070517              -0.1919
      1019                         -0.0038409              -0.1045
       ...                                ...                  ...
      1512                          0.4865077              13.2385
      -------------------------------------------------------------
                  HL-Gap            0.2934733 Eh            7.9858 eV
             Fermi-level           -0.2027848 Eh           -5.5181 eV

     #   Z          covCN         q      C6AA      α(0)
     1   8 o        1.609    -0.667    26.836     6.992
     2   1 h        0.805     0.335     0.624     1.241
     3   1 h        0.805     0.331     0.635     1.252
     4   8 o        1.608    -0.679    27.151     7.033
     5   1 h        0.804     0.339     0.615     1.231
     6   1 h        0.804     0.348     0.592     1.209
     7   8 o        1.607    -0.700    27.721     7.106
     8   1 h        0.803     0.361     0.563     1.178
     9   1 h        0.804     0.346     0.597     1.214
    10   8 o        1.607    -0.707    27.892     7.128
    11   1 h        0.804     0.346     0.597     1.213
    12   1 h        0.804     0.356     0.574     1.190
    13   8 o        1.609    -0.688    27.405     7.065
    14   1 h        0.804     0.333     0.631     1.248
    15   1 h        0.804     0.342     0.608     1.225
    16   8 o        1.607    -0.696    27.612     7.092
    17   1 h        0.804     0.340     0.613     1.230
    18   1 h        0.803     0.340     0.613     1.230
    19   8 o        1.607    -0.685    27.317     7.054
    20   1 h        0.803     0.353     0.582     1.198
    21   1 h        0.804     0.346     0.597     1.214
    22   8 o        1.607    -0.686    27.340     7.057
    23   1 h        0.804     0.359     0.567     1.183
    24   1 h        0.803     0.347     0.597     1.213
    25   8 o        1.608    -0.671    26.956     7.007
    26   1 h        0.805     0.342     0.606     1.223
    27   1 h        0.803     0.327     0.644     1.261
    28   8 o        1.609    -0.680    27.188     7.037
    29   1 h        0.803     0.352     0.584     1.201
    30   1 h        0.804     0.352     0.585     1.201
    31   8 o        1.607    -0.694    27.553     7.084
    32   1 h        0.803     0.358     0.569     1.185
    33   1 h        0.803     0.354     0.579     1.195
    34   8 o        1.609    -0.672    26.967     7.009
    35   1 h        0.804     0.339     0.614     1.230
    36   1 h        0.804     0.336     0.623     1.240
    37   8 o        1.606    -0.700    27.719     7.106
    38   1 h        0.802     0.370     0.544     1.159
    39   1 h        0.804     0.335     0.624     1.240
    40   8 o        1.608    -0.682    27.238     7.044
    41   1 h        0.804     0.352     0.584     1.200
    42   1 h        0.804     0.345     0.599     1.216
    43   8 o        1.606    -0.712    28.042     7.147
    44   1 h        0.803     0.351     0.587     1.203
    45   1 h        0.804     0.355     0.577     1.194
    46   8 o        1.607    -0.693    27.535     7.082
    47   1 h        0.803     0.355     0.578     1.194
    48   1 h        0.803     0.361     0.564     1.180
    49   8 o        1.604    -0.662    26.718     6.976
    50   1 h        0.798     0.364     0.557     1.173
    51   1 h        0.805     0.345     0.601     1.217
    52   8 o        1.611    -0.664    26.780     6.984
    53   1 h        0.804     0.332     0.633     1.250
    54   1 h        0.804     0.348     0.594     1.210
    55   8 o        1.608    -0.679    27.165     7.034
    56   1 h        0.804     0.347     0.594     1.211
    57   1 h        0.804     0.346     0.599     1.216
    58   8 o        1.608    -0.672    26.979     7.010
    59   1 h        0.805     0.340     0.612     1.228
    60   1 h        0.804     0.351     0.586     1.203
    61   8 o        1.608    -0.665    26.805     6.988
    62   1 h        0.804     0.342     0.608     1.225
    63   1 h        0.804     0.331     0.635     1.252
    64   8 o        1.607    -0.691    27.485     7.076
    65   1 h        0.804     0.342     0.608     1.225
    66   1 h        0.803     0.357     0.573     1.189
    67   8 o        1.604    -0.725    28.386     7.191
    68   1 h        0.802     0.348     0.593     1.210
    69   1 h        0.802     0.357     0.572     1.188
    70   8 o        1.608    -0.673    26.990     7.012
    71   1 h        0.804     0.347     0.596     1.213
    72   1 h        0.804     0.348     0.592     1.208
    73   8 o        1.609    -0.682    27.246     7.045
    74   1 h        0.804     0.342     0.608     1.225
    75   1 h        0.805     0.317     0.672     1.287
    76   8 o        1.608    -0.685    27.311     7.053
    77   1 h        0.803     0.342     0.606     1.223
    78   1 h        0.804     0.339     0.615     1.232
    79   8 o        1.608    -0.683    27.251     7.045
    80   1 h        0.805     0.314     0.679     1.294
    81   1 h        0.802     0.364     0.557     1.172
    82   8 o        1.609    -0.681    27.202     7.039
    83   1 h        0.805     0.330     0.637     1.253
    84   1 h        0.804     0.351     0.587     1.203
    85   8 o        1.607    -0.676    27.092     7.025
    86   1 h        0.804     0.329     0.640     1.257
    87   1 h        0.803     0.352     0.584     1.201
    88   8 o        1.608    -0.681    27.207     7.040
    89   1 h        0.804     0.351     0.586     1.203
    90   1 h        0.804     0.352     0.584     1.200
    91   8 o        1.608    -0.679    27.149     7.032
    92   1 h        0.803     0.350     0.589     1.205
    93   1 h        0.805     0.326     0.648     1.264
    94   8 o        1.607    -0.689    27.420     7.067
    95   1 h        0.804     0.342     0.608     1.225
    96   1 h        0.803     0.359     0.568     1.184
    97   8 o        1.608    -0.676    27.081     7.023
    98   1 h        0.804     0.332     0.633     1.250
    99   1 h        0.804     0.331     0.635     1.252
   100   8 o        1.606    -0.688    27.399     7.065
   101   1 h        0.802     0.362     0.562     1.178
   102   1 h        0.805     0.321     0.661     1.277
   103   8 o        1.608    -0.692    27.501     7.078
   104   1 h        0.803     0.354     0.578     1.194
   105   1 h        0.805     0.351     0.586     1.202
   106   8 o        1.606    -0.697    27.628     7.094
   107   1 h        0.804     0.335     0.624     1.241
   108   1 h        0.803     0.345     0.601     1.218
   109   8 o        1.604    -0.708    27.921     7.131
   110   1 h        0.802     0.361     0.564     1.180
   111   1 h        0.803     0.357     0.573     1.189
   112   8 o        1.609    -0.670    26.928     7.004
   113   1 h        0.805     0.337     0.619     1.235
   114   1 h        0.804     0.341     0.611     1.227
   115   8 o        1.609    -0.679    27.152     7.033
   116   1 h        0.804     0.340     0.613     1.230
   117   1 h        0.805     0.342     0.607     1.224
   118   8 o        1.609    -0.709    27.961     7.137
   119   1 h        0.804     0.342     0.608     1.225
   120   1 h        0.804     0.343     0.605     1.221
   121   8 o        1.608    -0.679    27.148     7.032
   122   1 h        0.805     0.323     0.656     1.272
   123   1 h        0.803     0.333     0.629     1.246
   124   8 o        1.608    -0.690    27.445     7.071
   125   1 h        0.805     0.345     0.599     1.216
   126   1 h        0.803     0.363     0.559     1.175
   127   8 o        1.606    -0.687    27.366     7.060
   128   1 h        0.804     0.339     0.615     1.232
   129   1 h        0.803     0.355     0.576     1.193
   130   8 o        1.607    -0.686    27.332     7.056
   131   1 h        0.802     0.340     0.611     1.228
   132   1 h        0.805     0.315     0.676     1.292
   133   8 o        1.608    -0.660    26.660     6.969
   134   1 h        0.804     0.321     0.662     1.278
   135   1 h        0.805     0.334     0.627     1.244
   136   8 o        1.607    -0.686    27.355     7.059
   137   1 h        0.803     0.349     0.591     1.207
   138   1 h        0.803     0.351     0.586     1.202
   139   8 o        1.609    -0.684    27.301     7.052
   140   1 h        0.804     0.365     0.554     1.169
   141   1 h        0.805     0.334     0.628     1.245
   142   8 o        1.608    -0.668    26.883     6.998
   143   1 h        0.803     0.320     0.665     1.281
   144   1 h        0.804     0.329     0.640     1.257
   145   8 o        1.609    -0.657    26.584     6.959
   146   1 h        0.805     0.320     0.664     1.280
   147   1 h        0.805     0.326     0.647     1.263
   148   8 o        1.606    -0.693    27.531     7.082
   149   1 h        0.802     0.360     0.565     1.181
   150   1 h        0.805     0.310     0.691     1.305
   151   8 o        1.604    -0.697    27.628     7.094
   152   1 h        0.802     0.339     0.615     1.232
   153   1 h        0.803     0.355     0.576     1.192
   154   8 o        1.609    -0.709    27.938     7.134
   155   1 h        0.803     0.357     0.573     1.189
   156   1 h        0.803     0.353     0.582     1.199
   157   8 o        1.608    -0.644    26.254     6.915
   158   1 h        0.806     0.313     0.683     1.298
   159   1 h        0.802     0.342     0.608     1.225
   160   8 o        1.607    -0.679    27.156     7.033
   161   1 h        0.804     0.353     0.582     1.199
   162   1 h        0.804     0.344     0.603     1.220
   163   8 o        1.604    -0.714    28.076     7.151
   164   1 h        0.802     0.363     0.558     1.174
   165   1 h        0.803     0.327     0.645     1.262
   166   8 o        1.607    -0.681    27.201     7.039
   167   1 h        0.804     0.350     0.589     1.205
   168   1 h        0.803     0.349     0.590     1.207
   169   8 o        1.607    -0.700    27.714     7.105
   170   1 h        0.804     0.346     0.599     1.215
   171   1 h        0.803     0.362     0.560     1.176
   172   8 o        1.607    -0.680    27.189     7.037
   173   1 h        0.804     0.347     0.596     1.213
   174   1 h        0.803     0.350     0.589     1.205
   175   8 o        1.607    -0.674    27.025     7.016
   176   1 h        0.804     0.323     0.656     1.272
   177   1 h        0.804     0.341     0.611     1.228
   178   8 o        1.607    -0.682    27.231     7.043
   179   1 h        0.802     0.366     0.553     1.168
   180   1 h        0.804     0.339     0.614     1.231
   181   8 o        1.606    -0.701    27.745     7.109
   182   1 h        0.803     0.345     0.600     1.217
   183   1 h        0.804     0.349     0.590     1.207
   184   8 o        1.610    -0.663    26.734     6.978
   185   1 h        0.805     0.334     0.627     1.244
   186   1 h        0.804     0.335     0.624     1.241
   187   8 o        1.607    -0.672    26.976     7.010
   188   1 h        0.806     0.303     0.713     1.326
   189   1 h        0.802     0.349     0.592     1.208
   190   8 o        1.609    -0.669    26.899     7.000
   191   1 h        0.805     0.338     0.618     1.235
   192   1 h        0.804     0.338     0.617     1.233
   193   8 o        1.607    -0.682    27.240     7.044
   194   1 h        0.803     0.346     0.598     1.215
   195   1 h        0.803     0.344     0.603     1.220
   196   8 o        1.608    -0.677    27.110     7.027
   197   1 h        0.803     0.359     0.567     1.183
   198   1 h        0.804     0.353     0.582     1.198
   199   8 o        1.610    -0.670    26.936     7.005
   200   1 h        0.804     0.341     0.610     1.227
   201   1 h        0.804     0.337     0.620     1.237
   202   8 o        1.607    -0.676    27.082     7.024
   203   1 h        0.803     0.349     0.591     1.208
   204   1 h        0.804     0.347     0.595     1.211
   205   8 o        1.608    -0.665    26.810     6.988
   206   1 h        0.803     0.354     0.579     1.195
   207   1 h        0.805     0.329     0.641     1.257
   208   8 o        1.604    -0.705    27.844     7.122
   209   1 h        0.805     0.321     0.662     1.278
   210   1 h        0.801     0.371     0.543     1.158
   211   8 o        1.605    -0.698    27.649     7.097
   212   1 h        0.802     0.348     0.593     1.209
   213   1 h        0.804     0.326     0.647     1.264
   214   8 o        1.609    -0.666    26.814     6.989
   215   1 h        0.803     0.352     0.584     1.200
   216   1 h        0.805     0.329     0.639     1.255
   217   8 o        1.610    -0.684    27.283     7.050
   218   1 h        0.804     0.347     0.594     1.211
   219   1 h        0.805     0.342     0.608     1.224
   220   8 o        1.608    -0.674    27.016     7.015
   221   1 h        0.804     0.353     0.582     1.198
   222   1 h        0.804     0.324     0.654     1.271
   223   8 o        1.607    -0.702    27.769     7.112
   224   1 h        0.804     0.362     0.561     1.177
   225   1 h        0.805     0.345     0.600     1.217
   226   8 o        1.609    -0.640    26.160     6.903
   227   1 h        0.804     0.331     0.636     1.253
   228   1 h        0.805     0.307     0.699     1.313
   229   8 o        1.608    -0.670    26.937     7.005
   230   1 h        0.804     0.354     0.579     1.195
   231   1 h        0.804     0.324     0.653     1.270
   232   8 o        1.609    -0.649    26.380     6.932
   233   1 h        0.804     0.331     0.634     1.251
   234   1 h        0.805     0.333     0.629     1.246
   235   8 o        1.608    -0.686    27.336     7.056
   236   1 h        0.804     0.362     0.562     1.178
   237   1 h        0.803     0.335     0.625     1.242
   238   8 o        1.606    -0.652    26.462     6.943
   239   1 h        0.802     0.337     0.620     1.237
   240   1 h        0.805     0.310     0.691     1.306
   241   8 o        1.606    -0.684    27.286     7.050
   242   1 h        0.804     0.331     0.635     1.252
   243   1 h        0.802     0.339     0.615     1.232
   244   8 o        1.607    -0.683    27.274     7.048
   245   1 h        0.803     0.342     0.607     1.224
   246   1 h        0.804     0.329     0.641     1.258
   247   8 o        1.608    -0.671    26.943     7.006
   248   1 h        0.804     0.339     0.614     1.231
   249   1 h        0.804     0.325     0.651     1.267
   250   8 o        1.608    -0.692    27.493     7.077
   251   1 h        0.804     0.348     0.592     1.209
   252   1 h        0.804     0.336     0.621     1.238
   253   8 o        1.607    -0.685    27.312     7.053
   254   1 h        0.803     0.351     0.587     1.203
   255   1 h        0.804     0.345     0.601     1.218
   256   8 o        1.607    -0.670    26.932     7.004
   257   1 h        0.803     0.364     0.557     1.172
   258   1 h        0.805     0.328     0.643     1.260
   259   8 o        1.606    -0.691    27.484     7.076
   260   1 h        0.805     0.326     0.648     1.265
   261   1 h        0.801     0.360     0.567     1.183
   262   8 o        1.608    -0.685    27.315     7.054
   263   1 h        0.804     0.329     0.639     1.255
   264   1 h        0.804     0.354     0.579     1.195
   265   8 o        1.607    -0.681    27.205     7.040
   266   1 h        0.805     0.316     0.674     1.289
   267   1 h        0.802     0.363     0.560     1.175
   268   8 o        1.607    -0.703    27.785     7.114
   269   1 h        0.804     0.337     0.620     1.236
   270   1 h        0.803     0.338     0.617     1.234
   271   8 o        1.607    -0.688    27.391     7.063
   272   1 h        0.803     0.351     0.587     1.203
   273   1 h        0.803     0.365     0.554     1.170
   274   8 o        1.608    -0.685    27.304     7.052
   275   1 h        0.804     0.351     0.586     1.203
   276   1 h        0.803     0.369     0.547     1.162
   277   8 o        1.608    -0.691    27.467     7.073
   278   1 h        0.804     0.350     0.588     1.204
   279   1 h        0.804     0.355     0.577     1.193
   280   8 o        1.604    -0.716    28.132     7.158
   281   1 h        0.803     0.348     0.594     1.211
   282   1 h        0.803     0.359     0.568     1.184
   283   8 o        1.608    -0.675    27.050     7.019
   284   1 h        0.804     0.352     0.584     1.201
   285   1 h        0.804     0.329     0.641     1.257
   286   8 o        1.609    -0.683    27.255     7.046
   287   1 h        0.804     0.346     0.597     1.213
   288   1 h        0.804     0.337     0.619     1.236
   289   8 o        1.606    -0.704    27.807     7.117
   290   1 h        0.803     0.371     0.541     1.155
   291   1 h        0.803     0.341     0.610     1.227
   292   8 o        1.608    -0.666    26.824     6.990
   293   1 h        0.804     0.333     0.630     1.247
   294   1 h        0.805     0.332     0.633     1.250
   295   8 o        1.608    -0.681    27.201     7.039
   296   1 h        0.804     0.360     0.565     1.180
   297   1 h        0.804     0.325     0.652     1.268
   298   8 o        1.610    -0.666    26.832     6.991
   299   1 h        0.805     0.337     0.620     1.237
   300   1 h        0.804     0.336     0.623     1.240
   301   8 o        1.604    -0.711    28.015     7.143
   302   1 h        0.803     0.338     0.618     1.235
   303   1 h        0.802     0.366     0.553     1.168
   304   8 o        1.607    -0.665    26.799     6.987
   305   1 h        0.806     0.310     0.690     1.305
   306   1 h        0.802     0.360     0.565     1.181
   307   8 o        1.608    -0.705    27.834     7.120
   308   1 h        0.804     0.357     0.572     1.188
   309   1 h        0.804     0.349     0.591     1.208
   310   8 o        1.609    -0.667    26.851     6.994
   311   1 h        0.804     0.336     0.623     1.240
   312   1 h        0.805     0.340     0.612     1.229
   313   8 o        1.608    -0.681    27.218     7.041
   314   1 h        0.805     0.323     0.656     1.272
   315   1 h        0.804     0.336     0.622     1.239
   316   8 o        1.606    -0.700    27.702     7.104
   317   1 h        0.802     0.361     0.563     1.178
   318   1 h        0.804     0.320     0.663     1.279
   319   8 o        1.609    -0.689    27.426     7.068
   320   1 h        0.804     0.355     0.577     1.193
   321   1 h        0.804     0.330     0.637     1.253
   322   8 o        1.608    -0.676    27.069     7.022
   323   1 h        0.804     0.332     0.633     1.250
   324   1 h        0.803     0.344     0.603     1.220
   325   8 o        1.608    -0.684    27.278     7.049
   326   1 h        0.804     0.342     0.607     1.224
   327   1 h        0.805     0.333     0.629     1.246
   328   8 o        1.607    -0.719    28.214     7.169
   329   1 h        0.804     0.351     0.586     1.202
   330   1 h        0.803     0.354     0.578     1.195
   331   8 o        1.609    -0.677    27.095     7.025
   332   1 h        0.804     0.359     0.567     1.183
   333   1 h        0.805     0.312     0.685     1.300
   334   8 o        1.607    -0.691    27.481     7.075
   335   1 h        0.804     0.335     0.626     1.242
   336   1 h        0.803     0.362     0.562     1.177
   337   8 o        1.606    -0.694    27.541     7.083
   338   1 h        0.805     0.326     0.647     1.264
   339   1 h        0.802     0.363     0.559     1.175
   340   8 o        1.608    -0.654    26.520     6.950
   341   1 h        0.805     0.329     0.640     1.257
   342   1 h        0.803     0.350     0.588     1.205
   343   8 o        1.608    -0.672    26.970     7.009
   344   1 h        0.804     0.311     0.688     1.303
   345   1 h        0.804     0.333     0.629     1.246
   346   8 o        1.607    -0.688    27.384     7.063
   347   1 h        0.804     0.322     0.658     1.275
   348   1 h        0.803     0.352     0.583     1.200
   349   8 o        1.607    -0.668    26.886     6.998
   350   1 h        0.806     0.317     0.673     1.288
   351   1 h        0.802     0.358     0.571     1.187
   352   8 o        1.605    -0.688    27.388     7.063
   353   1 h        0.803     0.350     0.587     1.204
   354   1 h        0.803     0.336     0.622     1.239
   355   8 o        1.606    -0.687    27.359     7.059
   356   1 h        0.805     0.315     0.676     1.292
   357   1 h        0.802     0.374     0.536     1.151
   358   8 o        1.608    -0.659    26.649     6.967
   359   1 h        0.804     0.334     0.626     1.243
   360   1 h        0.803     0.332     0.631     1.248
   361   8 o        1.609    -0.677    27.115     7.028
   362   1 h        0.803     0.343     0.605     1.222
   363   1 h        0.805     0.319     0.668     1.283
   364   8 o        1.608    -0.676    27.072     7.022
   365   1 h        0.804     0.325     0.650     1.266
   366   1 h        0.803     0.358     0.570     1.186
   367   8 o        1.606    -0.706    27.872     7.125
   368   1 h        0.803     0.329     0.639     1.256
   369   1 h        0.803     0.361     0.563     1.178
   370   8 o        1.608    -0.683    27.254     7.046
   371   1 h        0.803     0.331     0.634     1.251
   372   1 h        0.805     0.318     0.669     1.285
   373   8 o        1.608    -0.674    27.040     7.018
   374   1 h        0.803     0.338     0.618     1.234
   375   1 h        0.805     0.338     0.618     1.235
   376   8 o        1.609    -0.696    27.614     7.092
   377   1 h        0.804     0.354     0.578     1.194
   378   1 h        0.803     0.359     0.567     1.183
   379   8 o        1.609    -0.674    27.020     7.016
   380   1 h        0.803     0.334     0.628     1.245
   381   1 h        0.805     0.333     0.629     1.245
   382   8 o        1.609    -0.673    27.011     7.014
   383   1 h        0.804     0.337     0.620     1.237
   384   1 h        0.804     0.336     0.623     1.239
   385   8 o        1.608    -0.669    26.902     7.000
   386   1 h        0.804     0.338     0.617     1.234
   387   1 h        0.805     0.330     0.637     1.253
   388   8 o        1.608    -0.658    26.620     6.963
   389   1 h        0.805     0.320     0.664     1.280
   390   1 h        0.803     0.346     0.598     1.215
   391   8 o        1.609    -0.674    27.021     7.016
   392   1 h        0.804     0.341     0.610     1.227
   393   1 h        0.805     0.330     0.638     1.254
   394   8 o        1.608    -0.693    27.518     7.080
   395   1 h        0.804     0.361     0.564     1.180
   396   1 h        0.804     0.333     0.630     1.247
   397   8 o        1.607    -0.699    27.673     7.100
   398   1 h        0.803     0.351     0.585     1.202
   399   1 h        0.804     0.345     0.599     1.216
   400   8 o        1.608    -0.694    27.557     7.085
   401   1 h        0.805     0.321     0.662     1.278
   402   1 h        0.803     0.357     0.572     1.188
   403   8 o        1.606    -0.703    27.798     7.116
   404   1 h        0.803     0.331     0.634     1.251
   405   1 h        0.803     0.360     0.565     1.180
   406   8 o        1.606    -0.697    27.636     7.095
   407   1 h        0.805     0.352     0.583     1.199
   408   1 h        0.805     0.343     0.604     1.221
   409   8 o        1.608    -0.667    26.838     6.992
   410   1 h        0.805     0.325     0.650     1.267
   411   1 h        0.803     0.355     0.578     1.194
   412   8 o        1.609    -0.675    27.065     7.021
   413   1 h        0.805     0.340     0.613     1.229
   414   1 h        0.805     0.339     0.614     1.231
   415   8 o        1.607    -0.680    27.192     7.038
   416   1 h        0.804     0.328     0.643     1.259
   417   1 h        0.803     0.357     0.571     1.187
   418   8 o        1.604    -0.693    27.540     7.083
   419   1 h        0.803     0.331     0.635     1.251
   420   1 h        0.802     0.350     0.589     1.206
   421   8 o        1.607    -0.695    27.585     7.089
   422   1 h        0.805     0.315     0.676     1.292
   423   1 h        0.802     0.368     0.548     1.163
   424   8 o        1.609    -0.659    26.634     6.965
   425   1 h        0.805     0.324     0.653     1.270
   426   1 h        0.804     0.336     0.622     1.239
   427   8 o        1.605    -0.687    27.379     7.062
   428   1 h        0.802     0.357     0.573     1.190
   429   1 h        0.803     0.328     0.642     1.259
   430   8 o        1.608    -0.671    26.940     7.005
   431   1 h        0.803     0.340     0.613     1.230
   432   1 h        0.804     0.350     0.589     1.205
   433   8 o        1.608    -0.674    27.016     7.015
   434   1 h        0.804     0.349     0.591     1.207
   435   1 h        0.804     0.349     0.590     1.206
   436   8 o        1.611    -0.684    27.275     7.049
   437   1 h        0.804     0.325     0.650     1.266
   438   1 h        0.803     0.356     0.574     1.190
   439   8 o        1.607    -0.672    26.970     7.009
   440   1 h        0.805     0.307     0.700     1.314
   441   1 h        0.802     0.369     0.546     1.161
   442   8 o        1.609    -0.677    27.119     7.028
   443   1 h        0.805     0.327     0.645     1.262
   444   1 h        0.804     0.322     0.657     1.273
   445   8 o        1.608    -0.702    27.760     7.111
   446   1 h        0.803     0.350     0.589     1.206
   447   1 h        0.804     0.325     0.651     1.267
   448   8 o        1.609    -0.673    27.012     7.015
   449   1 h        0.805     0.340     0.612     1.229
   450   1 h        0.804     0.328     0.643     1.260
   451   8 o        1.608    -0.676    27.076     7.023
   452   1 h        0.803     0.368     0.548     1.162
   453   1 h        0.804     0.330     0.637     1.253
   454   8 o        1.609    -0.674    27.032     7.017
   455   1 h        0.805     0.310     0.691     1.306
   456   1 h        0.803     0.353     0.581     1.197
   457   8 o        1.609    -0.651    26.448     6.941
   458   1 h        0.805     0.332     0.632     1.248
   459   1 h        0.804     0.334     0.626     1.243
   460   8 o        1.607    -0.658    26.619     6.963
   461   1 h        0.802     0.345     0.599     1.216
   462   1 h        0.805     0.323     0.655     1.271
   463   8 o        1.609    -0.674    27.022     7.016
   464   1 h        0.805     0.324     0.654     1.270
   465   1 h        0.804     0.345     0.601     1.217
   466   8 o        1.608    -0.685    27.325     7.055
   467   1 h        0.805     0.327     0.644     1.260
   468   1 h        0.803     0.371     0.541     1.155
   469   8 o        1.609    -0.695    27.566     7.086
   470   1 h        0.805     0.329     0.641     1.257
   471   1 h        0.804     0.341     0.609     1.226
   472   8 o        1.610    -0.668    26.872     6.996
   473   1 h        0.805     0.337     0.619     1.236
   474   1 h        0.805     0.334     0.627     1.244
   475   8 o        1.610    -0.645    26.279     6.919
   476   1 h        0.805     0.334     0.626     1.243
   477   1 h        0.805     0.342     0.607     1.224
   478   8 o        1.608    -0.680    27.175     7.036
   479   1 h        0.805     0.314     0.679     1.294
   480   1 h        0.803     0.358     0.570     1.186
   481   8 o        1.608    -0.673    27.006     7.014
   482   1 h        0.805     0.315     0.677     1.292
   483   1 h        0.803     0.346     0.598     1.215
   484   8 o        1.608    -0.676    27.072     7.022
   485   1 h        0.804     0.326     0.647     1.264
   486   1 h        0.804     0.346     0.598     1.215
   487   8 o        1.606    -0.661    26.698     6.974
   488   1 h        0.804     0.335     0.626     1.242
   489   1 h        0.802     0.335     0.624     1.241
   490   8 o        1.610    -0.663    26.746     6.980
   491   1 h        0.804     0.347     0.594     1.211
   492   1 h        0.805     0.329     0.640     1.256
   493   8 o        1.609    -0.693    27.531     7.082
   494   1 h        0.804     0.328     0.642     1.259
   495   1 h        0.804     0.355     0.576     1.192
   496   8 o        1.606    -0.706    27.860     7.124
   497   1 h        0.803     0.349     0.590     1.206
   498   1 h        0.803     0.331     0.635     1.252
   499   8 o        1.608    -0.679    27.154     7.033
   500   1 h        0.804     0.342     0.607     1.224
   501   1 h        0.804     0.364     0.557     1.173
   502   8 o        1.608    -0.686    27.353     7.059
   503   1 h        0.805     0.323     0.655     1.272
   504   1 h        0.804     0.358     0.569     1.185
   505   8 o        1.606    -0.684    27.278     7.049
   506   1 h        0.803     0.326     0.648     1.265
   507   1 h        0.803     0.345     0.601     1.217
   508   8 o        1.608    -0.663    26.746     6.980
   509   1 h        0.805     0.333     0.628     1.245
   510   1 h        0.803     0.336     0.622     1.239
   511   8 o        1.606    -0.700    27.711     7.105
   512   1 h        0.804     0.342     0.608     1.225
   513   1 h        0.802     0.357     0.571     1.188
   514   8 o        1.605    -0.690    27.449     7.071
   515   1 h        0.804     0.333     0.631     1.247
   516   1 h        0.802     0.342     0.608     1.225
   517   8 o        1.603    -0.714    28.098     7.154
   518   1 h        0.802     0.363     0.560     1.175
   519   1 h        0.802     0.326     0.647     1.264
   520   8 o        1.602    -0.700    27.708     7.104
   521   1 h        0.802     0.330     0.638     1.255
   522   1 h        0.804     0.348     0.594     1.211
   523   8 o        1.607    -0.683    27.258     7.046
   524   1 h        0.802     0.357     0.572     1.189
   525   1 h        0.806     0.310     0.691     1.306
   526   8 o        1.609    -0.678    27.142     7.031
   527   1 h        0.804     0.348     0.592     1.209
   528   1 h        0.805     0.327     0.646     1.263
   529   8 o        1.608    -0.667    26.844     6.993
   530   1 h        0.805     0.325     0.651     1.268
   531   1 h        0.804     0.349     0.590     1.207
   532   8 o        1.609    -0.685    27.303     7.052
   533   1 h        0.804     0.348     0.594     1.210
   534   1 h        0.804     0.341     0.610     1.227
   535   8 o        1.609    -0.664    26.766     6.983
   536   1 h        0.804     0.340     0.613     1.230
   537   1 h        0.805     0.323     0.655     1.271
   538   8 o        1.607    -0.682    27.231     7.043
   539   1 h        0.802     0.367     0.550     1.166
   540   1 h        0.806     0.310     0.691     1.306
   541   8 o        1.608    -0.678    27.140     7.031
   542   1 h        0.804     0.339     0.614     1.231
   543   1 h        0.804     0.340     0.611     1.228
   544   8 o        1.607    -0.675    27.047     7.019
   545   1 h        0.802     0.358     0.571     1.187
   546   1 h        0.806     0.317     0.673     1.288
   547   8 o        1.608    -0.654    26.527     6.951
   548   1 h        0.806     0.313     0.684     1.299
   549   1 h        0.802     0.343     0.605     1.222
   550   8 o        1.608    -0.695    27.568     7.086
   551   1 h        0.804     0.323     0.656     1.272
   552   1 h        0.804     0.351     0.587     1.203
   553   8 o        1.605    -0.699    27.676     7.100
   554   1 h        0.802     0.359     0.568     1.184
   555   1 h        0.803     0.331     0.634     1.251
   556   8 o        1.609    -0.670    26.931     7.004
   557   1 h        0.805     0.329     0.641     1.258
   558   1 h        0.805     0.338     0.618     1.234
   559   8 o        1.609    -0.659    26.642     6.966
   560   1 h        0.803     0.326     0.648     1.264
   561   1 h        0.805     0.327     0.645     1.262
   562   8 o        1.608    -0.678    27.126     7.029
   563   1 h        0.805     0.331     0.636     1.252
   564   1 h        0.803     0.344     0.603     1.220
   565   8 o        1.608    -0.685    27.310     7.053
   566   1 h        0.803     0.360     0.567     1.183
   567   1 h        0.805     0.322     0.657     1.274
   568   8 o        1.609    -0.669    26.895     6.999
   569   1 h        0.804     0.342     0.607     1.224
   570   1 h        0.805     0.336     0.622     1.239
   571   8 o        1.607    -0.701    27.738     7.108
   572   1 h        0.804     0.361     0.564     1.180
   573   1 h        0.803     0.340     0.613     1.230
   574   8 o        1.606    -0.715    28.120     7.157
   575   1 h        0.803     0.358     0.570     1.186
   576   1 h        0.802     0.349     0.591     1.208
   577   8 o        1.606    -0.694    27.564     7.086
   578   1 h        0.803     0.359     0.569     1.184
   579   1 h        0.803     0.327     0.646     1.263
   580   8 o        1.609    -0.676    27.079     7.023
   581   1 h        0.804     0.338     0.616     1.233
   582   1 h        0.805     0.335     0.624     1.241
   583   8 o        1.608    -0.665    26.791     6.986
   584   1 h        0.803     0.327     0.646     1.263
   585   1 h        0.804     0.357     0.572     1.188
   586   8 o        1.608    -0.675    27.043     7.019
   587   1 h        0.805     0.335     0.625     1.242
   588   1 h        0.803     0.334     0.628     1.245
   589   8 o        1.608    -0.678    27.121     7.029
   590   1 h        0.803     0.365     0.554     1.169
   591   1 h        0.806     0.306     0.704     1.318
   592   8 o        1.608    -0.672    26.983     7.011
   593   1 h        0.804     0.339     0.614     1.231
   594   1 h        0.804     0.342     0.608     1.225
   595   8 o        1.609    -0.687    27.362     7.060
   596   1 h        0.804     0.347     0.595     1.212
   597   1 h        0.805     0.334     0.628     1.245
   598   8 o        1.605    -0.719    28.220     7.170
   599   1 h        0.804     0.319     0.668     1.284
   600   1 h        0.802     0.363     0.559     1.175
   601   8 o        1.605    -0.711    28.018     7.144
   602   1 h        0.802     0.360     0.565     1.181
   603   1 h        0.804     0.334     0.626     1.243
   604   8 o        1.607    -0.692    27.497     7.077
   605   1 h        0.805     0.318     0.670     1.286
   606   1 h        0.802     0.360     0.566     1.182
   607   8 o        1.607    -0.684    27.297     7.051
   608   1 h        0.803     0.344     0.603     1.220
   609   1 h        0.803     0.333     0.630     1.247
   610   8 o        1.607    -0.685    27.329     7.055
   611   1 h        0.802     0.363     0.559     1.175
   612   1 h        0.805     0.319     0.667     1.283
   613   8 o        1.607    -0.655    26.537     6.953
   614   1 h        0.805     0.320     0.662     1.278
   615   1 h        0.802     0.341     0.610     1.227
   616   8 o        1.608    -0.675    27.063     7.021
   617   1 h        0.803     0.360     0.565     1.181
   618   1 h        0.805     0.311     0.689     1.304
   619   8 o        1.609    -0.651    26.442     6.940
   620   1 h        0.804     0.330     0.639     1.255
   621   1 h        0.805     0.330     0.638     1.254
   622   8 o        1.609    -0.675    27.058     7.021
   623   1 h        0.805     0.324     0.653     1.269
   624   1 h        0.804     0.336     0.623     1.240
   625   8 o        1.608    -0.700    27.714     7.105
   626   1 h        0.804     0.345     0.599     1.216
   627   1 h        0.804     0.322     0.658     1.274
   628   8 o        1.606    -0.698    27.651     7.097
   629   1 h        0.804     0.333     0.631     1.247
   630   1 h        0.802     0.365     0.554     1.170
   631   8 o        1.612    -0.644    26.265     6.917
   632   1 h        0.805     0.323     0.657     1.273
   633   1 h        0.804     0.345     0.600     1.216
   634   8 o        1.609    -0.670    26.919     7.002
   635   1 h        0.805     0.330     0.638     1.255
   636   1 h        0.804     0.339     0.615     1.232
   637   8 o        1.609    -0.664    26.761     6.982
   638   1 h        0.805     0.328     0.641     1.258
   639   1 h        0.805     0.339     0.615     1.231
   640   8 o        1.608    -0.688    27.381     7.062
   641   1 h        0.804     0.334     0.627     1.244
   642   1 h        0.804     0.324     0.652     1.268
   643   8 o        1.608    -0.688    27.399     7.065
   644   1 h        0.804     0.342     0.607     1.224
   645   1 h        0.804     0.329     0.640     1.256
   646   8 o        1.607    -0.700    27.700     7.103
   647   1 h        0.805     0.349     0.590     1.206
   648   1 h        0.802     0.355     0.578     1.194
   649   8 o        1.609    -0.670    26.916     7.002
   650   1 h        0.803     0.350     0.590     1.206
   651   1 h        0.806     0.318     0.669     1.285
   652   8 o        1.606    -0.690    27.458     7.072
   653   1 h        0.805     0.323     0.654     1.271
   654   1 h        0.802     0.362     0.561     1.177
   655   8 o        1.606    -0.696    27.603     7.091
   656   1 h        0.803     0.354     0.579     1.195
   657   1 h        0.804     0.322     0.659     1.276
   658   8 o        1.607    -0.682    27.244     7.045
   659   1 h        0.804     0.336     0.623     1.240
   660   1 h        0.803     0.340     0.612     1.229
   661   8 o        1.607    -0.681    27.218     7.041
   662   1 h        0.804     0.359     0.568     1.183
   663   1 h        0.803     0.327     0.644     1.261
   664   8 o        1.610    -0.673    26.992     7.012
   665   1 h        0.805     0.324     0.654     1.270
   666   1 h        0.805     0.342     0.606     1.223
   667   8 o        1.607    -0.674    27.022     7.016
   668   1 h        0.806     0.317     0.672     1.288
   669   1 h        0.802     0.353     0.582     1.199
   670   8 o        1.607    -0.693    27.515     7.079
   671   1 h        0.803     0.365     0.556     1.171
   672   1 h        0.804     0.314     0.679     1.294
   673   8 o        1.606    -0.667    26.854     6.994
   674   1 h        0.804     0.319     0.666     1.282
   675   1 h        0.802     0.336     0.622     1.239
   676   8 o        1.606    -0.676    27.093     7.025
   677   1 h        0.803     0.331     0.635     1.252
   678   1 h        0.802     0.341     0.611     1.228
   679   8 o        1.607    -0.693    27.522     7.080
   680   1 h        0.803     0.348     0.592     1.209
   681   1 h        0.804     0.353     0.581     1.197
   682   8 o        1.610    -0.651    26.435     6.939
   683   1 h        0.805     0.337     0.619     1.236
   684   1 h        0.805     0.331     0.635     1.252
   685   8 o        1.608    -0.670    26.926     7.003
   686   1 h        0.803     0.336     0.623     1.240
   687   1 h        0.804     0.353     0.582     1.198
   688   8 o        1.607    -0.675    27.046     7.019
   689   1 h        0.804     0.325     0.651     1.267
   690   1 h        0.803     0.348     0.594     1.211
   691   8 o        1.607    -0.697    27.632     7.095
   692   1 h        0.803     0.348     0.593     1.209
   693   1 h        0.804     0.331     0.636     1.253
   694   8 o        1.608    -0.685    27.306     7.053
   695   1 h        0.804     0.312     0.685     1.300
   696   1 h        0.804     0.350     0.587     1.204
   697   8 o        1.609    -0.668    26.860     6.995
   698   1 h        0.805     0.331     0.636     1.252
   699   1 h        0.804     0.346     0.599     1.215
   700   8 o        1.609    -0.659    26.646     6.967
   701   1 h        0.805     0.323     0.657     1.273
   702   1 h        0.803     0.347     0.596     1.213
   703   8 o        1.608    -0.664    26.780     6.984
   704   1 h        0.806     0.312     0.685     1.300
   705   1 h        0.803     0.352     0.584     1.201
   706   8 o        1.607    -0.677    27.105     7.027
   707   1 h        0.804     0.330     0.636     1.253
   708   1 h        0.803     0.355     0.578     1.194
   709   8 o        1.609    -0.675    27.055     7.020
   710   1 h        0.804     0.333     0.630     1.247
   711   1 h        0.805     0.321     0.662     1.278
   712   8 o        1.608    -0.665    26.786     6.985
   713   1 h        0.804     0.339     0.615     1.232
   714   1 h        0.804     0.326     0.647     1.263
   715   8 o        1.608    -0.674    27.017     7.015
   716   1 h        0.804     0.327     0.644     1.261
   717   1 h        0.804     0.363     0.559     1.175
   718   8 o        1.610    -0.665    26.801     6.987
   719   1 h        0.804     0.353     0.582     1.198
   720   1 h        0.806     0.307     0.700     1.314
   721   8 o        1.608    -0.677    27.100     7.026
   722   1 h        0.803     0.336     0.623     1.240
   723   1 h        0.804     0.340     0.611     1.228
   724   8 o        1.606    -0.688    27.387     7.063
   725   1 h        0.803     0.359     0.568     1.184
   726   1 h        0.803     0.324     0.653     1.270
   727   8 o        1.608    -0.676    27.077     7.023
   728   1 h        0.804     0.337     0.619     1.235
   729   1 h        0.804     0.337     0.620     1.237
   730   8 o        1.607    -0.689    27.410     7.066
   731   1 h        0.804     0.359     0.568     1.184
   732   1 h        0.804     0.333     0.631     1.247
   733   8 o        1.607    -0.677    27.097     7.025
   734   1 h        0.802     0.363     0.560     1.176
   735   1 h        0.805     0.312     0.687     1.302
   736   8 o        1.608    -0.666    26.827     6.990
   737   1 h        0.804     0.338     0.616     1.233
   738   1 h        0.804     0.353     0.581     1.197
   739   8 o        1.610    -0.677    27.106     7.027
   740   1 h        0.804     0.339     0.615     1.232
   741   1 h        0.804     0.343     0.606     1.223
   742   8 o        1.608    -0.667    26.836     6.992
   743   1 h        0.803     0.354     0.580     1.196
   744   1 h        0.805     0.311     0.690     1.304
   745   8 o        1.608    -0.669    26.906     7.001
   746   1 h        0.804     0.338     0.618     1.235
   747   1 h        0.804     0.347     0.596     1.213
   748   8 o        1.605    -0.671    26.950     7.006
   749   1 h        0.803     0.326     0.647     1.264
   750   1 h        0.802     0.340     0.612     1.229
   751   8 o        1.610    -0.655    26.546     6.954
   752   1 h        0.804     0.350     0.588     1.205
   753   1 h        0.805     0.329     0.640     1.257
   754   8 o        1.611    -0.636    26.053     6.889
   755   1 h        0.805     0.338     0.618     1.235
   756   1 h        0.805     0.335     0.623     1.240

 Mol. C6AA /au·bohr⁶  :    2900409.764349
 Mol. C8AA /au·bohr⁸  :   52632780.681861
 Mol. α(0) /au        :       2393.386679


Wiberg/Mayer (AO) data.
largest (>0.10) Wiberg bond orders for each atom

 ---------------------------------------------------------------------------
     #   Z sym  total        # sym  WBO       # sym  WBO       # sym  WBO
 ---------------------------------------------------------------------------
     1   8 o    1.822 --     3 h    0.861     2 h    0.853
     2   1 h    0.888 --     1 o    0.853
     3   1 h    0.891 --     1 o    0.861
     4   8 o    1.858 --     5 h    0.832     6 h    0.830
     5   1 h    0.885 --     4 o    0.832
     6   1 h    0.879 --     4 o    0.830
     7   8 o    1.867 --     9 h    0.820     8 h    0.774
     8   1 h    0.869 --     7 o    0.774
     9   1 h    0.880 --     7 o    0.820
    10   8 o    1.858 --    11 h    0.812    12 h    0.777
    11   1 h    0.880 --    10 o    0.812
    12   1 h    0.873 --    10 o    0.777
    13   8 o    1.829 --    14 h    0.843    15 h    0.821
    14   1 h    0.889 --    13 o    0.843
    15   1 h    0.883 --    13 o    0.821
    16   8 o    1.830 --    17 h    0.828    18 h    0.815
    17   1 h    0.884 --    16 o    0.828
    18   1 h    0.884 --    16 o    0.815
    19   8 o    1.864 --    21 h    0.821    20 h    0.804
    20   1 h    0.875 --    19 o    0.804
    21   1 h    0.880 --    19 o    0.821
    22   8 o    1.865 --    24 h    0.827    23 h    0.807
    23   1 h    0.871 --    22 o    0.807
    24   1 h    0.880 --    22 o    0.827
    25   8 o    1.853 --    26 h    0.839    27 h    0.823
    26   1 h    0.883 --    25 o    0.839
    27   1 h    0.893 --    25 o    0.823
    28   8 o    1.890 --    30 h    0.817    29 h    0.810
    29   1 h    0.876 --    28 o    0.810
    30   1 h    0.876 --    28 o    0.817
    31   8 o    1.885 --    33 h    0.804    32 h    0.792
    32   1 h    0.871 --    31 o    0.792
    33   1 h    0.874 --    31 o    0.804
    34   8 o    1.838 --    35 h    0.848    36 h    0.840
    35   1 h    0.885 --    34 o    0.848
    36   1 h    0.887 --    34 o    0.840
    37   8 o    1.856 --    39 h    0.835    38 h    0.773
    38   1 h    0.863 --    37 o    0.773
    39   1 h    0.887 --    37 o    0.835
    40   8 o    1.853 --    42 h    0.833    41 h    0.818
    41   1 h    0.876 --    40 o    0.818
    42   1 h    0.881 --    40 o    0.833
    43   8 o    1.842 --    45 h    0.811    44 h    0.791
    44   1 h    0.877 --    43 o    0.791
    45   1 h    0.874 --    43 o    0.811
    46   8 o    1.889 --    47 h    0.807    48 h    0.794
    47   1 h    0.874 --    46 o    0.807
    48   1 h    0.870 --    46 o    0.794
    49   8 o    1.901 --    51 h    0.843    50 h    0.806
    50   1 h    0.867 --    49 o    0.806
    51   1 h    0.881 --    49 o    0.843
    52   8 o    1.873 --    53 h    0.844    54 h    0.816
    53   1 h    0.890 --    52 o    0.844
    54   1 h    0.879 --    52 o    0.816
    55   8 o    1.864 --    57 h    0.826    56 h    0.823
    56   1 h    0.879 --    55 o    0.823
    57   1 h    0.881 --    55 o    0.826
    58   8 o    1.850 --    59 h    0.855    60 h    0.824
    59   1 h    0.884 --    58 o    0.855
    60   1 h    0.877 --    58 o    0.824
    61   8 o    1.862 --    63 h    0.837    62 h    0.834
    62   1 h    0.883 --    61 o    0.834
    63   1 h    0.890 --    61 o    0.837
    64   8 o    1.855 --    65 h    0.841    66 h    0.798
    65   1 h    0.883 --    64 o    0.841
    66   1 h    0.873 --    64 o    0.798
    67   8 o    1.823 --    68 h    0.796    69 h    0.778
    68   1 h    0.879 --    67 o    0.796
    69   1 h    0.872 --    67 o    0.778
    70   8 o    1.876 --    72 h    0.832    71 h    0.825
    71   1 h    0.880 --    70 o    0.825
    72   1 h    0.878 --    70 o    0.832
    73   8 o    1.801 --    75 h    0.859    74 h    0.830
    74   1 h    0.883 --    73 o    0.830
    75   1 h    0.899 --    73 o    0.859
    76   8 o    1.851 --    78 h    0.826    77 h    0.816
    77   1 h    0.883 --    76 o    0.816
    78   1 h    0.885 --    76 o    0.826
    79   8 o    1.825 --    80 h    0.884    81 h    0.791
    80   1 h    0.901 --    79 o    0.884
    81   1 h    0.867 --    79 o    0.791
    82   8 o    1.832 --    83 h    0.851    84 h    0.820
    83   1 h    0.891 --    82 o    0.851
    84   1 h    0.877 --    82 o    0.820
    85   8 o    1.864 --    86 h    0.832    87 h    0.810
    86   1 h    0.892 --    85 o    0.832
    87   1 h    0.876 --    85 o    0.810
    88   8 o    1.866 --    90 h    0.830    89 h    0.813
    89   1 h    0.877 --    88 o    0.813
    90   1 h    0.876 --    88 o    0.830
    91   8 o    1.829 --    93 h    0.867    92 h    0.811
    92   1 h    0.878 --    91 o    0.811
    93   1 h    0.894 --    91 o    0.867
    94   8 o    1.887 --    95 h    0.828    96 h    0.773
    95   1 h    0.883 --    94 o    0.828
    96   1 h    0.871 --    94 o    0.773
    97   8 o    1.839 --    99 h    0.838    98 h    0.831
    98   1 h    0.890 --    97 o    0.831
    99   1 h    0.890 --    97 o    0.838
   100   8 o    1.845 --   102 h    0.869   101 h    0.780
   101   1 h    0.869 --   100 o    0.780
   102   1 h    0.897 --   100 o    0.869
   103   8 o    1.842 --   105 h    0.840   104 h    0.812
   104   1 h    0.874 --   103 o    0.812
   105   1 h    0.877 --   103 o    0.840
   106   8 o    1.841 --   107 h    0.827   108 h    0.801
   107   1 h    0.888 --   106 o    0.827
   108   1 h    0.881 --   106 o    0.801
   109   8 o    1.881 --   111 h    0.792   110 h    0.781
   110   1 h    0.870 --   109 o    0.781
   111   1 h    0.873 --   109 o    0.792
   112   8 o    1.837 --   113 h    0.848   114 h    0.841
   113   1 h    0.886 --   112 o    0.848
   114   1 h    0.884 --   112 o    0.841
   115   8 o    1.847 --   117 h    0.846   116 h    0.826
   116   1 h    0.885 --   115 o    0.826
   117   1 h    0.883 --   115 o    0.846
   118   8 o    1.797 --   120 h    0.823   119 h    0.819
   119   1 h    0.883 --   118 o    0.819
   120   1 h    0.882 --   118 o    0.823
   121   8 o    1.791 --   122 h    0.867   123 h    0.833
   122   1 h    0.896 --   121 o    0.867
   123   1 h    0.889 --   121 o    0.833
   124   8 o    1.876 --   125 h    0.845   126 h    0.777
   125   1 h    0.881 --   124 o    0.845
   126   1 h    0.868 --   124 o    0.777
   127   8 o    1.868 --   128 h    0.835   129 h    0.792
   128   1 h    0.885 --   127 o    0.835
   129   1 h    0.874 --   127 o    0.792
   130   8 o    1.799 --   132 h    0.871   131 h    0.815
   131   1 h    0.884 --   130 o    0.815
   132   1 h    0.900 --   130 o    0.871
   133   8 o    1.846 --   134 h    0.844   135 h    0.840
   134   1 h    0.897 --   133 o    0.844
   135   1 h    0.888 --   133 o    0.840
   136   8 o    1.883 --   137 h    0.817   138 h    0.800
   137   1 h    0.878 --   136 o    0.817
   138   1 h    0.877 --   136 o    0.800
   139   8 o    1.862 --   141 h    0.844   140 h    0.797
   140   1 h    0.867 --   139 o    0.797
   141   1 h    0.889 --   139 o    0.844
   142   8 o    1.842 --   144 h    0.834   143 h    0.828
   143   1 h    0.898 --   142 o    0.828
   144   1 h    0.892 --   142 o    0.834
   145   8 o    1.821 --   147 h    0.854   146 h    0.853
   146   1 h    0.898 --   145 o    0.853
   147   1 h    0.893 --   145 o    0.854
   148   8 o    1.827 --   150 h    0.859   149 h    0.783
   149   1 h    0.870 --   148 o    0.783
   150   1 h    0.904 --   148 o    0.859
   151   8 o    1.870 --   152 h    0.805   153 h    0.794
   152   1 h    0.885 --   151 o    0.805
   153   1 h    0.874 --   151 o    0.794
   154   8 o    1.847 --   156 h    0.803   155 h    0.792
   155   1 h    0.873 --   154 o    0.792
   156   1 h    0.876 --   154 o    0.803
   157   8 o    1.883 --   158 h    0.879   159 h    0.803
   158   1 h    0.902 --   157 o    0.879
   159   1 h    0.883 --   157 o    0.803
   160   8 o    1.874 --   162 h    0.832   161 h    0.814
   161   1 h    0.876 --   160 o    0.814
   162   1 h    0.882 --   160 o    0.832
   163   8 o    1.825 --   165 h    0.811   164 h    0.797
   164   1 h    0.868 --   163 o    0.797
   165   1 h    0.893 --   163 o    0.811
   166   8 o    1.885 --   167 h    0.824   168 h    0.798
   167   1 h    0.878 --   166 o    0.824
   168   1 h    0.878 --   166 o    0.798
   169   8 o    1.849 --   170 h    0.814   171 h    0.802
   170   1 h    0.880 --   169 o    0.814
   171   1 h    0.869 --   169 o    0.802
   172   8 o    1.852 --   174 h    0.829   173 h    0.828
   173   1 h    0.880 --   172 o    0.828
   174   1 h    0.878 --   172 o    0.829
   175   8 o    1.851 --   176 h    0.832   177 h    0.815
   176   1 h    0.896 --   175 o    0.832
   177   1 h    0.884 --   175 o    0.815
   178   8 o    1.881 --   180 h    0.844   179 h    0.780
   179   1 h    0.866 --   178 o    0.780
   180   1 h    0.885 --   178 o    0.844
   181   8 o    1.855 --   182 h    0.806   183 h    0.800
   182   1 h    0.881 --   181 o    0.806
   183   1 h    0.878 --   181 o    0.800
   184   8 o    1.836 --   185 h    0.862   186 h    0.834
   185   1 h    0.888 --   184 o    0.862
   186   1 h    0.888 --   184 o    0.834
   187   8 o    1.806 --   188 h    0.903   189 h    0.799
   188   1 h    0.908 --   187 o    0.903
   189   1 h    0.878 --   187 o    0.799
   190   8 o    1.838 --   191 h    0.854   192 h    0.842
   191   1 h    0.886 --   190 o    0.854
   192   1 h    0.886 --   190 o    0.842
   193   8 o    1.869 --   195 h    0.827   194 h    0.805
   194   1 h    0.880 --   193 o    0.805
   195   1 h    0.882 --   193 o    0.827
   196   8 o    1.897 --   198 h    0.824   197 h    0.797
   197   1 h    0.871 --   196 o    0.797
   198   1 h    0.875 --   196 o    0.824
   199   8 o    1.847 --   200 h    0.838   201 h    0.830
   200   1 h    0.884 --   199 o    0.838
   201   1 h    0.887 --   199 o    0.830
   202   8 o    1.873 --   204 h    0.838   203 h    0.801
   203   1 h    0.878 --   202 o    0.801
   204   1 h    0.879 --   202 o    0.838
   205   8 o    1.872 --   207 h    0.845   206 h    0.813
   206   1 h    0.875 --   205 o    0.813
   207   1 h    0.892 --   205 o    0.845
   208   8 o    1.825 --   209 h    0.871   210 h    0.761
   209   1 h    0.897 --   208 o    0.871
   210   1 h    0.863 --   208 o    0.761
   211   8 o    1.832 --   213 h    0.831   212 h    0.783
   212   1 h    0.879 --   211 o    0.783
   213   1 h    0.893 --   211 o    0.831
   214   8 o    1.855 --   216 h    0.870   215 h    0.810
   215   1 h    0.876 --   214 o    0.810
   216   1 h    0.891 --   214 o    0.870
   217   8 o    1.822 --   219 h    0.851   218 h    0.820
   218   1 h    0.879 --   217 o    0.820
   219   1 h    0.883 --   217 o    0.851
   220   8 o    1.866 --   222 h    0.834   221 h    0.817
   221   1 h    0.876 --   220 o    0.817
   222   1 h    0.895 --   220 o    0.834
   223   8 o    1.861 --   225 h    0.831   224 h    0.765
   224   1 h    0.869 --   223 o    0.765
   225   1 h    0.881 --   223 o    0.831
   226   8 o    1.848 --   228 h    0.888   227 h    0.833
   227   1 h    0.891 --   226 o    0.833
   228   1 h    0.905 --   226 o    0.888
   229   8 o    1.859 --   231 h    0.848   230 h    0.817
   230   1 h    0.875 --   229 o    0.817
   231   1 h    0.895 --   229 o    0.848
   232   8 o    1.870 --   233 h    0.848   234 h    0.847
   233   1 h    0.890 --   232 o    0.848
   234   1 h    0.889 --   232 o    0.847
   235   8 o    1.861 --   236 h    0.816   237 h    0.814
   236   1 h    0.869 --   235 o    0.816
   237   1 h    0.888 --   235 o    0.814
   238   8 o    1.865 --   240 h    0.891   239 h    0.793
   239   1 h    0.886 --   238 o    0.793
   240   1 h    0.904 --   238 o    0.891
   241   8 o    1.841 --   242 h    0.837   243 h    0.806
   242   1 h    0.890 --   241 o    0.837
   243   1 h    0.885 --   241 o    0.806
   244   8 o    1.838 --   246 h    0.843   245 h    0.824
   245   1 h    0.883 --   244 o    0.824
   246   1 h    0.892 --   244 o    0.843
   247   8 o    1.837 --   249 h    0.850   248 h    0.836
   248   1 h    0.885 --   247 o    0.836
   249   1 h    0.894 --   247 o    0.850
   250   8 o    1.813 --   252 h    0.852   251 h    0.826
   251   1 h    0.879 --   250 o    0.826
   252   1 h    0.887 --   250 o    0.852
   253   8 o    1.875 --   255 h    0.834   254 h    0.798
   254   1 h    0.877 --   253 o    0.798
   255   1 h    0.881 --   253 o    0.834
   256   8 o    1.883 --   258 h    0.875   257 h    0.774
   257   1 h    0.867 --   256 o    0.774
   258   1 h    0.893 --   256 o    0.875
   259   8 o    1.848 --   260 h    0.857   261 h    0.783
   260   1 h    0.894 --   259 o    0.857
   261   1 h    0.871 --   259 o    0.783
   262   8 o    1.835 --   263 h    0.847   264 h    0.822
   263   1 h    0.891 --   262 o    0.847
   264   1 h    0.875 --   262 o    0.822
   265   8 o    1.840 --   266 h    0.872   267 h    0.790
   266   1 h    0.900 --   265 o    0.872
   267   1 h    0.868 --   265 o    0.790
   268   8 o    1.801 --   269 h    0.830   270 h    0.818
   269   1 h    0.886 --   268 o    0.830
   270   1 h    0.885 --   268 o    0.818
   271   8 o    1.907 --   272 h    0.804   273 h    0.789
   272   1 h    0.877 --   271 o    0.804
   273   1 h    0.867 --   271 o    0.789
   274   8 o    1.881 --   275 h    0.829   276 h    0.784
   275   1 h    0.877 --   274 o    0.829
   276   1 h    0.864 --   274 o    0.784
   277   8 o    1.849 --   279 h    0.825   278 h    0.822
   278   1 h    0.877 --   277 o    0.822
   279   1 h    0.874 --   277 o    0.825
   280   8 o    1.858 --   281 h    0.811   282 h    0.772
   281   1 h    0.879 --   280 o    0.811
   282   1 h    0.871 --   280 o    0.772
   283   8 o    1.859 --   285 h    0.832   284 h    0.828
   284   1 h    0.876 --   283 o    0.828
   285   1 h    0.892 --   283 o    0.832
   286   8 o    1.840 --   288 h    0.834   287 h    0.826
   287   1 h    0.880 --   286 o    0.826
   288   1 h    0.886 --   286 o    0.834
   289   8 o    1.871 --   291 h    0.817   290 h    0.780
   290   1 h    0.862 --   289 o    0.780
   291   1 h    0.884 --   289 o    0.817
   292   8 o    1.832 --   294 h    0.852   293 h    0.838
   293   1 h    0.889 --   292 o    0.838
   294   1 h    0.890 --   292 o    0.852
   295   8 o    1.855 --   297 h    0.838   296 h    0.808
   296   1 h    0.870 --   295 o    0.808
   297   1 h    0.895 --   295 o    0.838
   298   8 o    1.845 --   299 h    0.852   300 h    0.839
   299   1 h    0.887 --   298 o    0.852
   300   1 h    0.887 --   298 o    0.839
   301   8 o    1.855 --   302 h    0.814   303 h    0.765
   302   1 h    0.886 --   301 o    0.814
   303   1 h    0.866 --   301 o    0.765
   304   8 o    1.846 --   305 h    0.899   306 h    0.783
   305   1 h    0.904 --   304 o    0.899
   306   1 h    0.870 --   304 o    0.783
   307   8 o    1.831 --   309 h    0.822   308 h    0.815
   308   1 h    0.872 --   307 o    0.815
   309   1 h    0.878 --   307 o    0.822
   310   8 o    1.830 --   312 h    0.860   311 h    0.848
   311   1 h    0.887 --   310 o    0.848
   312   1 h    0.884 --   310 o    0.860
   313   8 o    1.793 --   314 h    0.861   315 h    0.830
   314   1 h    0.896 --   313 o    0.861
   315   1 h    0.887 --   313 o    0.830
   316   8 o    1.839 --   318 h    0.855   317 h    0.778
   317   1 h    0.869 --   316 o    0.778
   318   1 h    0.897 --   316 o    0.855
   319   8 o    1.854 --   321 h    0.846   320 h    0.776
   320   1 h    0.874 --   319 o    0.776
   321   1 h    0.891 --   319 o    0.846
   322   8 o    1.839 --   323 h    0.848   324 h    0.826
   323   1 h    0.890 --   322 o    0.848
   324   1 h    0.882 --   322 o    0.826
   325   8 o    1.826 --   327 h    0.855   326 h    0.832
   326   1 h    0.883 --   325 o    0.832
   327   1 h    0.889 --   325 o    0.855
   328   8 o    1.798 --   329 h    0.818   330 h    0.789
   329   1 h    0.877 --   328 o    0.818
   330   1 h    0.874 --   328 o    0.789
   331   8 o    1.809 --   333 h    0.880   332 h    0.822
   332   1 h    0.871 --   331 o    0.822
   333   1 h    0.902 --   331 o    0.880
   334   8 o    1.839 --   335 h    0.846   336 h    0.810
   335   1 h    0.888 --   334 o    0.846
   336   1 h    0.869 --   334 o    0.810
   337   8 o    1.839 --   338 h    0.863   339 h    0.778
   338   1 h    0.894 --   337 o    0.863
   339   1 h    0.868 --   337 o    0.778
   340   8 o    1.866 --   341 h    0.875   342 h    0.818
   341   1 h    0.892 --   340 o    0.875
   342   1 h    0.877 --   340 o    0.818
   343   8 o    1.823 --   344 h    0.851   345 h    0.826
   344   1 h    0.903 --   343 o    0.851
   345   1 h    0.889 --   343 o    0.826
   346   8 o    1.838 --   347 h    0.838   348 h    0.803
   347   1 h    0.896 --   346 o    0.838
   348   1 h    0.876 --   346 o    0.803
   349   8 o    1.843 --   350 h    0.894   351 h    0.796
   350   1 h    0.900 --   349 o    0.894
   351   1 h    0.872 --   349 o    0.796
   352   8 o    1.878 --   354 h    0.823   353 h    0.787
   353   1 h    0.877 --   352 o    0.787
   354   1 h    0.887 --   352 o    0.823
   355   8 o    1.851 --   356 h    0.881   357 h    0.764
   356   1 h    0.900 --   355 o    0.881
   357   1 h    0.860 --   355 o    0.764
   358   8 o    1.873 --   359 h    0.838   360 h    0.827
   359   1 h    0.888 --   358 o    0.838
   360   1 h    0.889 --   358 o    0.827
   361   8 o    1.810 --   363 h    0.886   362 h    0.822
   362   1 h    0.882 --   361 o    0.822
   363   1 h    0.899 --   361 o    0.886
   364   8 o    1.869 --   365 h    0.840   366 h    0.802
[...]
   370   8 o    1.803 --   372 h    0.859   371 h    0.822
   371   1 h    0.890 --   370 o    0.822
   372   1 h    0.899 --   370 o    0.859
   373   8 o    1.842 --   375 h    0.852   374 h    0.828
   374   1 h    0.886 --   373 o    0.828
   375   1 h    0.886 --   373 o    0.852
   376   8 o    1.868 --   377 h    0.803   378 h    0.802
   377   1 h    0.874 --   376 o    0.803
   378   1 h    0.871 --   376 o    0.802
   379   8 o    1.829 --   381 h    0.863   380 h    0.824
   380   1 h    0.889 --   379 o    0.824
   381   1 h    0.889 --   379 o    0.863
   382   8 o    1.832 --   384 h    0.847   383 h    0.840
   383   1 h    0.886 --   382 o    0.840
   384   1 h    0.887 --   382 o    0.847
   385   8 o    1.830 --   387 h    0.863   386 h    0.833
   386   1 h    0.886 --   385 o    0.833
   387   1 h    0.891 --   385 o    0.863
   388   8 o    1.844 --   389 h    0.877   390 h    0.823
   389   1 h    0.897 --   388 o    0.877
   390   1 h    0.880 --   388 o    0.823
   391   8 o    1.806 --   393 h    0.858   392 h    0.840
   392   1 h    0.884 --   391 o    0.840
   393   1 h    0.891 --   391 o    0.858
   394   8 o    1.837 --   396 h    0.836   395 h    0.807
   395   1 h    0.870 --   394 o    0.807
   396   1 h    0.889 --   394 o    0.836
   397   8 o    1.847 --   399 h    0.811   398 h    0.799
   398   1 h    0.877 --   397 o    0.799
   399   1 h    0.881 --   397 o    0.811
   400   8 o    1.808 --   401 h    0.865   402 h    0.805
   401   1 h    0.897 --   400 o    0.865
   402   1 h    0.872 --   400 o    0.805
   403   8 o    1.847 --   405 h    0.816   404 h    0.811
   404   1 h    0.890 --   403 o    0.811
   405   1 h    0.870 --   403 o    0.816
   406   8 o    1.864 --   408 h    0.835   407 h    0.779
   407   1 h    0.876 --   406 o    0.779
   408   1 h    0.882 --   406 o    0.835
   409   8 o    1.858 --   410 h    0.869   411 h    0.807
   410   1 h    0.894 --   409 o    0.869
   411   1 h    0.874 --   409 o    0.807
   412   8 o    1.839 --   413 h    0.840   414 h    0.840
   413   1 h    0.884 --   412 o    0.840
   414   1 h    0.885 --   412 o    0.840
   415   8 o    1.852 --   416 h    0.852   417 h    0.815
   416   1 h    0.892 --   415 o    0.852
   417   1 h    0.872 --   415 o    0.815
   418   8 o    1.853 --   419 h    0.821   420 h    0.797
   419   1 h    0.890 --   418 o    0.821
   420   1 h    0.878 --   418 o    0.797
   421   8 o    1.813 --   422 h    0.877   423 h    0.785
   422   1 h    0.900 --   421 o    0.877
   423   1 h    0.865 --   421 o    0.785
   424   8 o    1.832 --   425 h    0.877   426 h    0.847
   425   1 h    0.895 --   424 o    0.877
   426   1 h    0.887 --   424 o    0.847
   427   8 o    1.857 --   429 h    0.821   428 h    0.798
   428   1 h    0.873 --   427 o    0.798
   429   1 h    0.892 --   427 o    0.821
   430   8 o    1.880 --   432 h    0.836   431 h    0.822
   431   1 h    0.885 --   430 o    0.822
   432   1 h    0.878 --   430 o    0.836
   433   8 o    1.873 --   434 h    0.831   435 h    0.818
   434   1 h    0.878 --   433 o    0.831
   435   1 h    0.878 --   433 o    0.818
   436   8 o    1.867 --   437 h    0.838   438 h    0.801   522 h    0.106
   437   1 h    0.894 --   436 o    0.838
   438   1 h    0.873 --   436 o    0.801
   439   8 o    1.845 --   440 h    0.894   441 h    0.782
   440   1 h    0.906 --   439 o    0.894
   441   1 h    0.864 --   439 o    0.782
   442   8 o    1.798 --   444 h    0.853   443 h    0.850
   443   1 h    0.893 --   442 o    0.850
   444   1 h    0.896 --   442 o    0.853
   445   8 o    1.805 --   447 h    0.856   446 h    0.809
   446   1 h    0.878 --   445 o    0.809
   447   1 h    0.894 --   445 o    0.856
   448   8 o    1.829 --   449 h    0.845   450 h    0.840
   449   1 h    0.884 --   448 o    0.845
   450   1 h    0.893 --   448 o    0.840
   451   8 o    1.874 --   453 h    0.841   452 h    0.802
   452   1 h    0.864 --   451 o    0.802
   453   1 h    0.891 --   451 o    0.841
   454   8 o    1.807 --   455 h    0.894   456 h    0.815
   455   1 h    0.904 --   454 o    0.894
   456   1 h    0.875 --   454 o    0.815
   457   8 o    1.866 --   458 h    0.851   459 h    0.835
   458   1 h    0.890 --   457 o    0.851
   459   1 h    0.888 --   457 o    0.835
   460   8 o    1.858 --   462 h    0.882   461 h    0.806
   461   1 h    0.881 --   460 o    0.806
   462   1 h    0.895 --   460 o    0.882
   463   8 o    1.813 --   464 h    0.871   465 h    0.836
   464   1 h    0.895 --   463 o    0.871
   465   1 h    0.881 --   463 o    0.836
   466   8 o    1.860 --   467 h    0.858   468 h    0.773
   467   1 h    0.893 --   466 o    0.858
   468   1 h    0.862 --   466 o    0.773
   469   8 o    1.792 --   470 h    0.865   471 h    0.833
   470   1 h    0.892 --   469 o    0.865
   471   1 h    0.883 --   469 o    0.833
   472   8 o    1.814 --   474 h    0.876   473 h    0.855
   473   1 h    0.886 --   472 o    0.855
   474   1 h    0.888 --   472 o    0.876
   475   8 o    1.856 --   476 h    0.870   477 h    0.858
   476   1 h    0.888 --   475 o    0.870
   477   1 h    0.883 --   475 o    0.858
   478   8 o    1.823 --   479 h    0.884   480 h    0.799
   479   1 h    0.901 --   478 o    0.884
   480   1 h    0.872 --   478 o    0.799
   481   8 o    1.846 --   482 h    0.856   483 h    0.800
   482   1 h    0.900 --   481 o    0.856
   483   1 h    0.880 --   481 o    0.800
   484   8 o    1.832 --   485 h    0.866   486 h    0.831
   485   1 h    0.894 --   484 o    0.866
   486   1 h    0.880 --   484 o    0.831
   487   8 o    1.886 --   488 h    0.845   489 h    0.815
   488   1 h    0.888 --   487 o    0.845
   489   1 h    0.888 --   487 o    0.815
   490   8 o    1.841 --   492 h    0.878   491 h    0.833
   491   1 h    0.879 --   490 o    0.833
   492   1 h    0.892 --   490 o    0.878
   493   8 o    1.827 --   494 h    0.840   495 h    0.819
   494   1 h    0.892 --   493 o    0.840
   495   1 h    0.874 --   493 o    0.819
   496   8 o    1.845 --   498 h    0.816   497 h    0.797
   497   1 h    0.878 --   496 o    0.797
   498   1 h    0.891 --   496 o    0.816
   499   8 o    1.867 --   501 h    0.830   500 h    0.830
   500   1 h    0.883 --   499 o    0.830
   501   1 h    0.868 --   499 o    0.830
   502   8 o    1.821 --   503 h    0.862   504 h    0.813
   503   1 h    0.895 --   502 o    0.862
   504   1 h    0.872 --   502 o    0.813
   505   8 o    1.842 --   507 h    0.828   506 h    0.817
   506   1 h    0.894 --   505 o    0.817
   507   1 h    0.881 --   505 o    0.828
   508   8 o    1.848 --   509 h    0.854   510 h    0.830
   509   1 h    0.889 --   508 o    0.854
   510   1 h    0.887 --   508 o    0.830
   511   8 o    1.855 --   512 h    0.822   513 h    0.789
   512   1 h    0.883 --   511 o    0.822
   513   1 h    0.872 --   511 o    0.789
   514   8 o    1.836 --   515 h    0.848   516 h    0.796
   515   1 h    0.889 --   514 o    0.848
   516   1 h    0.883 --   514 o    0.796
   517   8 o    1.834 --   519 h    0.821   518 h    0.780
   518   1 h    0.868 --   517 o    0.780
   519   1 h    0.893 --   517 o    0.821
   520   8 o    1.860 --   521 h    0.820   522 h    0.763
   521   1 h    0.891 --   520 o    0.820
   522   1 h    0.879 --   520 o    0.763   436 o    0.106
   523   8 o    1.808 --   525 h    0.897   524 h    0.793
   524   1 h    0.872 --   523 o    0.793
   525   1 h    0.904 --   523 o    0.897
   526   8 o    1.817 --   528 h    0.865   527 h    0.828
   527   1 h    0.879 --   526 o    0.828
   528   1 h    0.893 --   526 o    0.865
   529   8 o    1.846 --   530 h    0.859   531 h    0.820
   530   1 h    0.895 --   529 o    0.859
   531   1 h    0.878 --   529 o    0.820
   532   8 o    1.849 --   534 h    0.844   533 h    0.827
   533   1 h    0.879 --   532 o    0.827
   534   1 h    0.884 --   532 o    0.844
   535   8 o    1.838 --   537 h    0.854   536 h    0.832
   536   1 h    0.884 --   535 o    0.832
   537   1 h    0.895 --   535 o    0.854
   538   8 o    1.829 --   540 h    0.891   539 h    0.775
   539   1 h    0.865 --   538 o    0.775
   540   1 h    0.904 --   538 o    0.891
   541   8 o    1.848 --   543 h    0.841   542 h    0.823
   542   1 h    0.885 --   541 o    0.823
   543   1 h    0.884 --   541 o    0.841
   544   8 o    1.823 --   546 h    0.887   545 h    0.798
   545   1 h    0.872 --   544 o    0.798
   546   1 h    0.900 --   544 o    0.887
   547   8 o    1.842 --   548 h    0.899   549 h    0.814
   548   1 h    0.902 --   547 o    0.899
   549   1 h    0.882 --   547 o    0.814
   550   8 o    1.812 --   551 h    0.846   552 h    0.822
   551   1 h    0.896 --   550 o    0.846
   552   1 h    0.877 --   550 o    0.822
   553   8 o    1.842 --   555 h    0.822   554 h    0.793
   554   1 h    0.871 --   553 o    0.793
   555   1 h    0.890 --   553 o    0.822
   556   8 o    1.822 --   557 h    0.850   558 h    0.850
   557   1 h    0.892 --   556 o    0.850
   558   1 h    0.886 --   556 o    0.850
   559   8 o    1.835 --   561 h    0.863   560 h    0.832
   560   1 h    0.894 --   559 o    0.832
   561   1 h    0.893 --   559 o    0.863
   562   8 o    1.825 --   563 h    0.866   564 h    0.827
   563   1 h    0.891 --   562 o    0.866
   564   1 h    0.882 --   562 o    0.827
   565   8 o    1.839 --   567 h    0.865   566 h    0.797
   566   1 h    0.871 --   565 o    0.797
   567   1 h    0.896 --   565 o    0.865
   568   8 o    1.843 --   570 h    0.855   569 h    0.838
   569   1 h    0.883 --   568 o    0.838
   570   1 h    0.887 --   568 o    0.855
   571   8 o    1.843 --   573 h    0.824   572 h    0.824
   572   1 h    0.870 --   571 o    0.824
   573   1 h    0.885 --   571 o    0.824
   574   8 o    1.832 --   575 h    0.813   576 h    0.803
   575   1 h    0.872 --   574 o    0.813
   576   1 h    0.878 --   574 o    0.803
   577   8 o    1.852 --   579 h    0.833   578 h    0.791
   578   1 h    0.871 --   577 o    0.791
   579   1 h    0.893 --   577 o    0.833
   580   8 o    1.812 --   582 h    0.858   581 h    0.856
   581   1 h    0.885 --   580 o    0.856
   582   1 h    0.888 --   580 o    0.858
   583   8 o    1.878 --   584 h    0.832   585 h    0.818
   584   1 h    0.893 --   583 o    0.832
   585   1 h    0.872 --   583 o    0.818
   586   8 o    1.829 --   587 h    0.852   588 h    0.838
   587   1 h    0.888 --   586 o    0.852
   588   1 h    0.889 --   586 o    0.838
   589   8 o    1.812 --   591 h    0.894   590 h    0.800
   590   1 h    0.866 --   589 o    0.800
   591   1 h    0.906 --   589 o    0.894
   592   8 o    1.851 --   594 h    0.834   593 h    0.831
   593   1 h    0.885 --   592 o    0.831
   594   1 h    0.883 --   592 o    0.834
   595   8 o    1.820 --   597 h    0.860   596 h    0.831
   596   1 h    0.880 --   595 o    0.831
   597   1 h    0.889 --   595 o    0.860
   598   8 o    1.805 --   599 h    0.848   600 h    0.770
   599   1 h    0.898 --   598 o    0.848
   600   1 h    0.868 --   598 o    0.770
   601   8 o    1.824 --   603 h    0.835   602 h    0.782
   602   1 h    0.870 --   601 o    0.782
   603   1 h    0.888 --   601 o    0.835
   604   8 o    1.830 --   605 h    0.878   606 h    0.778
   605   1 h    0.899 --   604 o    0.878
   606   1 h    0.870 --   604 o    0.778
   607   8 o    1.837 --   609 h    0.837   608 h    0.826
   608   1 h    0.882 --   607 o    0.826
   609   1 h    0.889 --   607 o    0.837
   610   8 o    1.836 --   612 h    0.874   611 h    0.785
   611   1 h    0.868 --   610 o    0.785
   612   1 h    0.898 --   610 o    0.874
   613   8 o    1.873 --   614 h    0.872   615 h    0.804
   614   1 h    0.897 --   613 o    0.872
   615   1 h    0.884 --   613 o    0.804
   616   8 o    1.818 --   618 h    0.894   617 h    0.810
   617   1 h    0.870 --   616 o    0.810
   618   1 h    0.903 --   616 o    0.894
   619   8 o    1.873 --   621 h    0.855   620 h    0.836
   620   1 h    0.891 --   619 o    0.836
   621   1 h    0.891 --   619 o    0.855
   622   8 o    1.802 --   623 h    0.872   624 h    0.848
   623   1 h    0.895 --   622 o    0.872
   624   1 h    0.887 --   622 o    0.848
   625   8 o    1.791 --   626 h    0.834   627 h    0.827
   626   1 h    0.881 --   625 o    0.834
   627   1 h    0.896 --   625 o    0.827
   628   8 o    1.863 --   629 h    0.841   630 h    0.782
   629   1 h    0.889 --   628 o    0.841
   630   1 h    0.867 --   628 o    0.782
   631   8 o    1.882 --   632 h    0.855   633 h    0.831
   632   1 h    0.896 --   631 o    0.855
   633   1 h    0.881 --   631 o    0.831
   634   8 o    1.828 --   635 h    0.854   636 h    0.839
   635   1 h    0.891 --   634 o    0.854
   636   1 h    0.885 --   634 o    0.839
   637   8 o    1.817 --   638 h    0.870   639 h    0.858
   638   1 h    0.892 --   637 o    0.870
   639   1 h    0.885 --   637 o    0.858
   640   8 o    1.796 --   642 h    0.859   641 h    0.825
   641   1 h    0.888 --   640 o    0.825
   642   1 h    0.895 --   640 o    0.859
   643   8 o    1.808 --   645 h    0.852   644 h    0.827
   644   1 h    0.883 --   643 o    0.827
   645   1 h    0.892 --   643 o    0.852
   646   8 o    1.841 --   647 h    0.847   648 h    0.798
   647   1 h    0.878 --   646 o    0.847
   648   1 h    0.874 --   646 o    0.798
   649   8 o    1.827 --   651 h    0.893   650 h    0.818
   650   1 h    0.878 --   649 o    0.818
   651   1 h    0.899 --   649 o    0.893
   652   8 o    1.846 --   653 h    0.861   654 h    0.779
   653   1 h    0.895 --   652 o    0.861
   654   1 h    0.869 --   652 o    0.779
   655   8 o    1.817 --   657 h    0.854   656 h    0.799
   656   1 h    0.875 --   655 o    0.799
   657   1 h    0.896 --   655 o    0.854
   658   8 o    1.839 --   659 h    0.833   660 h    0.826
   659   1 h    0.887 --   658 o    0.833
   660   1 h    0.884 --   658 o    0.826
   661   8 o    1.864 --   663 h    0.822   662 h    0.818
   662   1 h    0.871 --   661 o    0.818
   663   1 h    0.893 --   661 o    0.822
   664   8 o    1.801 --   665 h    0.870   666 h    0.851
   665   1 h    0.895 --   664 o    0.870
   666   1 h    0.883 --   664 o    0.851
   667   8 o    1.832 --   668 h    0.890   669 h    0.791
   668   1 h    0.899 --   667 o    0.890
   669   1 h    0.876 --   667 o    0.791
   670   8 o    1.825 --   672 h    0.857   671 h    0.794
   671   1 h    0.867 --   670 o    0.794
   672   1 h    0.901 --   670 o    0.857
   673   8 o    1.862 --   674 h    0.860   675 h    0.805
   674   1 h    0.898 --   673 o    0.860
   675   1 h    0.887 --   673 o    0.805
   676   8 o    1.883 --   677 h    0.822   678 h    0.801
   677   1 h    0.890 --   676 o    0.822
   678   1 h    0.884 --   676 o    0.801
   679   8 o    1.876 --   681 h    0.809   680 h    0.800
   680   1 h    0.879 --   679 o    0.800
   681   1 h    0.875 --   679 o    0.809
   682   8 o    1.842 --   684 h    0.867   683 h    0.850
   683   1 h    0.886 --   682 o    0.850
   684   1 h    0.891 --   682 o    0.867
   685   8 o    1.882 --   686 h    0.822   687 h    0.821
   686   1 h    0.887 --   685 o    0.822
   687   1 h    0.876 --   685 o    0.821
   688   8 o    1.870 --   689 h    0.836   690 h    0.810
   689   1 h    0.894 --   688 o    0.836
   690   1 h    0.879 --   688 o    0.810
   691   8 o    1.815 --   693 h    0.838   692 h    0.813
   692   1 h    0.879 --   691 o    0.813
   693   1 h    0.891 --   691 o    0.838
   694   8 o    1.830 --   695 h    0.846   696 h    0.802
   695   1 h    0.902 --   694 o    0.846
   696   1 h    0.877 --   694 o    0.802
   697   8 o    1.838 --   698 h    0.855   699 h    0.835
   698   1 h    0.891 --   697 o    0.855
   699   1 h    0.880 --   697 o    0.835
   700   8 o    1.837 --   701 h    0.883   702 h    0.829
   701   1 h    0.896 --   700 o    0.883
   702   1 h    0.880 --   700 o    0.829
   703   8 o    1.827 --   704 h    0.898   705 h    0.815
   704   1 h    0.902 --   703 o    0.898
   705   1 h    0.876 --   703 o    0.815
   706   8 o    1.876 --   707 h    0.837   708 h    0.805
   707   1 h    0.891 --   706 o    0.837
   708   1 h    0.874 --   706 o    0.805
   709   8 o    1.801 --   711 h    0.863   710 h    0.837
   710   1 h    0.889 --   709 o    0.837
   711   1 h    0.897 --   709 o    0.863
   712   8 o    1.860 --   713 h    0.840   714 h    0.836
   713   1 h    0.885 --   712 o    0.840
   714   1 h    0.893 --   712 o    0.836
   715   8 o    1.880 --   716 h    0.834   717 h    0.808
   716   1 h    0.893 --   715 o    0.834
   717   1 h    0.868 --   715 o    0.808
   718   8 o    1.801 --   720 h    0.890   719 h    0.835
   719   1 h    0.876 --   718 o    0.835
   720   1 h    0.906 --   718 o    0.890
   721   8 o    1.833 --   723 h    0.846   722 h    0.833
   722   1 h    0.887 --   721 o    0.833
   723   1 h    0.884 --   721 o    0.846
   724   8 o    1.864 --   726 h    0.831   725 h    0.777
   725   1 h    0.871 --   724 o    0.777
   726   1 h    0.895 --   724 o    0.831
   727   8 o    1.838 --   728 h    0.844   729 h    0.835
   728   1 h    0.886 --   727 o    0.844
   729   1 h    0.886 --   727 o    0.835
   730   8 o    1.842 --   732 h    0.846   731 h    0.814
   731   1 h    0.871 --   730 o    0.814
   732   1 h    0.889 --   730 o    0.846
   733   8 o    1.836 --   735 h    0.888   734 h    0.784
   734   1 h    0.869 --   733 o    0.784
   735   1 h    0.903 --   733 o    0.888
   736   8 o    1.881 --   737 h    0.836   738 h    0.818
   737   1 h    0.885 --   736 o    0.836
   738   1 h    0.875 --   736 o    0.818
   739   8 o    1.847 --   740 h    0.841   741 h    0.838
   740   1 h    0.885 --   739 o    0.841
   741   1 h    0.883 --   739 o    0.838
   742   8 o    1.830 --   744 h    0.890   743 h    0.810
   743   1 h    0.875 --   742 o    0.810
   744   1 h    0.903 --   742 o    0.890
   745   8 o    1.864 --   746 h    0.850   747 h    0.823
   746   1 h    0.886 --   745 o    0.850
   747   1 h    0.880 --   745 o    0.823
   748   8 o    1.888 --   749 h    0.836   750 h    0.793
   749   1 h    0.894 --   748 o    0.836
   750   1 h    0.884 --   748 o    0.793
   751   8 o    1.841 --   753 h    0.878   752 h    0.844
   752   1 h    0.877 --   751 o    0.844
   753   1 h    0.892 --   751 o    0.878
   754   8 o    1.854 --   756 h    0.878   755 h    0.872
   755   1 h    0.886 --   754 o    0.872
   756   1 h    0.887 --   754 o    0.878
 ---------------------------------------------------------------------------

Topologies differ in total number of bonds
Writing topology from bond orders to xtbtopo.mol

molecular dipole:
                 x           y           z       tot (Debye)
 q only:       -5.237      -0.443       0.670
   full:       -6.795      -0.836       0.301      17.419
molecular quadrupole (traceless):
                xx          xy          yy          xz          yz          zz
 q only:     -146.014       1.151     127.770     -31.144     -74.612      18.244
  q+dip:     -170.604     -37.395     151.251     -44.886     -95.055      19.353
   full:     -168.022     -38.534     150.801     -47.307     -96.073      17.221


           -------------------------------------------------
          | TOTAL ENERGY            -1283.606508508570 Eh   |
          | GRADIENT NORM               0.098315302463 Eh/α |
          | HOMO-LUMO GAP               7.985816270545 eV   |
           -------------------------------------------------

------------------------------------------------------------------------
 * finished run on 2022/11/24 at 09:28:07.429     
------------------------------------------------------------------------
 total:
 * wall-time:     0 d,  0 h,  0 min, 20.903 sec
 *  cpu-time:     0 d,  0 h,  0 min, 33.362 sec
 * ratio c/w:     1.596 speedup
 SCF:
 * wall-time:     0 d,  0 h,  0 min, 19.898 sec
 *  cpu-time:     0 d,  0 h,  0 min, 31.655 sec
 * ratio c/w:     1.591 speedup

