756
 energy: -1283.340638712474 gnorm: 0.016436836350 xtb: 6.5.1 (579679a)
o           -4.28472123467590       -6.47409457045227       -4.64841786793330
h           -4.72478543864833       -6.97586190109996       -3.94887088973532
h           -3.33834977247780       -6.65560489681233       -4.57496150494848
o            1.64522207626116       -3.14735224639793       -0.17294118605501
h            1.48797339665015       -4.10711777805363       -0.19119683006106
h            1.06368024221485       -2.79546787734495        0.52279386019677
o            2.36545517693990       -0.62232038866278       -0.75401051464492
h            2.95039427117083       -0.43477432826306        0.01473085573318
h            1.47299697373983       -0.36659822448830       -0.46917901427070
o            3.71391648353364        0.16107968065539        1.32184219966357
h            3.97143018864249       -0.54407792492180        1.93961091214855
h            2.95897299967534        0.65516783731541        1.72166834396888
o            0.21022681889567       -2.38523323120504       -2.35825405460810
h           -0.57705421486250       -2.92599217943478       -2.19897041088620
h            0.81020011853227       -2.57225436085365       -1.61583419258772
o           -4.87559372295685       -4.46703941486098        1.06118208114670
h           -4.68611913043572       -4.93966281901241        0.23211739366470
h           -5.52639942457672       -3.76622671348077        0.85747584854576
o            4.50843551142059       -1.75640280504597        3.04740720707064
h            4.35469843728380       -2.71084197919628        2.88730738732413
h            5.47943215493450       -1.67644604046436        3.07128686855495
o           -1.90594971727155       -4.97963608670387        0.64657248841306
h           -2.34065633684057       -4.17166366196551        0.97086212182652
h           -2.55458404599323       -5.70636360398039        0.70903862871723
o            3.30816401827839       -5.42500169298454        0.46434208601961
h            3.82339124117692       -5.05527443378642       -0.26655687726981
h            3.37477130849843       -6.39548458274580        0.35655066582007
o            1.72686581338629        1.46247358211608        2.35500426890953
h            2.27020245697703        1.76981682000176        3.10934683972376
h            1.08327956919639        0.80952220469475        2.68735157537551
o            0.34199136227098        2.81524915470942        4.34446979493284
h            0.71601539727021        1.96482475590941        4.66414367927433
h           -0.61078119233327        2.68268015560892        4.16690329530719
o           -0.51780903335902        0.00209932560508        2.71958626328471
h           -0.20656858883528       -0.91161380222333        2.64197125788573
h           -0.81154585130691        0.12783377303974        3.63673676839408
o            0.58341355317265       -3.41765052212061       -4.77302211287291
h            0.61436327180119       -2.99848601360904       -3.88163789187299
h           -0.36345384877978       -3.57336839887331       -4.92689837489708
o           -0.45516174077117        2.95756402040564        1.56185314759609
h            0.35437806682199        2.49631521119945        1.84318412919470
h           -0.53502070856224        3.74622470373632        2.12333872140278
o            4.64434373861123        1.60813073520237       -0.70192263247746
h            5.36791613188046        2.23981911389628       -0.48773148514953
h            4.46415236882880        1.11496050045728        0.11901966865763
o           -0.80201267719173       -0.80601077202070       -5.17974198783859
h            0.12603013070735       -0.98217560637671       -4.92572649640572
h           -1.37699691604605       -1.08576603406597       -4.43447973028216
o           -2.50177380639302       -1.78637338716531       -3.42274018314804
h           -2.61429604145325       -1.36071472385686       -2.52005928799630
h           -2.33145770989430       -2.71500889640953       -3.24835891072678
o           -7.77932262855747       -2.54061382358955       -2.47799729749862
h           -8.73614930988578       -2.64531823847493       -2.59066670984575
h           -7.46496150052294       -3.30755941153452       -1.97284948016465
o           -5.85934532248739       -0.97081278563077       -1.36822780945960
h           -5.43677957259155       -1.69715929154240       -1.85664224914640
h           -6.75157021560922       -0.85895442210867       -1.74440077615962
o           -2.99181456002815        1.90202633223581        1.16620488450285
h           -3.19331619213343        2.18674923182003        0.26573235934591
h           -2.09357668706392        2.21225934035319        1.38005817206227
o           -1.58155229146832        3.86764715237082       -3.97091937438987
h           -0.68522573782700        4.00546382178492       -4.31772650771383
h           -2.17753546107455        3.98429422794865       -4.73248243433437
o            1.84008289888273       -0.78332834562486       -4.73924409000687
h            2.09025943177209        0.15263834563854       -4.73041558462577
h            2.15567317200275       -1.18419081123434       -3.90332812486071
o           -2.98971932232284       -2.81363611495922        1.85697670651499
h           -3.76512527468291       -3.41209439203583        1.76452656929254
h           -3.37915622919199       -1.91196069211389        1.74607573390442
o           -4.71610179035390       -3.26893254481824       -2.24828632351069
h           -5.37780844646268       -3.87884041653245       -1.87201062032020
h           -3.85063823494928       -3.63025930399512       -1.99925313061533
o           -2.53487163792221       -1.85071936189561        4.40678510925155
h           -2.70205422061125       -2.26512372584824        3.54482844712139
h           -2.35470796323713       -2.56655713678254        5.02720670339048
o           -4.59091042446880        1.27008220466554       -2.62862227942407
h           -4.76652226707623        0.47100541950161       -3.16232717710842
h           -5.44421333520189        1.61001925682702       -2.31239448466306
o            1.22978883770355       -2.46208546487471       -7.17935985422014
h            2.15531365903621       -2.67120966847293       -7.32418368968359
h            1.04777807079039       -2.74308117460522       -6.25401594307099
o            4.27890976761519       -2.43659897463969        0.26418019109000
h            4.71463042429044       -3.22952718347417       -0.06629709804915
h            3.32241485945592       -2.59618177943399        0.17277375197032
o           -8.93818050974163       -2.98876337261116        0.22263931344417
h           -9.02835346127566       -3.95751183593343        0.23687173522349
h           -9.35954677174847       -2.67926459622552       -0.60463923940327
o            4.17157942757306        3.60487054165072        1.34766758836735
h            4.23993832053113        4.07903212335927        0.49885384621771
h            3.25353619284642        3.62251835351324        1.66070930832442
o          -10.78935857889524       -5.39286498476593       -2.05398814213706
h          -10.41030627376246       -4.82005124761002       -2.75317682816815
h          -11.59965814481755       -4.93997625438343       -1.78236155703754
o           -6.50211599265261       -0.73465913564054        4.82682226328170
h           -5.80352563556573       -0.49550087502869        5.46013660572452
h           -6.15567529669435       -1.49295633248795        4.29569044685852
o            3.95150572759099        3.42443808849062       -3.50563601485723
h            4.76907528563915        3.46510633411771       -4.03499599784467
h            3.60605697544067        4.33260345463366       -3.49735107732580
o            5.87151451885791       -3.17242707117156        5.67241633252968
h            4.96378193177493       -3.22393061399343        5.27989761904680
h            6.23278416204079       -4.05912364410619        5.55488236353424
o            6.40245038409950       -0.60231614181902        1.07482960798034
h            6.66068830754093       -0.20659147333290        0.21888773009215
h            5.69057593844500       -1.22552973949871        0.87791069234978
o           -6.42161573412146       -2.30700883836257        0.84538045546831
h           -7.34469102548114       -2.56985348947664        0.67399750616869
h           -6.16117958938390       -1.74535540237105        0.08458717125219
o            1.20286484500158        5.87133585477447        0.97782287488042
h            1.35707879569432        5.20988618284222        1.69573836197435
h            0.23652455225583        5.84832496640950        0.79734186752519
o           -0.12292662159532       -2.65961642894866        1.82227355723500
h           -1.07847217974263       -2.76477235759250        1.90626345494247
h            0.30883203374733       -3.40301629367835        2.27201860840886
o           -1.97109725632763        1.23468219544969       -3.48556650521936
h           -1.71792622411571        2.17135058904854       -3.56612461064566
h           -2.79394991008576        1.23767970247158       -2.97942043787793
o            5.25899339238595       -0.84282827400500       -1.74601685180953
h            4.83109441038536       -1.41185516161231       -1.08805914095302
h            5.14229656301270        0.06770486361864       -1.43183601365858
o            6.13607870401273       -5.88086231589095       -4.21696077026272
h            6.60434069506857       -6.03676908912624       -3.39082027920952
h            6.65179335676631       -5.18916944746403       -4.67951739294823
o            2.94050024388909        0.97758349350282       -2.74762863588283
h            3.58314802356612        1.58161699096228       -2.35143858904026
h            2.71695845102858        0.32987450899543       -2.03954234617735
o           -4.70788156221681       -0.76910416374485       -4.38069393237220
h           -4.30213795826044       -0.23538712436139       -5.08772614937580
h           -3.95648531512878       -1.29239132279580       -4.02764271892718
o           -1.44284735943662        0.55185844490003       -8.11583459493658
h           -0.47543459119054        0.45145296811534       -7.97019508924880
h           -1.76705039245817       -0.35084608584970       -8.21461814407203
o            7.73577719109757       -1.44570384477207       -3.46995954526747
h            8.46461165207833       -2.04550691872368       -3.70703083887251
h            7.81351924528465       -0.68941659223803       -4.06836085584951
o            6.97879359842785        1.85250484023029       -3.28536663629339
h            6.15803542227546        1.43527692753931       -3.61252964604020
h            6.80767909480371        2.80244164939758       -3.11995546843975
o            2.97972790384955       -2.16385478684395       -2.80153851798146
h            2.74049615454471       -1.76283215324977       -1.94876391639962
h            2.71861026797514       -3.09371279047447       -2.78736965169594
o          -10.39423110445395       -2.24595666592664       -1.90692499418126
h          -11.19932005585984       -2.74040613755295       -1.65992128759718
h          -10.68162038249077       -1.39563215371737       -2.27679544276564
o           -0.57268755796789        5.27765970385427        3.08615476297571
h           -0.03733732033586        5.63668310744524        3.80599271909129
h           -0.98505698020918        6.04189241965116        2.66404424363777
o           -3.11408778508419        0.92518384176393       -5.85001462615300
h           -2.56282894442852        0.92271414649317       -5.03190613875432
h           -2.51852414543876        0.81196299736830       -6.60319746947474
o            3.13078301973537       -4.89810144946857       -2.96653184837405
h            3.35598818344103       -4.89944277434416       -3.92919443856097
h            3.94956578757099       -4.61319539900153       -2.50625991937656
o            0.05406964778376        1.69607585924323       -5.44402183251942
h            0.36801935305609        2.02827484672249       -4.58087450009970
h           -0.44052566682921        0.87527769939425       -5.25466830998723
o            6.25536384704597        5.90736277163242        0.74766824123352
h            6.49676401354927        6.57901120971862        0.10792848818660
h            6.73368685756823        6.10995502513630        1.58548786460302
o            3.64204988250156        2.03968054726458        4.15769676396102
h            4.46102523471925        1.95334983307405        3.63459493809271
h            3.54454580464741        1.21396611567180        4.66375137031096
o            3.41958520004106        3.64232661317548        6.29786647840222
h            3.42879908128615        3.08261552280389        5.48935844701334
h            3.45247623898962        2.99765595958610        7.04436217704497
o            7.52154329877345        0.57980825480733       -1.02598023081277
h            7.98155429909478        1.14635852414440       -0.38077292167325
h            7.32980480806238        1.10650976054109       -1.82919455139262
o           -5.11874749069782        2.72783233261983        2.71634749838526
h           -5.59708682981849        1.88787850554829        2.83443423202970
h           -4.32562084458182        2.49994193056249        2.19390793125576
o           -3.89448106408128        0.56419993055509        4.28553196370115
h           -3.34307467593956       -0.21937831784660        4.45484562849227
h           -3.29376139031426        1.32118067092472        4.14453358178244
o           -6.80626294923471       -4.72273201913878       -1.26270054765014
h           -7.19896986690092       -5.32275232247070       -1.92456975214410
h           -6.86799509860764       -5.18344454949546       -0.40637666709733
o          -11.94778410631958        0.68180860774404       -0.17013506891512
h          -11.09811679874955        0.19340218355684       -0.04334370627884
h          -11.66299068734195        1.49529114077129       -0.61424522261190
o            4.67112270352720       -4.35762512391259        2.50141987282545
h            4.09574183100928       -4.78152224528455        1.83459513599164
h            5.45459945513816       -4.06312214493526        1.99235693035477
o           -6.62396954004760        1.19995090697201       -4.49125938251433
h           -6.67870392766940        0.37032127184280       -4.01285133979937
h           -7.39478279893377        1.73458682107037       -4.24219492462177
o           -4.41155821840874        2.72011297863570       -7.78118611008430
h           -3.76561697863720        2.36884812392543       -8.39474381186020
h           -4.91171354850550        1.92681903643542       -7.46838254830535
o            2.03726453058867       -3.38699239836490        7.29440281544695
h            1.73141053986496       -4.29640705829197        7.17378620663715
h            1.24558540703816       -2.82613329829987        7.27035644197782
o           -6.79259613470296        0.62391563361480        2.57763595845476
h           -6.71792303753109        0.28105718772432        3.49016314879317
h           -7.59545544061573        1.17667228643178        2.52651269409738
o           -9.52870137145493       -0.23904306932240        0.04188004031425
h           -9.03786363469331       -0.24875063082139       -0.80722807480761
h           -9.20625997677008       -0.95293893198926        0.61463372637624
o            6.55907418946836        3.21483604673678        0.02764352983557
h            6.40393493046177        4.13282084206919        0.29257036715627
h            7.32885932915000        3.21441720607586       -0.56053096979582
o           -1.67313136437168       -4.74433253173486        3.42414968021764
h           -2.63481795164951       -4.94180504221410        3.45837467984238
h           -1.40186130903921       -5.00505811874550        2.53199983798872
o           -8.20878264391340        0.11935005762716       -2.22986378982000
h           -7.91773476731569        1.04710856095215       -2.12723963184105
h           -8.58001102387185        0.01478137892845       -3.11613708379396
o           -1.52867765807398       -2.14677270752863       -7.30159451847944
h           -0.67173240887854       -2.40043207609521       -7.66435750582327
h           -1.29478514777344       -1.59241293626049       -6.50476787660696
o           -1.97660662001603       -3.99382456226449       -5.38855337256571
h           -2.92082304001466       -3.85519321712625       -5.13836347377762
h           -1.87286644764085       -3.50775733306031       -6.22780490890278
o           -1.98966843120465       -4.06116990031635       -1.92576826713286
h           -1.95442942097380       -4.37723526799283       -1.00305250183950
h           -1.67320491656487       -4.80974157886640       -2.44198886993949
o            2.09139743916638        2.58273478908130       -0.33888267415927
h            2.99693494325296        2.24599452412317       -0.42615744726223
h            1.50875668942221        1.84513621891391       -0.11884935327341
o            4.14573698257072       -0.35585255018479        5.34094789108248
h            4.18417142020468       -1.01356185046482        4.62691501372835
h            4.12582011771838       -0.83716994243002        6.18833192756482
o           -4.70765441953756        4.43460063767081        0.07817584464716
h           -4.12612421299045        3.91723606317017       -0.52690332821535
h           -5.52726226059658        3.93176782352223        0.18005509519499
o           -1.76363310357547       -6.89242674464115       -1.67847369717613
h           -1.57425285044547       -7.57384226832114       -1.00826543895597
h           -1.59697285643767       -7.25827120679879       -2.54997355202086
o           -2.34358722596881        2.86495243649787        4.09243946811569
h           -2.57976845195659        3.37951382585862        3.29778899494058
h           -2.27100958320242        3.54202491908155        4.78602785956647
o           -1.15530928231386        0.39984844570309        5.40272400635127
h           -0.96118647512418       -0.44885281095660        5.82943123266268
h           -2.01323525801769        0.70149663831697        5.73080914891261
o           -5.46260958759534       -2.61705840739717        3.36177506480416
h           -5.62458186836776       -2.24576651604444        2.47561667121930
h           -5.88256579423263       -3.50175013031802        3.33640557425821
o           -9.03548388991421        2.49025431396161       -3.92092679782803
h           -8.75911648125498        3.44356173151654       -3.99202630513150
h           -9.48628364469037        2.29916920908985       -4.74597170028243
o           -2.64949941398712        4.36280920723152       -6.43041523640508
h           -3.43107956047456        3.91335912543007       -6.79557788152626
h           -1.88300017700063        3.94148015382125       -6.88520823501043
o          -12.54817255621726       -3.50582053814050       -0.92370507710137
h          -12.26764661974354       -3.41684913689485        0.01061971241469
h          -13.09365355640930       -2.72455910752365       -1.12669786136848
o           -9.02719423348363       -3.55393349857664        5.94814078244892
h           -8.91115095374961       -2.63221633669063        6.23686960826149
h           -9.98601212052688       -3.67449126429137        5.82650652333364
o            4.12210386936339        5.56692802301655       -6.08313390502495
h            3.70630748493979        5.81208056507238       -5.23645628277672
h            3.44706132369174        5.06026921322299       -6.55804828586374
o            4.46057468796123        4.93823820214496       -1.03765343652951
h            3.53922654284115        4.95053053960453       -1.37077520322332
h            5.00048072097007        4.41527400806392       -1.65377503626760
o            0.96283279507101        2.65200225045499       -3.11044875202146
h            1.69458644188146        2.00691191080440       -2.95373284336116
h            1.37877281858149        3.47878560164871       -3.36675825574189
o            2.00480240000013        3.89722402682676       -6.80219649261230
h            1.25391431286528        3.65415875007812       -7.36070047099594
h            2.27598972324038        3.06486056555116       -6.33821616265888
o           10.92778484465242       -0.40761388758263       -3.85584090136634
h           10.82004115254841        0.46873983551183       -4.25275498984181
h           10.36468846029475       -0.43024225168359       -3.06131989567957
o            8.19531411786277        0.65801865385110       -5.30613331241266
h            9.09769014744299        0.96623001595628       -5.43199715643544
h            7.82365659954431        1.22847339812603       -4.59444281404104
o           -4.40342157456354        4.16182803477761        6.40241518820252
h           -3.51187778177855        4.54303939180994        6.31664295906029
h           -4.93442706909813        4.60628902824178        5.70778868854790
o            8.17251425407793        0.24783606260673        3.42370466535858
h            7.49526271561171        0.65560563847464        4.00708033633494
h            8.20660495301556        0.70064552329610        2.55298949804116
o            6.83141977440087       -3.58890017203218        1.25764139091973
h            7.17121953987534       -2.99389841683507        1.94227302750138
h            6.99329169148274       -3.16265706347814        0.38986253332978
o            5.77918012062438        1.73102597850047        2.49352554855823
h            5.97550046861053        0.89050836548127        2.04131157031329
h            5.30086344870159        2.28292102069738        1.85244177173563
o           -7.00562477923887       -2.07323676905134       -4.89500295435612
h           -6.11784420130461       -1.66487333943797       -4.85294671595810
h           -7.24409307411441       -2.27855562220205       -3.95360187869638
o           -8.70077998666736       -1.31293783998956        2.40894687870516
h           -7.81653477920502       -0.93942974804223        2.26560696670367
h           -9.13027647991980       -0.74024346762257        3.07022233975377
o           -4.17114088691354       -0.48122496465336        1.79482666728135
h           -3.80814774169110        0.31935219747158        1.38028251874165
h           -4.26992724104859       -0.23199790027566        2.72740421485955
o            1.84453968126895        4.92896138430527       -1.42677075562817
h            1.82680625731434        3.98690422070673       -1.14392712976976
h            1.65248528428701        5.41473157763706       -0.60071974896680
o           -3.10840402111117        1.68575539920042        6.97669657242267
h           -2.26172949516347        1.89171179229266        7.41081144884677
h           -3.55179071327551        2.53369710693114        6.83148558199509
o            7.81227170640043        3.56248985918273        2.55437861271222
h            6.98669182619511        3.04929283719533        2.61530617825938
h            8.26676498083379        3.46914171684309        3.40959918276737
o            1.75508641496829       -1.39363771540226        3.54003778026546
h            2.67279892642564       -1.63310841298490        3.38515895123473
h            1.33077075633492       -2.18421442485484        3.90430825726978
o            9.69088583080803       -0.77541274705948       -1.38937533419789
h           10.22257180227959        0.03134013759211       -1.22759510250722
h            8.76106379867418       -0.43798571276472       -1.41915117743512
o            8.47470123864200        4.02254117970020       -5.39591260738329
h            8.56427640663149        4.54649105248977       -6.19076320073935
h            7.50476745362956        3.86018451306333       -5.28594056278569
o            5.09912371131844        0.14763145690333       -4.19878512804901
h            5.35207619675017       -0.39346384279539       -3.42736518181908
h            4.19403668178948        0.42151011149353       -3.97950686949330
o          -11.16298468023085        0.10022328030155       -3.14519680549783
h          -10.46840568587228        0.10434453401897       -3.81940029744717
h          -10.99063056712178        0.86393853674638       -2.58055765078364
o          -10.41877516907671        2.47899275410659       -1.55176341473185
h          -10.09205712238832        3.14566528395429       -0.93123135710285
h           -9.84255237603694        2.54298740866919       -2.33482591508185
o           -4.15180263440812        6.71440044565744        3.13615427743656
h           -3.59077426835855        5.95937326960696        2.82779392584537
h           -4.51973510967231        7.08272406678577        2.31831187251377
o           -3.08336717983423        3.08353363781875       -1.41532610559014
h           -2.11446060402672        3.23584649638751       -1.33089059012409
h           -3.36497863340711        3.59178994196437       -2.18960253085514
o            3.97299555879717        0.12665182214966       -7.12311562483831
h            3.09608946905370        0.16139654982611       -7.53692531614639
h            4.09913312449436       -0.78843956235100       -6.80602006005727
o           -7.87801164300101        6.42822389570811        3.18740884948173
h           -7.15874436063277        5.93693881878805        3.62407254706898
h           -8.65846611229307        5.86321330642843        3.27670662079655
o           -0.49323628773890        5.81228764235299       -2.37729944024102
h           -0.95572886283019        5.05544840497024       -2.77659727699530
h            0.40045129024715        5.46714206167473       -2.16828062683316
o            6.48579572086709       -1.39441144453049       -6.12071301853816
h            5.93857446473628       -0.86551811859960       -5.51665211598104
h            7.30505742985836       -0.90475944925903       -6.22183035185670
o           -5.81253024083064        0.56705575118999       -7.02052472075640
h           -5.33341161388153       -0.27689575481055       -7.05437862471556
h           -5.99979501945674        0.75082315024088       -6.07873248853309
o           -0.34340246634011       -1.97029464390182        6.71812951201166
h           -1.09624250249389       -2.51299963025109        6.98895854418519
h           -0.06550841962237       -2.38762327668315        5.86483455957781
o           -7.94979908574076       -6.24150063323172       -3.14460866115219
h           -8.90218862878128       -6.20363667574456       -3.01885511371963
h           -7.74304890092259       -5.71257178080462       -3.94470611652165
o           -4.17479959137443       -5.75602337817325       -1.23697071523764
h           -4.79332407438954       -6.32993005252789       -1.71193329267159
h           -3.29768951205015       -6.15416301903477       -1.36904842338391
o           -6.97189005036867        2.41860328360915       -1.76341684399549
h           -6.96162045992106        3.38478652536950       -1.85233347784620
h           -6.61873869623261        2.19750130822215       -0.87605332742252
o           -5.80226749798271       -8.23234758172678        0.14564459808761
h           -6.09774703926870       -9.00400959803451        0.62673557485315
h           -6.36819605617725       -7.47811825970199        0.43972164920401
o            7.14587752452662       -2.13525651809701        3.56296218223863
h            7.59156475237672       -1.25603321606867        3.55270008199070
h            6.78185066729980       -2.30294169273979        4.45545621563607
o           -0.57379909856450        3.13555797089228       -7.51106052954573
h           -0.89748257063422        2.47180095937352       -8.12699183420173
h           -0.35658646221676        2.61241501702770       -6.69396104265413
o            6.56003834467914        4.40914256353287       -2.70655098519437
h            7.23582329678139        4.86638726921081       -2.18137366581835
h            6.45970975318704        4.97811991924464       -3.49437178120259
o          -13.41703034380739       -1.02878974635199       -1.67069776589776
h          -12.96490691405399       -0.41996452903693       -1.05533995158879
h          -13.05087027617856       -0.80015347796428       -2.52931467153740
o            2.04857129463962        4.28738245182926        2.87435310902578
h            2.48269448876267        4.83524502269992        3.54894059203951
h            1.40549881860181        3.72834825129495        3.35336946748397
o           -0.44835967560229        2.04679140640493        7.46960732669194
h           -0.02843760976146        2.91373190587230        7.29941593178142
h           -0.45918641549780        1.59204281329511        6.60476755562921
o           -2.33795467479151       -3.85066293164654        6.43592041329418
h           -3.25125809445802       -3.50371212893607        6.48143247097147
h           -2.47174925247815       -4.80503151680342        6.35002806836319
o            1.24184299338527       -5.65712908694810        5.93353537250385
h            0.44829224230900       -6.19484011026112        5.75027369470672
h            1.95722897911404       -6.04035754699358        5.40716878423869
o           -0.55580050833449        3.44607443338330       -1.04055389616046
h            0.01330534766568        3.01597848398627       -1.70650337467538
h           -0.33076887421215        3.12555241812055       -0.14436265060621
o            3.57884834696477        1.78094113206959        8.12787721161923
h            4.46193519013480        1.36019935750493        8.18349399865926
h            2.93267236031524        1.06592811180646        8.11928492531676
o           -5.68495279616658       -7.63813468885610       -2.53777591615253
h           -5.76476403286221       -8.07216983138753       -1.67462325273331