612
 energy: -1033.450544772067 gnorm: 0.000710096219 xtb: 6.5.1 (579679a)
H           -1.51394301040000       -0.41658930390000       -1.26080483150000
C           -0.46860370360000       -0.24753773690000       -1.02425549120000
H            0.06499649980000       -1.19255364530000       -1.07184942130000
C           -0.34721247460000        0.32899315310000        0.37764196080000
H            0.63986224270000        0.76311332460000        0.50531332840000
H           -0.48183809110000       -0.46225978580000        1.10506641800000
O            0.02169446370000        0.65823833430000       -1.98422245670000
H            0.99008265680000        0.76220878370000       -1.80069781460000
N           -1.35955117840000        1.37996549540000        0.56274820960000
H           -1.34496085900000        2.04990255200000       -0.24941987920000
H           -1.17785647950000        1.93518026950000        1.42326129390000
H           -2.29615011630000        0.96553376080000        0.59724483510000
O            2.63459819320000        4.34481767970000        1.98707697200000
H            2.55949342940000        3.37123770650000        1.82887065800000
H            3.17862295110000        4.64776324660000        1.22927164040000
O            3.38750605410000        3.46232002000000       -2.54943250230000
H            3.49609386350000        4.12492237310000       -3.25506437200000
H            3.99604068970000        2.74276214430000       -2.75994403180000
O            8.14250865760000        3.23766784080000       -0.17756801760000
H            7.89185879170000        2.63718816820000        0.55367656070000
H            7.35310507070000        3.33398932520000       -0.75686614920000
O           -0.67582596900000        2.29427696280000        3.04593164910000
H           -0.96133544800000        1.37353757940000        3.28131813330000
H            0.29572887690000        2.25511560360000        3.17858274330000
O           -6.51476108280000        3.77000512490000       -0.22863150160000
H           -6.93707001080000        3.27862297170000       -0.96488481570000
H           -5.57222854240000        3.52774496560000       -0.26830942530000
O           -4.95423897670000       -5.39874132100000       -5.06274178790000
H           -4.82954693550000       -4.43679501920000       -5.18969754500000
H           -4.11243117080000       -5.79972145720000       -5.28593756200000
O            2.38327952560000       -0.37411000210000        2.31771454290000
H            3.07019684980000       -0.40851493310000        2.99513176380000
H            2.47063621930000        0.47771036010000        1.86010687040000
O            6.13760131550000        6.53423159630000       -0.35903623810000
H            7.06110349530000        6.31123163710000       -0.14904963430000
H            5.75390912360000        6.84437316470000        0.47425029530000
O            1.29044379970000       -2.19342125620000        0.78525316190000
H            1.75740454370000       -1.52427206730000        1.33781281990000
H            1.80943475730000       -3.00653564320000        0.81138714360000
O           -4.36052697790000       -3.73491283110000       -2.62436184720000
H           -5.25759706220000       -3.89128350150000       -2.96146685620000
H           -4.26950083710000       -4.28242497030000       -1.81083849810000
O            1.27954251510000        3.31902289190000       -0.94969389590000
H            1.95355870820000        3.07661035390000       -1.61182328360000
H            1.39112832350000        4.27693544310000       -0.82426800640000
O            6.13523642910000        3.48422127040000       -1.87822151530000
H            6.34445030600000        4.31745188540000       -2.34382563610000
H            6.50476146700000        2.76908926940000       -2.43178826210000
O           -5.13511545240000        0.30662415060000        1.52480027450000
H           -4.33066126600000       -0.23971430250000        1.51674759570000
H           -5.55541006740000        0.17989388270000        0.65435384510000
O            0.87653915550000       -0.76828276030000        4.60404324580000
H            1.31799610400000        0.02682390160000        4.24632147080000
H           -0.03876721090000       -0.70379671370000        4.28098623480000
O            1.68682686710000        1.81765164060000        3.99480134800000
H            1.58100262650000        2.38283671960000        4.78256449570000
H            2.60033547960000        1.97365510230000        3.69071290500000
O            3.99289026330000       -0.82127786250000        0.00063788900000
H            4.41957664220000       -0.27585701080000        0.68187327990000
H            3.89560587150000       -1.68400075380000        0.43915887780000
O           -4.61842464500000       -4.33101084460000        5.26918143400000
H           -3.71188163700000       -4.67205312120000        5.20743578680000
H           -4.66428524230000       -3.50538933720000        4.73886167390000
O           -0.22805299470000       -3.41388907850000        2.60103590420000
H            0.26899839230000       -2.82784036240000        1.99700596100000
H           -0.48068516880000       -4.19640970440000        2.05070704240000
O           -1.49469431270000       -0.11854404000000        3.53179903560000
H           -2.31128468290000        0.00908924140000        4.06281169860000
H           -1.83535690350000       -0.52208423790000        2.70767330530000
O           -1.48677221300000        0.75307611780000        6.80171074240000
H           -1.28964961000000        1.60564824980000        6.35685189100000
H           -2.38348427600000        0.84576650940000        7.14517354190000
O            7.53123537510000        3.39580779700000        3.85764723830000
H            7.07410374640000        3.22584105720000        4.69033010580000
H            6.85732466250000        3.77400612150000        3.25475450170000
O           -3.50916930790000        5.95383322450000       -0.00383757400000
H           -4.18415269970000        5.57049155380000        0.58458883150000
H           -2.78532260590000        5.29281464200000        0.03722593440000
O           -5.65845678600000        2.43519627400000        4.26148430470000
H           -6.18931014030000        2.54655538070000        3.45572800490000
H           -5.33912198610000        1.52310446100000        4.24967427480000
O           -1.89303768450000       -3.01470755760000       -0.16298445620000
H           -2.60601639430000       -3.68351411070000       -0.14399012140000
H           -1.06425554910000       -3.52223980650000       -0.14797115130000
O            2.25189188520000       -2.11271895650000       -1.79476489170000
H            1.86812194700000       -2.03203669930000       -0.90792211300000
H            2.75654569170000       -2.94143797570000       -1.79934337740000
O           10.31171145690000        3.17040897970000       -1.83778178960000
H           10.20825877710000        2.43670898680000       -2.46351227870000
H            9.58041169790000        3.09875678740000       -1.19098231270000
O           -3.39972829720000        2.26849440220000        2.41963546620000
H           -2.61701871450000        2.63716288160000        2.83504562810000
H           -3.71237539920000        1.54072982130000        2.97199826500000
O            2.58574434920000        0.88875420530000       -1.51097333010000
H            3.00273820910000        0.21810206170000       -0.94403625230000
H            2.82714327120000        0.68264784430000       -2.42366182970000
O           -1.83809149050000       -1.81215527480000        5.97327446890000
H           -1.61293178990000       -0.89671433290000        6.21796464940000
H           -2.61422804350000       -2.05186253060000        6.52413666000000
O           -2.57683955440000       -2.85615785760000        3.60476018010000
H           -2.43203105240000       -2.42819960750000        4.46722497340000
H           -1.68089545160000       -3.00806324180000        3.22906390350000
O           -0.22439108800000        0.81887217720000       -7.10237251770000
H           -0.10662840410000        1.78051552370000       -6.96426360720000
H           -1.07450350910000        0.69734466850000       -7.53770937150000
O            4.12953167830000        7.04648428980000       -2.23903435010000
H            3.35021925700000        6.70500801180000       -1.76027340420000
H            4.87621335610000        6.95809763430000       -1.63096810470000
O            0.04193559240000        3.35553357850000       -6.23336496450000
H            0.98381578470000        3.46225885010000       -6.47295012940000
H            0.10210456990000        2.95884911900000       -5.33035185570000
O            4.63370760460000       -0.91378330690000       -2.79332245920000
H            4.03236380800000       -1.42440207960000       -3.35306020800000
H            4.33363429190000       -1.04542994100000       -1.87921645690000
O           -1.06485406750000       -5.41667497310000        1.12365594760000
H           -0.70213133690000       -6.18694626670000        1.59296716820000
H           -2.00637382470000       -5.35130432210000        1.38025399660000
O          -10.89962489090000       -1.96227698600000       -0.75077977440000
H          -11.38386707220000       -1.15484692050000       -0.96102210470000
H          -10.97309983350000       -2.09325153380000        0.21028337570000
O           -8.48506514120000       -1.27278807050000        1.36644931010000
H           -9.24935570700000       -1.78522927150000        1.64375509310000
H           -7.92351135280000       -1.86140623240000        0.81163000520000
O           -2.86778683220000       -1.20399523570000        1.55306707790000
H           -3.06967224050000       -1.84909918690000        2.26089327020000
H           -2.55696114560000       -1.75477115350000        0.80844961670000
O            0.59121136740000        2.51525202110000       -3.80737467260000
H            1.42387137630000        2.02002387490000       -4.00073747220000
H            0.08902784050000        1.89313458800000       -3.25794228660000
O           -0.32940066660000        7.64225109520000       -0.75656607090000
H           -0.85857639360000        7.88247204750000        0.01217807920000
H           -0.88433473170000        7.03877255100000       -1.28077179370000
O           -7.02141549070000       -0.11248776070000        3.31636511810000
H           -6.22553725930000       -0.00707386420000        2.75899291140000
H           -7.66673465900000       -0.53900524140000        2.72919386260000
O            6.37863430080000        0.16820334480000        5.13556464540000
H            5.48981003480000       -0.06113946840000        4.77921537500000
H            6.27448398370000        1.07176203940000        5.48607458680000
O           -3.73579070880000       -4.96111203620000       -0.40676448490000
H           -4.42793924600000       -5.32535946930000        0.17944392240000
H           -3.27880068720000       -5.74249979410000       -0.77634767680000
O            2.56731498990000        1.96926966780000        1.00619831400000
H            2.06359646760000        2.30334325620000        0.23581305850000
H            3.50354465210000        1.98329651380000        0.70703114640000
O            5.10022300640000        2.26179261080000        0.26450144440000
H            5.17685451860000        2.76703486120000       -0.55924658200000
H            5.61031026970000        1.43957886580000        0.12495308770000
O            0.14464871700000       -7.29455113820000        2.65191388110000
H            0.82139039410000       -6.67660476550000        2.98473623500000
H            0.59415778200000       -7.86000677000000        2.00662647340000
O           -6.22460760710000       -5.80109528730000        3.59112459190000
H           -6.91404647500000       -5.14480160290000        3.40825587080000
H           -5.64332915500000       -5.39061468620000        4.25733954100000
O            2.04805220550000       -6.93089196340000       -2.98781207070000
H            1.82379966460000       -5.97917459100000       -3.11640016470000
H            2.40957833260000       -7.22423947810000       -3.82685268700000
O            2.70962185810000        3.32940560650000       -6.31317249110000
H            3.36452754330000        3.93509062200000       -6.65748193860000
H            3.02712249740000        2.43039048450000       -6.54904297570000
O            4.02676011930000        4.75949905430000       -0.22872462300000
H            3.77138836330000        4.32274641370000       -1.06110320870000
H            4.83584233670000        5.25821406750000       -0.40376690630000
O            3.35708429350000       -2.73541678390000       -4.48213788870000
H            2.77114765950000       -3.20289077510000       -3.86235494000000
H            2.93664268440000       -2.85621745400000       -5.35002762690000
O           -2.62946075800000        2.29369746900000       -3.57255031500000
H           -2.70336823400000        2.85447838660000       -4.36380231770000
H           -2.10739734280000        1.51572945750000       -3.86254625680000
O           -0.51050986410000       -4.02777394450000       -5.34361109900000
H           -0.96130061910000       -3.22213207640000       -5.66274879700000
H           -1.20679001020000       -4.58213867510000       -4.96527644450000
O            2.98967330940000        5.33433758860000        4.39099648840000
H            3.86700776170000        5.09321862830000        4.69134858690000
H            2.88281935570000        4.92938287920000        3.49458551720000
O           -1.30936514710000        5.63410437260000       -2.33988807100000
H           -0.53588768070000        5.55185657710000       -2.92253952290000
H           -1.38152022910000        4.76237198420000       -1.87458263370000
O            5.24973539390000        0.17133626480000        2.25262261760000
H            6.03972160220000        0.68916558530000        2.00277207990000
H            5.58449829520000       -0.71007121960000        2.49725284620000
O           -3.70560100390000        3.96033482300000        5.23478395720000
H           -4.34751143000000        3.32303633670000        4.85692260240000
H           -3.35803618060000        4.47066410360000        4.47303240260000
O            5.55995244180000        2.66448928760000        5.75043279870000
H            4.95318711640000        2.44936187780000        6.46762850740000
H            5.00950293530000        2.55980988280000        4.93464863100000
O            0.57087776950000       -1.54853211600000       -3.82196216970000
H            1.24145382180000       -1.63477644150000       -3.11779777440000
H           -0.19909745390000       -2.06395972610000       -3.51421118220000
O           -1.20744590220000        0.32126752550000       -4.55889631970000
H           -0.52600604210000       -0.20957774040000       -4.10153929020000
H           -0.89539074420000        0.44966679000000       -5.46951761920000
O           -1.28350375870000        3.17289309500000       -1.46859604750000
H           -1.70056252430000        2.75966792800000       -2.25232143620000
H           -0.30483500160000        3.08418379540000       -1.48708146640000
O            0.25104156980000       -4.44284725150000       -1.10925814400000
H           -0.11691035600000       -5.34300460310000       -1.09618723050000
H            0.99209317050000       -4.48287715810000       -0.47530726540000
O            9.91180147540000       -3.42454527460000        2.98733386400000
H            9.18576371320000       -3.59696380550000        3.60637288250000
H           10.38450883960000       -2.66896679920000        3.34617251410000
O            4.72288737940000       -5.59750151220000        3.16842825000000
H            5.22330880760000       -5.28380150010000        2.39581433990000
H            4.85233257150000       -4.92411550120000        3.85552232630000
O           -8.19064968640000        3.80630603170000        4.43985740850000
H           -7.98793681570000        2.89726820100000        4.75859698300000
H           -8.90367183220000        4.13159379810000        4.98773773630000
O            9.81365363500000        4.20912401060000        2.62714546710000
H            9.01279969420000        3.96746275760000        3.12898555410000
H           10.50414442960000        4.37357690770000        3.26907700820000
O            9.38118156970000        5.74810984730000       -2.21113510220000
H            9.22845842160000        5.93405881740000       -1.26957468300000
H            9.84353261110000        4.89311202830000       -2.22982113870000
O            8.61808460910000        5.72167135050000        0.45382112270000
H            9.16292123760000        5.70841132830000        1.24454088860000
H            8.44960720430000        4.76282201460000        0.26731890520000
O           -3.43154369370000        0.40010573200000       -1.12122665460000
H           -3.48306966950000        0.31294004340000       -2.08192499000000
H           -3.80593269210000       -0.44271629710000       -0.78721281040000
O            3.64719858370000        0.90749314590000       -7.00809676880000
H            2.99525250130000        0.19806340930000       -6.95529339600000
H            4.45998567640000        0.55495152060000       -6.60652358700000
O           -3.92854126570000        0.28384575860000        4.40309265750000
H           -4.38078258970000       -0.58597147970000        4.27087836210000
H           -3.95114342290000        0.47565732930000        5.35903953130000
O           -8.60469814180000       -1.03633340020000       -1.88025791610000
H           -9.41885310010000       -1.26358326870000       -1.40426100350000
H           -8.78549771830000       -1.23198667210000       -2.81607404230000
O           -7.69471994790000        0.66332042450000       -4.54823922760000
H           -7.44022933760000        1.60273650900000       -4.56035846610000
H           -8.61106439340000        0.65939993670000       -4.22635580580000
O            8.70436095500000       -4.01990269490000        0.61368025540000
H            8.73300429820000       -3.20836806710000        0.06381797900000
H            9.19396879520000       -3.83430033510000        1.43199545330000
O            8.92926427410000       -1.97039286910000       -1.13916297970000
H            8.25816722580000       -1.71467316140000       -1.79605155650000
H            9.67433628450000       -2.36511353350000       -1.63836597710000
O           -4.27315852690000        1.04615831930000        6.95360830280000
H           -4.62328407810000        1.93642867430000        6.87480794000000
H           -5.03306470930000        0.44487529890000        7.05198696130000
O            0.43583711190000        5.47028734210000        1.15561868940000
H            0.04167766430000        5.93049309190000        1.92701588520000
H            1.17652540220000        4.92785563630000        1.50800533790000
O           -8.53367392250000        4.90386537480000        1.78825975770000
H           -7.90717633440000        5.60110367150000        1.51714400260000
H           -8.18684809640000        4.51235624250000        2.60111719810000
O           -2.71954147210000        5.33705638270000        3.16808047980000
H           -1.92494322380000        5.85070846380000        3.38438570710000
H           -3.40291307280000        5.99058397540000        2.91027818630000
O            1.86127790010000        7.78069561800000        3.68933481770000
H            2.27074918810000        6.97708273990000        4.04877510710000
H            2.07003582210000        7.79553802370000        2.73924201620000
O           -0.05953391220000       -3.73094375560000        5.26627543440000
H           -0.54581645290000       -2.94860721430000        5.59643801700000
H            0.05613164750000       -3.59295307990000        4.30241394190000
O            8.42786148000000       -0.90012488650000        1.65997148880000
H            9.18396808790000       -1.32560622360000        1.22530592820000
H            7.68649102320000       -1.52984766250000        1.72649486780000
O           -1.99172998050000       -2.00017000070000       -6.33176460590000
H           -2.88395580110000       -2.35361844020000       -6.18364302570000
H           -2.11648115630000       -1.07080505370000       -6.54881398510000
O           -9.61848313900000        1.72240688700000        2.85122524670000
H           -8.69162065360000        1.91930281830000        2.63374898440000
H          -10.10517847760000        2.55036727220000        2.72848658870000
O            2.58501476680000        0.89594570510000       -4.22848173140000
H            3.49229713070000        1.24994976540000       -4.27885495670000
H            2.45167969330000        0.26811442450000       -4.95127925210000
O           -2.67455918610000        3.71426207570000       -5.88127405920000
H           -2.87700634930000        4.56297809740000       -5.45120590480000
H           -1.74865488670000        3.74921908780000       -6.16765194630000
O            6.01639836760000       -2.04357987490000        6.67156890140000
H            5.21237495960000       -1.84852004570000        7.17131676420000
H            6.25272048230000       -1.21154168560000        6.21352113180000
O            3.27949872260000       -1.80110401900000        7.06520613440000
H            2.55631626850000       -1.23403072700000        7.37033526930000
H            2.89156354930000       -2.68359230510000        6.94991769840000
O            3.01738700120000       -5.72283939770000       -5.36473477560000
H            2.47006139600000       -5.16295757610000       -4.79089498460000
H            2.94049474170000       -5.31496938690000       -6.23307412840000
O            5.83546841170000        4.05754276550000       -5.19344873480000
H            6.43065745210000        4.57181680890000       -4.62151946730000
H            4.99164142320000        4.52919378140000       -5.11405309750000
O            3.98264307270000       -4.22896815420000       -1.87554451410000
H            4.65589770540000       -3.66185342180000       -1.46464001540000
H            4.37453855370000       -4.61502955430000       -2.66708733050000
O            6.34755606690000       -2.28499312000000        2.52667789930000
H            6.67930778090000       -2.73586465770000        3.32083537800000
H            5.56254374850000       -2.76447366690000        2.20318107660000
O           -0.09170769180000       -7.15781626260000       -1.29778381170000
H            0.25891763060000       -7.64446638150000       -0.53593947670000
H            0.57466764330000       -7.24050684590000       -1.99758144520000
O            2.37472200550000       -2.84772962840000        3.68560807250000
H            1.85023725930000       -2.07714202600000        3.98118237630000
H            3.14239768830000       -2.93311749080000        4.27586988260000
O            9.09437035010000        0.68791546750000       -0.69453403330000
H            9.53595315910000        1.02923850860000        0.10359130650000
H            9.29928152770000       -0.25975248530000       -0.76592231730000
O           -7.97245570090000        1.23912163500000        5.35668425540000
H           -8.84785577530000        0.85657198320000        5.45235692240000
H           -7.59124063110000        0.79659484470000        4.55496424890000
O           -4.12216188810000       -2.46076227530000        7.20014834310000
H           -4.84512351730000       -1.82602690200000        7.18108636240000
H           -4.42640680770000       -3.22588896910000        6.67544071720000
O           -9.46133237910000        3.48969293490000       -3.56782412020000
H           -9.48192481250000        4.18047626890000       -2.89105400600000
H           -8.70967390970000        3.68322769410000       -4.15245332230000
O           -1.58653927770000       -2.75175128020000       -2.78121039170000
H           -1.67932612580000       -2.77580964710000       -1.80383510060000
H           -1.73845816580000       -3.65675171480000       -3.09148881940000
O            1.46501467170000        3.66865368170000        5.94713155140000
H            0.49714035460000        3.73124014140000        5.97326244070000
H            1.82245909550000        4.43367329200000        5.46452040280000
O           -9.01986427750000        4.93438978740000       -1.19492581250000
H           -8.70370270050000        4.67222865530000       -0.32063215130000
H           -8.32115672410000        5.50675670660000       -1.54215779300000
O           -4.56471527530000       -1.93063291030000       -0.63062613360000
H           -4.43084155200000       -2.48573931490000       -1.42135722000000
H           -5.44578821030000       -1.52585489900000       -0.73801280890000
O           -7.59448953530000        2.20329679030000       -2.06065301580000
H           -8.00670312770000        1.62809960590000       -1.39219255330000
H           -8.31661065310000        2.58256598380000       -2.58938163490000
O           -1.18182704370000        3.11961725660000        5.56504362280000
H           -1.01530754540000        2.92493709210000        4.61982683900000
H           -2.09527044760000        3.46622822020000        5.61227554820000
O            6.16619502510000       -4.73046788240000        0.97842431740000
H            6.04604383000000       -5.52070147960000        0.42543145660000
H            7.13019572350000       -4.56087810760000        1.00136944720000
O            5.97119536870000       -2.68421241080000       -0.75144543600000
H            6.08091799840000       -1.75837149940000       -0.47117448110000
H            6.00443180060000       -3.25815945750000        0.03754072690000
O           -7.72179414280000       -3.83813483730000        2.38481136510000
H           -6.85440909240000       -3.53004432010000        2.02738268610000
H           -8.16068924130000       -4.27876429170000        1.65697589980000
O            2.22637977960000        7.46689030390000        0.98315655480000
H            2.03264746500000        8.09113009460000        0.28329292610000
H            1.57736388640000        6.73086515980000        0.87626250900000
O           -9.56195609490000       -3.83689421300000       -2.44217435200000
H           -9.75818474590000       -3.33893525200000       -3.24867691980000
H          -10.06314802760000       -3.38146577240000       -1.75266137700000
O          -11.09206277760000        0.88124193210000       -1.09718840180000
H          -11.37674754910000        1.82317180380000       -1.09150251090000
H          -10.17727357410000        0.92521575920000       -0.74244312420000
O           -9.83536848200000       -0.68572366340000        4.20029253060000
H          -10.30706870470000       -1.28442316520000        3.60943529550000
H           -9.75980067450000        0.15338471510000        3.71534023670000
O           -7.71873072210000       -2.34917710040000        4.81090059320000
H           -8.43286055440000       -1.70069708050000        4.67316776230000
H           -7.82760938080000       -2.99499291170000        4.10083582690000
O           -3.42688955930000       -5.04707937350000        2.34831757420000
H           -3.14940726980000       -4.36105229820000        2.98084924770000
H           -3.36698790570000       -5.90532173910000        2.79795545070000
O           -4.49584717290000       -2.72574492810000       -5.48286649290000
H           -5.38140430580000       -2.43328335940000       -5.74459565490000
H           -4.23949044090000       -2.17843255550000       -4.71368612790000
O            8.96254043760000       -0.48903713630000       -5.05318633510000
H            8.73215209290000        0.23206343330000       -5.64915876050000
H            9.56073284230000       -0.07836300980000       -4.39518745740000
O           -2.42304063230000       -5.22541385570000       -3.68435014780000
H           -2.43414668310000       -5.98195924950000       -3.08864502010000
H           -3.23267318660000       -4.70548955450000       -3.46452630750000
O           -5.24541142610000       -3.15696030740000        1.65831808740000
H           -4.69303835570000       -3.95023882130000        1.76545913330000
H           -5.01464091630000       -2.75603122620000        0.79366710000000
O           10.62232117870000        0.80943691630000       -3.33381030550000
H           10.94071614120000        0.24257238620000       -2.59140498630000
H           11.39845297900000        1.04036212570000       -3.84482168880000
O           -2.77020931400000       -7.17983256780000       -1.53904955700000
H           -1.79991369030000       -7.23930729240000       -1.47331927890000
H           -3.09396551910000       -7.66901803610000       -0.75296986030000
O           -5.25135496940000        0.42519375610000       -5.68596698050000
H           -5.16401466080000        0.71373235390000       -4.74835017120000
H           -6.16153583690000        0.12328481170000       -5.76951097200000
O            1.71095005600000        5.99060664620000       -1.46577819560000
H            1.01654461270000        6.59435459450000       -1.14721818160000
H            1.50479060390000        5.79847637640000       -2.38631088770000
O            2.29951851680000       -4.81496562440000        0.58094813600000
H            2.07355244600000       -5.15757952800000        1.47781747200000
H            2.71617169640000       -5.55710970410000        0.09827323660000
O           -1.85133806230000        4.13241264040000        0.90165190930000
H           -0.95067657940000        4.50316371480000        0.83426885090000
H           -2.19712917180000        4.44256341840000        1.75961905980000
O            1.89440124380000       -3.52992639470000       -6.69221689410000
H            1.77555320210000       -2.58791675730000       -6.89252862360000