      -----------------------------------------------------------      
     |                   =====================                   |     
     |                           x T B                           |     
     |                   =====================                   |     
     |                         S. Grimme                         |     
     |          Mulliken Center for Theoretical Chemistry        |     
     |                    University of Bonn                     |     
      -----------------------------------------------------------      

   * xtb version 6.5.1 (579679a) compiled by 'ehlert@majestix' on 2022-07-11

   xtb is free software: you can redistribute it and/or modify it under
   the terms of the GNU Lesser General Public License as published by
   the Free Software Foundation, either version 3 of the License, or
   (at your option) any later version.
   
   xtb is distributed in the hope that it will be useful,
   but WITHOUT ANY WARRANTY; without even the implied warranty of
   MERCHANTABILITY or FITNESS FOR A PARTICULAR PURPOSE.  See the
   GNU Lesser General Public License for more details.
   
   Cite this work as:
   * C. Bannwarth, E. Caldeweyher, S. Ehlert, A. Hansen, P. Pracht,
     J. Seibert, S. Spicher, S. Grimme, WIREs Comput. Mol. Sci., 2020, 11,
     e01493. DOI: 10.1002/wcms.1493
   
   for GFN2-xTB:
   * C. Bannwarth, S. Ehlert and S. Grimme., J. Chem. Theory Comput., 2019,
     15, 1652-1671. DOI: 10.1021/acs.jctc.8b01176
   for GFN1-xTB:
   * S. Grimme, C. Bannwarth, P. Shushkov, J. Chem. Theory Comput., 2017,
     13, 1989-2009. DOI: 10.1021/acs.jctc.7b00118
   for GFN0-xTB:
   * P. Pracht, E. Caldeweyher, S. Ehlert, S. Grimme, ChemRxiv, 2019, preprint.
     DOI: 10.26434/chemrxiv.8326202.v1
   for GFN-FF:
   * S. Spicher and S. Grimme, Angew. Chem. Int. Ed., 2020, 59, 15665-15673.
     DOI: 10.1002/anie.202004239
   
   for ALPB and GBSA implicit solvation:
   * S. Ehlert, M. Stahn, S. Spicher, S. Grimme, J. Chem. Theory Comput.,
     2021, 17, 4250-4261. DOI: 10.1021/acs.jctc.1c00471
   
   for DFT-D4:
   * E. Caldeweyher, C. Bannwarth and S. Grimme, J. Chem. Phys., 2017,
     147, 034112. DOI: 10.1063/1.4993215
   * E. Caldeweyher, S. Ehlert, A. Hansen, H. Neugebauer, S. Spicher,
     C. Bannwarth and S. Grimme, J. Chem. Phys., 2019, 150, 154122.
     DOI: 10.1063/1.5090222
   * E. Caldeweyher, J.-M. Mewes, S. Ehlert and S. Grimme, Phys. Chem. Chem. Phys.
     2020, 22, 8499-8512. DOI: 10.1039/D0CP00502A
   
   for sTDA-xTB:
   * S. Grimme and C. Bannwarth, J. Chem. Phys., 2016, 145, 054103.
     DOI: 10.1063/1.4959605
   
   in the mass-spec context:
   * V. Asgeirsson, C. Bauer and S. Grimme, Chem. Sci., 2017, 8, 4879.
     DOI: 10.1039/c7sc00601b
   * J. Koopman and S. Grimme, ACS Omega 2019, 4, 12, 15120-15133.
     DOI: 10.1021/acsomega.9b02011
   
   for metadynamics refer to:
   * S. Grimme, J. Chem. Theory Comput., 2019, 155, 2847-2862
     DOI: 10.1021/acs.jctc.9b00143
   
   for SPH calculations refer to:
   * S. Spicher and S. Grimme, J. Chem. Theory Comput., 2021, 17, 1701-1714
     DOI: 10.1021/acs.jctc.0c01306
   
   with help from (in alphabetical order)
   P. Atkinson, C. Bannwarth, F. Bohle, G. Brandenburg, E. Caldeweyher
   M. Checinski, S. Dohm, S. Ehlert, S. Ehrlich, I. Gerasimov, C. Hölzer
   A. Katbashev, J. Koopman, C. Lavigne, S. Lehtola, F. März, M. Müller,
   F. Musil, H. Neugebauer, J. Pisarek, C. Plett, P. Pracht, F. Pultar,
   J. Seibert, P. Shushkov, S. Spicher, M. Stahn, M. Steiner, T. Strunk,
   J. Stückrath, T. Rose, and J. Unsleber
   
 * started run on 2022/11/24 at 12:04:43.998     

           -------------------------------------------------
          |                Calculation Setup                |
           -------------------------------------------------

          program call               : xtb solvent_cluster.coord --gfn2 --input xcontrol --opt 1
          hostname                   : cn0430
          coordinate file            : solvent_cluster.coord
          omp threads                :                     2

   ID    Z sym.   atoms
    1    8 o      1, 4, 7, 10, 13, 16, 19, 22, 25, 28, 31, 34, 37, 40, 43,
                  46, 49, 52, 55, 58, 61, 64, 67, 70, 73, 76, 79, 82, 85, 88,
                  91, 94, 97, 100, 103, 106, 109, 112, 115, 118, 121, 124,
                  127, 130, 133, 136, 139, 142, 145, 148, 151, 154, 157, 160,
                  163, 166, 169, 172, 175, 178, 181, 184, 187, 190, 193, 196,
                  199, 202, 205, 208, 211, 214, 217, 220, 223, 226, 229, 232,
                  235, 238, 241, 244, 247, 250, 253, 256, 259, 262, 265, 268,
                  271, 274, 277, 280, 283, 286, 289, 292, 295, 298, 301, 304,
                  307, 310, 313, 316, 319, 322, 325, 328, 331, 334, 337, 340,
                  343, 346, 349, 352, 355, 358, 361, 364, 367, 370, 373, 376,
                  379, 382, 385, 388, 391, 394, 397, 400, 403, 406, 409, 412,
                  415, 418, 421, 424, 427, 430, 433, 436, 439, 442, 445, 448,
                  451, 454, 457, 460, 463, 466, 469, 472, 475, 478, 481, 484,
                  487, 490, 493, 496, 499, 502, 505, 508, 511, 514, 517, 520,
                  523, 526, 529, 532, 535, 538, 541, 544, 547, 550, 553, 556,
                  559, 562, 565, 568, 571, 574, 577, 580, 583, 586, 589, 592,
                  595, 598, 601, 604, 607, 610, 613, 616, 619, 622, 625, 628,
                  631, 634, 637, 640, 643, 646, 649, 652, 655, 658, 661, 664,
                  667, 670, 673, 676, 679, 682, 685, 688, 691, 694, 697, 700,
                  703, 706, 709, 712, 715, 718, 721, 724, 727, 730, 733, 736,
                  739, 742, 745, 748, 751, 754
    2    1 h      2, 3, 5, 6, 8, 9, 11, 12, 14, 15, 17, 18, 20, 21, 23, 24,
                  26, 27, 29, 30, 32, 33, 35, 36, 38, 39, 41, 42, 44, 45, 47,
                  48, 50, 51, 53, 54, 56, 57, 59, 60, 62, 63, 65, 66, 68, 69,
                  71, 72, 74, 75, 77, 78, 80, 81, 83, 84, 86, 87, 89, 90, 92,
                  93, 95, 96, 98, 99, 101, 102, 104, 105, 107, 108, 110, 111,
                  113, 114, 116, 117, 119, 120, 122, 123, 125, 126, 128, 129,
                  131, 132, 134, 135, 137, 138, 140, 141, 143, 144, 146, 147,
                  149, 150, 152, 153, 155, 156, 158, 159, 161, 162, 164, 165,
                  167, 168, 170, 171, 173, 174, 176, 177, 179, 180, 182, 183,
                  185, 186, 188, 189, 191, 192, 194, 195, 197, 198, 200, 201,
                  203, 204, 206, 207, 209, 210, 212, 213, 215, 216, 218, 219,
                  221, 222, 224, 225, 227, 228, 230, 231, 233, 234, 236, 237,
                  239, 240, 242, 243, 245, 246, 248, 249, 251, 252, 254, 255,
                  257, 258, 260, 261, 263, 264, 266, 267, 269, 270, 272, 273,
                  275, 276, 278, 279, 281, 282, 284, 285, 287, 288, 290, 291,
                  293, 294, 296, 297, 299, 300, 302, 303, 305, 306, 308, 309,
                  311, 312, 314, 315, 317, 318, 320, 321, 323, 324, 326, 327,
                  329, 330, 332, 333, 335, 336, 338, 339, 341, 342, 344, 345,
                  347, 348, 350, 351, 353, 354, 356, 357, 359, 360, 362, 363,
                  365, 366, 368, 369, 371, 372, 374, 375, 377, 378, 380, 381,
                  383, 384, 386, 387, 389, 390, 392, 393, 395, 396, 398, 399,
                  401, 402, 404, 405, 407, 408, 410, 411, 413, 414, 416, 417,
                  419, 420, 422, 423, 425, 426, 428, 429, 431, 432, 434, 435,
                  437, 438, 440, 441, 443, 444, 446, 447, 449, 450, 452, 453,
                  455, 456, 458, 459, 461, 462, 464, 465, 467, 468, 470, 471,
                  473, 474, 476, 477, 479, 480, 482, 483, 485, 486, 488, 489,
                  491, 492, 494, 495, 497, 498, 500, 501, 503, 504, 506, 507,
                  509, 510, 512, 513, 515, 516, 518, 519, 521, 522, 524, 525,
                  527, 528, 530, 531, 533, 534, 536, 537, 539, 540, 542, 543,
                  545, 546, 548, 549, 551, 552, 554, 555, 557, 558, 560, 561,
                  563, 564, 566, 567, 569, 570, 572, 573, 575, 576, 578, 579,
                  581, 582, 584, 585, 587, 588, 590, 591, 593, 594, 596, 597,
                  599, 600, 602, 603, 605, 606, 608, 609, 611, 612, 614, 615,
                  617, 618, 620, 621, 623, 624, 626, 627, 629, 630, 632, 633,
                  635, 636, 638, 639, 641, 642, 644, 645, 647, 648, 650, 651,
                  653, 654, 656, 657, 659, 660, 662, 663, 665, 666, 668, 669,
                  671, 672, 674, 675, 677, 678, 680, 681, 683, 684, 686, 687,
                  689, 690, 692, 693, 695, 696, 698, 699, 701, 702, 704, 705,
                  707, 708, 710, 711, 713, 714, 716, 717, 719, 720, 722, 723,
                  725, 726, 728, 729, 731, 732, 734, 735, 737, 738, 740, 741,
                  743, 744, 746, 747, 749, 750, 752, 753, 755, 756

molecular fragmentation (1/2 indicates fragments):
111222222222222222222222222222222222222222222222222222222222222222222222
222222222222222222222222222222222222222222222222222222222222222222222222
222222222222222222222222222222222222222222222222222222222222222222222222
222222222222222222222222222222222222222222222222222222222222222222222222
222222222222222222222222222222222222222222222222222222222222222222222222
222222222222222222222222222222222222222222222222222222222222222222222222
222222222222222222222222222222222222222222222222222222222222222222222222
222222222222222222222222222222222222222222222222222222222222222222222222
222222222222222222222222222222222222222222222222222222222222222222222222
222222222222222222222222222222222222222222222222222222222222222222222222
222222222222222222222222222222222222
# atoms in fragment 1/2:     3   753
 fragment masses (1/2) :       18.02     4521.84
CMA distance (Bohr)    :  18.065
constraining FC (au)   :  0.0500

           -------------------------------------------------
          |                 G F N 2 - x T B                 |
           -------------------------------------------------

        Reference                      10.1021/acs.jctc.8b01176
      * Hamiltonian:
        H0-scaling (s, p, d)           1.850000    2.230000    2.230000
        zeta-weighting                 0.500000
      * Dispersion:
        s8                             2.700000
        a1                             0.520000
        a2                             5.000000
        s9                             5.000000
      * Repulsion:
        kExp                           1.500000    1.000000
        rExp                           1.000000
      * Coulomb:
        alpha                          2.000000
        third order                    shell-resolved
        anisotropic                    true
        a3                             3.000000
        a5                             4.000000
        cn-shift                       1.200000
        cn-exp                         4.000000
        max-rad                        5.000000


          ...................................................
          :                      SETUP                      :
          :.................................................:
          :  # basis functions                1512          :
          :  # atomic orbitals                1512          :
          :  # shells                         1008          :
          :  # electrons                      2016          :
          :  max. iterations                   250          :
          :  Hamiltonian                  GFN2-xTB          :
          :  restarted?                      false          :
          :  GBSA solvation                  false          :
          :  PC potential                    false          :
          :  electronic temp.          300.0000000     K    :
          :  accuracy                    1.0000000          :
          :  -> integral cutoff          0.2500000E+02      :
          :  -> integral neglect         0.1000000E-07      :
          :  -> SCF convergence          0.1000000E-05 Eh   :
          :  -> wf. convergence          0.1000000E-03 e    :
          :  Broyden damping             0.4000000          :
          ...................................................

 iter      E             dE          RMSdq      gap      omega  full diag
   1  -1291.0008121 -0.129100E+04  0.407E+00    8.41       0.0  T
   2  -1291.0784742 -0.776620E-01  0.242E+00    7.30       1.0  T
   3  -1291.1102384 -0.317642E-01  0.211E-01    5.69       1.0  T
   4  -1291.1156309 -0.539251E-02  0.461E-02    6.14       1.0  T
   5  -1291.1157140 -0.831206E-04  0.309E-02    6.07       1.0  T
   6  -1291.1157541 -0.401169E-04  0.438E-03    6.11       1.0  T
   7  -1291.1157567 -0.257813E-05  0.728E-04    6.11       5.0  T
   8  -1291.1157568 -0.269440E-07  0.374E-04    6.11       9.7  T
   9  -1291.1157568 -0.131881E-07  0.688E-05    6.11      52.9  T

   *** convergence criteria satisfied after 9 iterations ***

         #    Occupation            Energy/Eh            Energy/eV
      -------------------------------------------------------------
         1        2.0000           -0.6932865             -18.8653
       ...           ...                  ...                  ...
      1002        2.0000           -0.3523118              -9.5869
      1003        2.0000           -0.3489010              -9.4941
      1004        2.0000           -0.3478052              -9.4643
      1005        2.0000           -0.3471645              -9.4468
      1006        2.0000           -0.3419989              -9.3063
      1007        2.0000           -0.3205364              -8.7222
      1008        2.0000           -0.3104581              -8.4480 (HOMO)
      1009                         -0.0859956              -2.3401 (LUMO)
      1010                         -0.0778405              -2.1181
      1011                         -0.0656099              -1.7853
      1012                         -0.0630017              -1.7144
      1013                         -0.0554807              -1.5097
       ...                                ...                  ...
      1512                          0.4812500              13.0955
      -------------------------------------------------------------
                  HL-Gap            0.2244625 Eh            6.1079 eV
             Fermi-level           -0.1982269 Eh           -5.3940 eV

 SCC (total)                   0 d,  0 h,  0 min, 19.870 sec
 SCC setup                      ...        0 min,  0.042 sec (  0.211%)
 Dispersion                     ...        0 min,  0.110 sec (  0.552%)
 classical contributions        ...        0 min,  0.023 sec (  0.117%)
 integral evaluation            ...        0 min,  0.591 sec (  2.976%)
 iterations                     ...        0 min,  6.502 sec ( 32.721%)
 molecular gradient             ...        0 min, 12.540 sec ( 63.108%)
 printout                       ...        0 min,  0.063 sec (  0.316%)

         :::::::::::::::::::::::::::::::::::::::::::::::::::::
         ::                     SUMMARY                     ::
         :::::::::::::::::::::::::::::::::::::::::::::::::::::
         :: total energy           -1283.314189982327 Eh    ::
         :: gradient norm              0.105008992282 Eh/a0 ::
         :: HOMO-LUMO gap              6.107934222242 eV    ::
         ::.................................................::
         :: SCC energy             -1291.115756767470 Eh    ::
         :: -> isotropic ES            7.155725085884 Eh    ::
         :: -> anisotropic ES         -1.615322932089 Eh    ::
         :: -> anisotropic XC         -0.127230481811 Eh    ::
         :: -> dispersion             -0.799020951219 Eh    ::
         :: repulsion energy           7.642296963454 Eh    ::
         :: add. restraining           0.000000000000 Eh    ::
         :: total charge              -0.000000000000 e     ::
         :::::::::::::::::::::::::::::::::::::::::::::::::::::

      ----------------------------------------------------------- 
     |                       L-ANC optimizer                     |
      ----------------------------------------------------------- 
          low memory version by Sebastian Ehlert

          ...................................................
          :                      SETUP                      :
          :.................................................:
          :   energy convergence        0.1000000E-05 Eh    :
          :   grad. convergence         0.8000000E-03 Eh/a0 :
          :   optimization log               true           :
          :   writing optlog all                1     steps :
          :   Hessian reset                    20     steps :
          :   maximium step len.        1.0000000     a0    :
          :   LBFGS images                     20           :
          ...................................................
 * calculating model hessian...
Using Lindh-Hessian (1995)
 Shifting diagonal of input Hessian by   1.000003629150669E-002
 Lowest  eigenvalues of input Hessian
    0.010000   -0.000000   -0.000000   -0.000000   -0.000000   -0.000000
   -0.000000   -0.000000   -0.000000   -0.000000   -0.000000   -0.000000
   -0.000000   -0.000000   -0.000000   -0.000000   -0.000000   -0.000000
 Highest eigenvalues
    0.312885    0.317636    1.222030    1.228681    1.426365    1.446454
 

........................................................................
.............................. CYCLE    1 ..............................
........................................................................
   1  -1291.1158231 -0.129112E+04  0.204E-02    6.14       0.0  T
   2  -1291.1158352 -0.120561E-04  0.123E-02    6.13       1.0  T
   3  -1291.1158377 -0.251023E-05  0.199E-03    6.12       1.8  T
   4  -1291.1158380 -0.374916E-06  0.350E-04    6.12      10.4  T
   5  -1291.1158380 -0.177010E-08  0.495E-05    6.12      73.5  T
     SCC iter.                  ...        0 min,  3.243 sec
     gradient                   ...        0 min, 12.608 sec
 * total energy  : -1283.3165877 Eh     change       -0.2397675E-02 Eh
   gradient norm :     0.0112160 Eh/a0  converged?    E=F G=F D=F
   step length   :     0.3897767 a0

........................................................................
.............................. CYCLE    2 ..............................
........................................................................
   1  -1291.1091118 -0.129111E+04  0.282E-02    6.06       0.0  T
   2  -1291.1091204 -0.863000E-05  0.170E-02    6.05       1.0  T
   3  -1291.1091231 -0.272040E-05  0.156E-03    6.04       2.3  T
   4  -1291.1091234 -0.250584E-06  0.446E-04    6.04       8.1  T
   5  -1291.1091234 -0.300543E-08  0.522E-05    6.04      69.6  T
     SCC iter.                  ...        0 min,  3.329 sec
     gradient                   ...        0 min, 12.613 sec
 * total energy  : -1283.3169841 Eh     change       -0.3964827E-03 Eh
   gradient norm :     0.0426414 Eh/a0  converged?    E=F G=F D=F
   step length   :     0.5199819 a0

........................................................................
.............................. CYCLE    3 ..............................
........................................................................
   1  -1291.1139412 -0.129111E+04  0.258E-02    6.08       0.0  T
   2  -1291.1139517 -0.105335E-04  0.159E-02    6.09       1.0  T
   3  -1291.1139574 -0.568321E-05  0.187E-03    6.10       1.9  T
   4  -1291.1139576 -0.183416E-06  0.589E-04    6.11       6.2  T
   5  -1291.1139576 -0.104087E-07  0.578E-05    6.11      63.0  T
     SCC iter.                  ...        0 min,  3.127 sec
     gradient                   ...        0 min, 12.632 sec
 * total energy  : -1283.3178001 Eh     change       -0.8159665E-03 Eh
   gradient norm :     0.0258991 Eh/a0  converged?    E=F G=F D=F
   step length   :     0.3271005 a0

........................................................................
.............................. CYCLE    4 ..............................
........................................................................
   1  -1291.1202389 -0.129112E+04  0.162E-02    6.13       0.0  T
   2  -1291.1202438 -0.488360E-05  0.972E-03    6.14       1.0  T
   3  -1291.1202455 -0.166700E-05  0.129E-03    6.14       2.8  T
   4  -1291.1202456 -0.152620E-06  0.380E-04    6.14       9.6  T
   5  -1291.1202456 -0.385216E-08  0.417E-05    6.14      87.1  T
     SCC iter.                  ...        0 min,  3.200 sec
     gradient                   ...        0 min, 12.586 sec
 * total energy  : -1283.3183286 Eh     change       -0.5285010E-03 Eh
   gradient norm :     0.0092593 Eh/a0  converged?    E=F G=F D=F
   step length   :     0.2332282 a0

........................................................................
.............................. CYCLE    5 ..............................
........................................................................
   1  -1291.1169101 -0.129112E+04  0.115E-02    6.13       0.0  T
   2  -1291.1169111 -0.100616E-05  0.695E-03    6.13       1.0  T
   3  -1291.1169114 -0.326458E-06  0.539E-04    6.13       6.7  T
   4  -1291.1169114 -0.306159E-07  0.165E-04    6.13      22.0  T
     SCC iter.                  ...        0 min,  2.604 sec
     gradient                   ...        0 min, 12.608 sec
 * total energy  : -1283.3188138 Eh     change       -0.4851918E-03 Eh
   gradient norm :     0.0151176 Eh/a0  converged?    E=F G=F D=F
   step length   :     0.2146083 a0

........................................................................
.............................. CYCLE    6 ..............................
........................................................................
   1  -1291.1124279 -0.129111E+04  0.192E-02    6.09       0.0  T
   2  -1291.1124299 -0.202110E-05  0.116E-02    6.09       1.0  T
   3  -1291.1124306 -0.675198E-06  0.722E-04    6.09       5.0  T
   4  -1291.1124306 -0.582111E-07  0.217E-04    6.09      16.8  T
     SCC iter.                  ...        0 min,  2.482 sec
     gradient                   ...        0 min, 12.699 sec
 * total energy  : -1283.3188715 Eh     change       -0.5768943E-04 Eh
   gradient norm :     0.0290675 Eh/a0  converged?    E=F G=F D=F
   step length   :     0.3946753 a0

........................................................................
.............................. CYCLE    7 ..............................
........................................................................
   1  -1291.1142335 -0.129111E+04  0.118E-02    6.13       0.0  T
   2  -1291.1142369 -0.341887E-05  0.727E-03    6.14       1.0  T
   3  -1291.1142385 -0.160867E-05  0.102E-03    6.16       3.6  T
   4  -1291.1142386 -0.787236E-07  0.347E-04    6.15      10.5  T
   5  -1291.1142386 -0.364730E-08  0.340E-05    6.15     107.1  T
     SCC iter.                  ...        0 min,  3.071 sec
     gradient                   ...        0 min, 12.648 sec
 * total energy  : -1283.3193140 Eh     change       -0.4424709E-03 Eh
   gradient norm :     0.0206715 Eh/a0  converged?    E=F G=F D=F
   step length   :     0.1731939 a0

........................................................................
.............................. CYCLE    8 ..............................
........................................................................
   1  -1291.1212170 -0.129112E+04  0.122E-02    6.17       0.0  T
   2  -1291.1212182 -0.122329E-05  0.736E-03    6.17       1.0  T
   3  -1291.1212189 -0.728404E-06  0.657E-04    6.17       5.5  T
   4  -1291.1212189 -0.182292E-07  0.183E-04    6.17      19.9  T
     SCC iter.                  ...        0 min,  2.491 sec
     gradient                   ...        0 min, 12.716 sec
 * total energy  : -1283.3193466 Eh     change       -0.3265550E-04 Eh
   gradient norm :     0.0083454 Eh/a0  converged?    E=F G=F D=F
   step length   :     0.1719001 a0

........................................................................
.............................. CYCLE    9 ..............................
........................................................................
   1  -1291.1179473 -0.129112E+04  0.983E-03    6.15       0.0  T
   2  -1291.1179479 -0.518686E-06  0.594E-03    6.15       1.0  T
   3  -1291.1179481 -0.234644E-06  0.392E-04    6.15       9.3  T
   4  -1291.1179481 -0.125226E-07  0.136E-04    6.15      26.7  T
     SCC iter.                  ...        0 min,  2.485 sec
     gradient                   ...        0 min, 12.708 sec
 * total energy  : -1283.3196059 Eh     change       -0.2592917E-03 Eh
   gradient norm :     0.0057306 Eh/a0  converged?    E=F G=F D=F
   step length   :     0.1834730 a0

........................................................................
.............................. CYCLE   10 ..............................
........................................................................
   1  -1291.1168273 -0.129112E+04  0.678E-03    6.14       0.0  T
   2  -1291.1168276 -0.290506E-06  0.410E-03    6.14       1.0  T
   3  -1291.1168276 -0.899763E-07  0.278E-04    6.14      13.1  T
   4  -1291.1168277 -0.104162E-07  0.890E-05    6.14      40.9  T
     SCC iter.                  ...        0 min,  2.467 sec
     gradient                   ...        0 min, 12.707 sec
 * total energy  : -1283.3196699 Eh     change       -0.6395897E-04 Eh
   gradient norm :     0.0082754 Eh/a0  converged?    E=F G=F D=F
   step length   :     0.1281304 a0

........................................................................
.............................. CYCLE   11 ..............................
........................................................................
   1  -1291.1173411 -0.129112E+04  0.382E-03    6.13       0.0  T
   2  -1291.1173412 -0.120085E-06  0.231E-03    6.13       1.6  T
   3  -1291.1173413 -0.376799E-07  0.185E-04    6.13      19.7  T
   4  -1291.1173413 -0.389082E-08  0.539E-05    6.13      67.5  T
     SCC iter.                  ...        0 min,  2.459 sec
     gradient                   ...        0 min, 12.687 sec
 * total energy  : -1283.3197396 Eh     change       -0.6975995E-04 Eh
   gradient norm :     0.0070351 Eh/a0  converged?    E=F G=F D=F
   step length   :     0.0626887 a0

........................................................................
.............................. CYCLE   12 ..............................
........................................................................
   1  -1291.1195899 -0.129112E+04  0.106E-02    6.12       0.0  T
   2  -1291.1195908 -0.839050E-06  0.636E-03    6.11       1.0  T
   3  -1291.1195909 -0.182202E-06  0.477E-04    6.11       7.6  T
   4  -1291.1195910 -0.321261E-07  0.113E-04    6.11      32.2  T
     SCC iter.                  ...        0 min,  2.409 sec
     gradient                   ...        0 min, 12.700 sec
 * total energy  : -1283.3199152 Eh     change       -0.1755393E-03 Eh
   gradient norm :     0.0031504 Eh/a0  converged?    E=F G=F D=F
   step length   :     0.2010003 a0

........................................................................
.............................. CYCLE   13 ..............................
........................................................................
   1  -1291.1188728 -0.129112E+04  0.100E-02    6.09       0.0  T
   2  -1291.1188736 -0.787342E-06  0.608E-03    6.08       1.0  T
   3  -1291.1188739 -0.293018E-06  0.456E-04    6.07       8.0  T
   4  -1291.1188739 -0.232187E-07  0.150E-04    6.07      24.3  T
     SCC iter.                  ...        0 min,  2.388 sec
     gradient                   ...        0 min, 12.687 sec
 * total energy  : -1283.3199911 Eh     change       -0.7593170E-04 Eh
   gradient norm :     0.0079441 Eh/a0  converged?    E=F G=F D=F
   step length   :     0.2177151 a0

........................................................................
.............................. CYCLE   14 ..............................
........................................................................
   1  -1291.1200538 -0.129112E+04  0.306E-03    6.08       0.0  T
   2  -1291.1200542 -0.350237E-06  0.180E-03    6.08       2.0  T
   3  -1291.1200542 -0.723312E-07  0.316E-04    6.07      11.5  T
   4  -1291.1200543 -0.889418E-08  0.656E-05    6.08      55.4  T
     SCC iter.                  ...        0 min,  2.384 sec
     gradient                   ...        0 min, 12.730 sec
 * total energy  : -1283.3200654 Eh     change       -0.7431672E-04 Eh
   gradient norm :     0.0051159 Eh/a0  converged?    E=F G=F D=F
   step length   :     0.1550573 a0

........................................................................
.............................. CYCLE   15 ..............................
........................................................................
   1  -1291.1193091 -0.129112E+04  0.423E-03    6.07       0.0  T
   2  -1291.1193093 -0.192713E-06  0.256E-03    6.07       1.4  T
   3  -1291.1193094 -0.482012E-07  0.217E-04    6.06      16.8  T
   4  -1291.1193094 -0.699652E-08  0.583E-05    6.06      62.4  T
     SCC iter.                  ...        0 min,  2.387 sec
     gradient                   ...        0 min, 12.707 sec
 * total energy  : -1283.3200905 Eh     change       -0.2508512E-04 Eh
   gradient norm :     0.0041451 Eh/a0  converged?    E=F G=F D=F
   step length   :     0.1130408 a0

........................................................................
.............................. CYCLE   16 ..............................
........................................................................
   1  -1291.1192443 -0.129112E+04  0.206E-03    6.07       0.0  T
   2  -1291.1192443 -0.535838E-07  0.123E-03    6.07       3.0  T
   3  -1291.1192443 -0.163013E-07  0.128E-04    6.07      28.5  T
   4  -1291.1192443 -0.182126E-08  0.387E-05    6.07      94.0  T
     SCC iter.                  ...        0 min,  2.391 sec
     gradient                   ...        0 min, 12.663 sec
 * total energy  : -1283.3201152 Eh     change       -0.2467866E-04 Eh
   gradient norm :     0.0019673 Eh/a0  converged?    E=F G=F D=F
   step length   :     0.0322442 a0

........................................................................
.............................. CYCLE   17 ..............................
........................................................................
   1  -1291.1194400 -0.129112E+04  0.526E-03    6.07       0.0  T
   2  -1291.1194402 -0.218664E-06  0.320E-03    6.07       1.1  T
   3  -1291.1194403 -0.105887E-06  0.255E-04    6.07      14.3  T
   4  -1291.1194403 -0.559362E-08  0.937E-05    6.07      38.8  T
     SCC iter.                  ...        0 min,  2.394 sec
     gradient                   ...        0 min, 12.661 sec
 * total energy  : -1283.3201315 Eh     change       -0.1634490E-04 Eh
   gradient norm :     0.0048165 Eh/a0  converged?    E=F G=F D=F
   step length   :     0.0867086 a0

........................................................................
.............................. CYCLE   18 ..............................
........................................................................
   1  -1291.1188639 -0.129112E+04  0.177E-03    6.06       0.0  T
   2  -1291.1188639 -0.433881E-07  0.106E-03    6.06       3.4  T
   3  -1291.1188639 -0.939872E-08  0.113E-04    6.06      32.3  T
   4  -1291.1188639 -0.148816E-08  0.285E-05    6.06     127.5  T
     SCC iter.                  ...        0 min,  2.387 sec
     gradient                   ...        0 min, 12.645 sec
 * total energy  : -1283.3201491 Eh     change       -0.1756955E-04 Eh
   gradient norm :     0.0027596 Eh/a0  converged?    E=F G=F D=F
   step length   :     0.0253060 a0

........................................................................
.............................. CYCLE   19 ..............................
........................................................................
   1  -1291.1189645 -0.129112E+04  0.233E-03    6.05       0.0  T
   2  -1291.1189646 -0.104855E-06  0.138E-03    6.05       2.6  T
   3  -1291.1189647 -0.137136E-07  0.176E-04    6.04      20.7  T
   4  -1291.1189647 -0.374484E-08  0.241E-05    6.05     150.7  T
     SCC iter.                  ...        0 min,  2.395 sec
     gradient                   ...        0 min, 12.599 sec
 * total energy  : -1283.3201634 Eh     change       -0.1435743E-04 Eh
   gradient norm :     0.0015017 Eh/a0  converged?    E=F G=F D=F
   step length   :     0.0401004 a0

........................................................................
.............................. CYCLE   20 ..............................
........................................................................
   1  -1291.1192815 -0.129112E+04  0.248E-03    6.04       0.0  T
   2  -1291.1192816 -0.743853E-07  0.149E-03    6.04       2.4  T
   3  -1291.1192816 -0.217685E-07  0.150E-04    6.04      24.3  T
   4  -1291.1192816 -0.274576E-08  0.424E-05    6.04      85.9  T
     SCC iter.                  ...        0 min,  2.386 sec
     gradient                   ...        0 min, 12.505 sec
 * total energy  : -1283.3201723 Eh     change       -0.8878957E-05 Eh
   gradient norm :     0.0010304 Eh/a0  converged?    E=F G=F D=F
   step length   :     0.0437076 a0
 * RMSD in coord.:     0.0648424 a0     energy gain  -0.5982346E-02 Eh
 * calculating model hessian...
Using Lindh-Hessian (1995)
 Shifting diagonal of input Hessian by   1.000004568983769E-002
 Lowest  eigenvalues of input Hessian
    0.010000   -0.000000   -0.000000   -0.000000   -0.000000   -0.000000
   -0.000000   -0.000000   -0.000000   -0.000000   -0.000000   -0.000000
   -0.000000   -0.000000   -0.000000   -0.000000   -0.000000   -0.000000
 Highest eigenvalues
    0.294633    0.311473    1.237315    1.247452    1.372844    1.416292
 

........................................................................
.............................. CYCLE   21 ..............................
........................................................................
   1  -1291.1192623 -0.129112E+04  0.472E-03    6.04       0.0  T
   2  -1291.1192625 -0.204328E-06  0.291E-03    6.05       1.3  T
   3  -1291.1192626 -0.114102E-06  0.221E-04    6.05      16.5  T
   4  -1291.1192626 -0.256932E-08  0.664E-05    6.05      54.8  T
     SCC iter.                  ...        0 min,  2.393 sec
     gradient                   ...        0 min, 12.610 sec
 * total energy  : -1283.3201938 Eh     change       -0.2151042E-04 Eh
   gradient norm :     0.0011066 Eh/a0  converged?    E=F G=F D=F
   step length   :     0.0684822 a0

........................................................................
.............................. CYCLE   22 ..............................
........................................................................
   1  -1291.1194029 -0.129112E+04  0.286E-03    6.05       0.0  T
   2  -1291.1194030 -0.852112E-07  0.177E-03    6.05       2.1  T
   3  -1291.1194030 -0.382463E-07  0.135E-04    6.06      26.9  T
   4  -1291.1194030 -0.165596E-08  0.385E-05    6.06      94.6  T
     SCC iter.                  ...        0 min,  2.409 sec
     gradient                   ...        0 min, 12.601 sec
 * total energy  : -1283.3202025 Eh     change       -0.8709207E-05 Eh
   gradient norm :     0.0003472 Eh/a0  converged?    E=F G=T D=F
   step length   :     0.0365983 a0

........................................................................
.............................. CYCLE   23 ..............................
........................................................................
   1  -1291.1194028 -0.129112E+04  0.151E-03    6.06       0.0  T
   2  -1291.1194029 -0.454793E-07  0.920E-04    6.06       4.0  T
   3  -1291.1194029 -0.130615E-07  0.113E-04    6.06      32.2  T
     SCC iter.                  ...        0 min,  1.795 sec
     gradient                   ...        0 min, 12.556 sec
 * total energy  : -1283.3202030 Eh     change       -0.4513538E-06 Eh
   gradient norm :     0.0006027 Eh/a0  converged?    E=T G=T D=F
   step length   :     0.0231843 a0

   *** GEOMETRY OPTIMIZATION CONVERGED AFTER 23 CYCLES ***

------------------------------------------------------------------------
 total energy gain   :        -0.0060130 Eh       -3.7732 kcal/mol
 total RMSD          :         0.0646084 a0        0.0342 Å
 total power (kW/mol):        -0.6863989 (step)   -0.0406 (real)
------------------------------------------------------------------------

 L-ANCopt (total)              0 d,  0 h,  6 min, 29.222 sec
 setup                          ...        0 min,  0.029 sec (  0.008%)
 model hessian                  ...        0 min, 15.243 sec (  3.916%)
 ANC generation                 ...        0 min,  4.791 sec (  1.231%)
 coordinate transformation      ...        0 min,  0.002 sec (  0.000%)
 Rational function              ...        0 min,  0.000 sec (  0.000%)
 singlepoint calculation        ...        6 min,  8.994 sec ( 94.803%)
 optimization log               ...        0 min,  0.157 sec (  0.040%)
 hessian update                 ...        0 min,  0.000 sec (  0.000%)

================
 final structure:
================
$coord
        9.81832014758200      -14.74636409130700       -3.26448534787800      o
        8.17978630034100      -15.06233491949400       -2.48610609042400      h
       11.02293094453800      -14.71422136903600       -1.88913366005200      h
       -1.56663105723800        7.57800859375600        7.61622633217500      o
       -1.96451470892800        8.96128378381200        8.75833198161200      h
       -0.63365092464500        8.37554752938600        6.22497335391900      h
       -1.27959282528500       -4.68676032715400       -4.40584851416300      o
       -2.48171868931000       -6.05100255857600       -4.32068211018700      h
       -2.21206297942600       -3.24141111619200       -5.09149485335000      h
       -9.88936893962500        3.53586340955000       -1.78673241816900      o
       -8.28439799624000        3.39284423748700       -2.67478624478300      h
       -9.81826523063400        5.01351564086500       -0.74227322598900      h
       -6.10577748333300        4.16922055078500        1.80368978194600      o
       -5.78507995449400        5.54125860812700        0.62224513067700      h
       -5.92235500198900        4.88621928311900        3.49098612986500      h
       -7.58237428361900       -7.33590147203200        5.58577939006700      o
       -8.46690197553100       -5.73460214843700        5.38094070142000      h
       -6.54182698761500       -7.12820519441800        7.07432158158100      h
       -0.77759964742200       -9.49718797969500       -6.81605027642300      o
       -1.87161605035700      -10.58614387851800       -5.82897382533000      h
        0.66798717427900       -9.21380039875500       -5.71938852701300      h
        0.63611730783700      -11.18632675825900        0.45328710081000      o
       -0.20543357475300       -9.82373312583400        1.38035953321200      h
        1.33263305210800      -12.39268312398800        1.64450542224700      h
       -1.71068403600700       -7.04237977554100        1.89884788775700      o
       -1.98021604499800       -7.09991664362100        3.73453963516900      h
       -3.34584449717300       -7.43679321953500        1.13836096755200      h
        3.85241348636200        2.89285332839100       -9.09914522271800      o
        2.79375192633900        3.65287904888400      -10.36777351109200      h
        5.20392347906300        4.10532657865900       -8.64335224967900      h
       -4.33669797375600       -1.04438505917700       -6.31005646028700      o
       -4.00355986385400       -0.93344395600100       -8.11527491752000      h
       -5.96222695170200       -1.92145186756500       -6.18591399033300      h
       -2.46566082998400        8.59789067466700       -5.66646207284100      o
       -3.34178134657600        9.76955460897900       -6.77445633434800      h
       -2.29310662499000        7.02005286999700       -6.58938773767400      h
       -6.49749858676800       -7.95285681210100        0.71071416069500      o
       -7.50507480461300       -6.76471892102800       -0.26049058778500      h
       -6.93320190459400       -7.68295125663600        2.48756519261600      h
       -5.47414665966600        3.46716948438000       -4.26037320386700      o
       -5.25376983716200        1.82185634507400       -5.06768699584700      h
       -3.79075185562600        3.95530879936100       -3.68830860551300      h
       -0.57679759481700        4.27977225363000       -2.89471653657200      o
        0.19297858585200        2.72367360267900       -3.53131146432900      h
        0.43307727225500        5.62417790855200       -3.65125168228100      h
        1.17855499837600        0.36919390470400       -5.46707321323700      o
        2.39866792518600        1.24185501962000       -6.51719369328200      h
        2.01618322658100       -1.14913311165300       -4.82348461723400      h
       -4.99841242138800       -0.74128720799500        5.86070533227400      o
       -4.45982442915300        0.71912129859900        4.90456640861700      h
       -6.58594422746000       -1.39226019840700        5.18180653511100      h
       -9.46624424224100        0.02306389564100       13.74303615805400      o
      -10.86060655762100        1.18112853999100       13.51020313571300      h
      -10.19769893230100       -1.65276272170100       13.75543341904000      h
       -2.37037169870100       -7.94296955390700        6.76190957600900      o
       -2.58336394330300       -6.54448357966100        7.95155991831500      h
       -0.65113061887800       -8.55285170814000        6.95622311246000      h
       -6.52226566840800        1.86959623283900        9.92832104633500      o
       -5.96150983793200        0.55708936869300        8.74693706812000      h
       -7.63540972490000        1.06462134389500       11.15187245461000      h
       -0.25262808080600       -3.03393946595500        4.99594708812700      o
        0.58707868947400       -3.86164710403500        6.41462366277800      h
       -1.90186325296700       -2.50180297448900        5.59819687471100      h
        7.32097742011800        0.82778659120800        3.05677950976200      o
        8.28153885769800        1.31864483103500        4.54326859907000      h
        7.47507226198600        2.28720489746700        1.90030868465500      h
        3.30277461469100       -6.06081023870900        1.04855278229500      o
        3.99420377020700       -5.03766555558300        2.44625664848100      h
        1.56531234127500       -6.42284135357600        1.47199981911500      h
        0.16439993528800       10.48761190853100       -1.61811152504900      o
       -0.39788662611800       12.10257083987300       -0.96020624412300      h
       -0.67972002292800       10.15087284117200       -3.21252587157700      h
       -4.81417116374200        0.77374473895600       16.12005005657300      o
       -4.02053612753500        2.08277653597600       15.09104336437300      h
       -6.51672982414200        0.55569522620800       15.48143058773900      h
      -11.42432036044000        0.35078148974100        8.10121083132000      o
      -11.05652772192100        1.19882423915900        6.49150410148000      h
      -11.67382217652400        1.68269398537600        9.35222352638500      h
      -12.21735726266800       -0.65370145024800       -0.49262794474600      o
      -11.19829523721400        0.88167258925700       -0.57677183520700      h
      -13.06471765774700       -0.71249577447800        1.13642697533900      h
        7.61162307446800        4.99486297502700        0.34330826385100      o
        5.96273861333300        5.64795297628600        0.84525906101900      h
        8.84395944092500        5.90066267964700        1.35259459089400      h
       -5.76208057957700       -7.53835391963000       -4.77722498676500      o
       -4.98118685920100       -8.96738138048500       -3.90775046418300      h
       -7.50486196969200       -8.02562254205700       -5.02547181978300      h
        3.64010117706100       -3.74689551304600       -3.64882230237900      o
        4.84340893257600       -4.41583274496700       -4.87354033523700      h
        4.65818496320100       -3.43012544284300       -2.14433305543000      h
       -9.46118164847100      -13.74882894004200       -5.77881973518700      o
       -9.94133415370100      -12.07885840597200       -5.16634462221600      h
       -8.47718734928300      -13.41688503376000       -7.28164094352800      h
       -9.85338300950400       -4.89316280030600       -1.68479188712700      o
       -9.09943459097200       -4.29758027981000       -3.26674277764700      h
      -10.84444344736200       -3.43179537079900       -1.09680660257400      h
        2.20665870014900        4.87459399219100        9.63367144744700      o
        1.75569534507200        3.18651533873500        9.10031699623700      h
        0.84078948857300        5.96619873858500        9.01292612195800      h
        5.43205404952600       -3.79407731484900        4.81138902265000      o
        6.84335086885600       -4.94370551013500        5.09860981063300      h
        6.18600998916700       -2.22456030688100        4.28155998691300      h
        2.79742244252900        0.97056975142900        5.32247555403300      o
        4.21675309838500        1.02365331061300        4.14683667737300      h
        1.95844322392100       -0.66998344505600        5.14136076236500      h
        3.15481046105400        5.39118529224000        2.55802519065200      o
        1.67569805531700        6.46220421452000        2.47760054126300      h
        4.05402826720100        5.84388644893800        4.12214192990800      h
       -7.04285597684200        7.23760981887200       -7.34611322073800      o
       -5.97589455336800        7.11441529290200       -8.83063534400600      h
       -6.58166972991200        5.80490766742300       -6.27727263847300      h
      -10.55264537312100        8.25441216824000       -3.55624870142800      o
      -10.68474569428800        6.94112986676700       -4.84415834440800      h
      -10.18272201908300        9.87182641710600       -4.35981031384500      h
        4.92927730908200       -5.74721970932800       15.06638171923700      o
        6.69603375870700       -5.36950861361700       15.23762212061000      h
        4.10678054533200       -4.16080024564900       14.63997248766900      h
       -3.23291441907400       -3.77233937584500        9.66877222218500      o
       -2.91979949554100       -3.84300295008900       11.48523158326900      h
       -5.06606490932700       -3.66878230330600        9.47162442543400      h
        1.98636943696300       -4.61220250998700        9.25952592558500      o
        1.95225858155700       -6.27411648452200       10.08863978622200      h
        1.61582766973000       -3.38484855963000       10.55263167185200      h
       -1.71014498922300        2.99376488456800        4.58807205661100      o
        0.07808819165800        2.54414765366100        4.65940657616300      h
       -1.78338291105000        4.57021508823000        3.67509498896500      h
       -1.57739241043700       -5.69354232511800      -14.80467697383700      o
       -0.59777818419500       -4.27281470314900      -14.12410164790500      h
       -0.64884211766800       -6.31038985991200      -16.22710845983800      h
        7.02044427324800       -5.22438527555000        9.99789545359500      o
        5.28052272427600       -4.81866758484700        9.52633975825000      h
        8.07480676021500       -4.39153947998400        8.73418888181200      h
      -15.46668104275700        3.06616062753700        5.94628480898800      o
      -14.15563251451900        4.27215728846700        6.41492710495500      h
      -16.59736383097800        2.83795099982200        7.37588081449300      h
      -16.88172592752800        8.35980822853200        4.95587490702100      o
      -16.05873794898100       10.01865294684100        5.08296286503300      h
      -17.90673394979200        8.47172268645900        3.43652903131200      h
      -17.89714458270600       -7.15816801576100        2.63055973304700      o
      -19.42490260957200       -7.07120702824600        1.65123390241700      h
      -16.67772949578400       -6.13536941761300        1.65044958375600      h
        5.21999457894300      -14.40972943489700        7.86184542151300      o
        6.01651969738800      -12.82209518848200        8.38398406235400      h
        3.96357594844500      -14.79386828848200        9.10911958272700      h
       12.53541236673700       -9.50743742163100       10.88389447838300      o
       12.91131803339400       -9.06646057504400       12.59548961835600      h
       13.12238373470500       -8.10402903065000        9.82100852651900      h
        5.90302681014700        3.40877234293900       -4.02831436823300      o
        7.03945883899100        4.14064802614500       -2.77373953521700      h
        4.83750332147700        4.79501191528900       -4.59717052750900      h
        8.07552030032400       -9.86504464874400       -3.13270480897100      o
        6.28241025493000       -9.90819892676400       -2.75469592967800      h
        8.66742575521900      -11.59957408487300       -3.27240097732100      h
      -14.75826758863400       10.49404084294900       -7.69042945987500      o
      -13.07045570495600       10.98580378586200       -8.23613142843700      h
      -14.77876766983500       10.65324645204900       -5.86044685083400      h
       12.15219607565900        3.39104670408600        2.26412999322800      o
       12.30931134418000        1.55892005298900        2.42387385202500      h
       13.76784313426500        4.02884017748600        2.87715548245600      h
        0.46929118647300        3.36224618306500      -12.97478521998500      o
        0.79741190919700        1.55143381898200      -13.06389400481800      h
       -1.03191218553100        3.64457392349000      -13.99613058108400      h
      -15.15125801305200       -4.62225836102600       -0.66884874323600      o
      -15.47216441556800       -5.71301780106700       -2.08292168261300      h
      -15.85301788497100       -2.97860362801700       -1.10486406483200      h
       -6.10973885291300        5.62485776108400        6.69786866313900      o
       -6.36841439426200        4.19599477328300        7.84287888788000      h
       -4.31487338533800        6.10358823374200        6.83353051338600      h
        5.66311445828200      -10.10410816878300        2.50216735919500      o
        5.41923945125700      -11.37018600648100        1.20197703865800      h
        4.94603669666400       -8.51139703300900        1.81702505886200      h
       -3.76233985432400      -12.26340169417000        3.70187901403800      o
       -3.73639332820200      -10.73244502097500        4.70301341406800      h
       -5.50111537880500      -12.56802414941300        3.23311495981500      h
        5.67071653929300       -1.80072357417600       -8.80456166068100      o
        4.92660201101600       -0.14464360713500       -9.05561296851600      h
        4.29465841275900       -3.01162675074100       -8.72529538136200      h
        5.37446161424200       -2.35872923262000      -14.58669471095600      o
        6.25480756618300       -3.67149530518400      -13.64883248441200      h
        6.43683974534400       -0.85881417013300      -14.49279910554000      h
       -0.81781757666600        0.71692746037500        9.30315300585700      o
       -1.48494352006000        1.47630526243700        7.77981386539600      h
       -1.65472224675700       -0.92366050177600        9.43740536507600      h
       -1.82809654972700      -10.10720240170600      -11.76263231435900      o
       -2.00296908317600       -8.48078059779100      -12.58599920072200      h
       -1.52238749204800       -9.79607664074600       -9.96312880961700      h
        3.44217460893900        1.18373908943100       -0.28034481073500      o
        3.12230833445100        2.66557351311700        0.75678529137900      h
        4.26372065723300        1.79454424383200       -1.81535438276400      h
       -3.31490224428800      -11.42187429992700       -2.81927515403800      o
       -1.92405150421600      -11.50360117628600       -1.62029671286300      h
       -4.25159004527100      -13.00110363926100       -2.68062396180800      h
        9.48533836091100       -6.84320491171500        5.31448326653300      o
        8.90592290284700       -8.35437894685800        6.18671049961600      h
        9.64465374872700       -7.21063537178400        3.50231742308800      h
       -6.47558865908200       -4.81649514531300      -13.20892750474600      o
       -5.31479014687800       -5.25302535524700      -14.54267683479100      h
       -5.57526150953700       -5.32063785923100      -11.64126927695300      h
      -11.97843462075400       -8.18915068213600        1.78931008751200      o
      -12.31933209242600       -7.29775420640700        3.38303192506800      h
      -11.27770526439500       -6.91294521537100        0.68729207071400      h
       -2.08851140712300        3.75180693951200       -8.27396296658700      o
       -1.32588450815100        2.41250537145200       -7.29756885055900      h
       -1.24390535980300        3.75047262216100       -9.89304002292200      h
      -18.20059441556500        3.24018160077400        1.71138847198400      o
      -17.25102102422200        3.22125927406600        3.28623359836000      h
      -18.10942817214000        4.94568789218200        1.04287181822600      h
        7.74279798776700      -10.05894506672500        8.90234249559400      o
        7.15936087389700       -8.42327557896200        9.56591387411500      h
        9.34488212040700      -10.32707854302000        9.74648146483100      h
       -0.13650966899100        8.29985363354400       13.70576884917500      o
       -1.04330040504800        6.76111587410200       13.25587630031600      h
        1.15822644722100        8.57000580788400       12.42498711717100      h
        8.83623419362400       -0.64532396479000       -4.97405055557400      o
        7.97425512124200        0.95461450025300       -4.69965757731200      h
        7.90240414072200       -1.47061768470500       -6.32670375310500      h
        9.92314193697600        8.22962379789300        3.54296447961500      o
        8.50093161901900        8.28885260753600        4.68289797108800      h
       11.44182125116300        8.60465403464200        4.52772072159700      h
       -8.81751809365400       -3.24065989948200       -6.33878301837800      o
      -10.40302045140800       -2.27676625182300       -6.32245819425400      h
       -8.97580657736500       -4.62315111159500       -7.53476108780600      h
        9.21407526222900      -12.98840855992200        4.48694195381700      o
        8.22300952425700      -14.22632216263400        5.37129436363200      h
        8.00232882134800      -11.72773408725100        3.88105458084100      h
       -4.31744651007900        3.51272293975700      -14.52784449902500      o
       -4.42064679914600        2.08232434439800      -13.36972748829000      h
       -5.90508793027100        3.44732823118700      -15.49344175447000      h
       10.47297648655600       -1.57630930380500      -10.67146283534600      o
        8.76111715684800       -2.07711087377400      -10.26102833330400      h
       10.60694277981600       -1.53202600826000      -12.52165339909000      h
      -15.91588588387200       -9.99471021940700        7.86541672425600      o
      -15.41324826769800      -11.15096401137900        6.53663492701900      h
      -14.61160550852100      -10.10546078076000        9.14031212433400      h
      -19.28015672480000       -1.81014115421400        2.32438558168600      o
      -19.96208866174600       -3.08986422980500        1.20220336338700      h
      -20.40318980430100       -1.60232845644200        3.76385855922800      h
      -15.44393904095600       -9.84806450318700       -1.55927368288700      o
      -17.01279212621500       -9.99456807705600       -0.66406378649000      h
      -14.25159711700400       -9.12652612094500       -0.32761147918600      h
      -14.97700370193500       10.25412014756600       -2.46323899783600      o
      -14.48836348296600       11.74517034405400       -1.53762709399100      h
      -13.43677350005600        9.20327703915300       -2.54587347120700      h
      -11.96651102146800       13.96404891094500       -0.14065461788700      o
      -10.70305372267900       15.01281859485000        0.73358950571700      h
      -11.39108742125500       13.98089655553200       -1.88477356661200      h
       -5.73683879008700        8.14832932087800       -1.65368827016500      o
       -4.62807682004300        8.00556156627000       -3.11927728905100      h
       -7.46611344542700        8.10862627298100       -2.28709367651200      h
       -2.77965714626500       11.44432805710500       10.93223387943800      o
       -1.87431483507100       10.53140130246700       12.28922928396400      h
       -1.73929573523200       12.84404288706600       10.42611259202600      h
        1.15433314386900       10.02623356982500        4.14528128608500      o
        2.66036333949800       10.58427965857800        4.99350744947000      h
        0.31222818815000       11.49956496373300        3.43432789855700      h
        1.21845245447600        8.55902301489700      -10.13155653362700      o
        2.90373456920700        8.82971065404400      -10.88384829310300      h
        0.72832555276500       10.16479184725400       -9.44276698416700      h
        4.55576593181600        5.71547777979000      -15.29486755534400      o
        4.99969137090300        7.27743629800000      -14.46649759288600      h
        2.93474818853700        5.17491301553700      -14.63273785630900      h
       11.68468375228400        3.56985535810800       -3.01781748369200      o
       11.58492017608600        3.65459600569400       -1.18697932900600      h
       13.26327590909700        2.68217820981200       -3.37649694187500      h
        5.96221235432500        9.20910717705400      -11.58436646446200      o
        6.49046786723200       10.67573138101200      -10.58444833872900      h
        6.62824643239600        7.77982449869400      -10.58322578543900      h
       -4.63235203738700       11.98383570620600       -9.18877735657000      o
       -6.46051328188200       12.08456772707900       -9.22326061403300      h
       -4.24385544798400       10.70889750477900      -10.45439376533300      h
       -9.20588225125200       -2.79560408737100        3.78385516112300      o
       -8.84040790074800       -2.12657999344100        2.10514101153900      h
      -10.84081020998500       -2.14062261481200        4.23037472453000      h
        1.10688022648600      -14.85771119492200       -3.80859242080800      o
       -0.20631756984400      -14.84927240618800       -5.09509167495200      h
        0.24789724430000      -15.37425012253900       -2.26647704608500      h
       16.75227614448100       -4.76515430349400       -2.81799389414400      o
       16.15785885413900       -5.77320345568100       -1.36888102618000      h
       17.54530517033200       -5.91281590180200       -4.01331861992700      h
        2.35636633630100       -9.90807882636500        6.49817785877600      o
        3.16653862186000       -9.59221900200300        8.10455525167500      h
        3.66110671611200      -10.00165750678700        5.19870147216800      h
        5.56642096298700       14.37691875913200       -1.87648814539000      o
        7.29777489720600       14.54227521416900       -2.46412877851200      h
        5.50981917665900       12.70049667761600       -1.08005881167300      h
      -11.93818059302100       -4.52336553672000       12.89580989799100      o
      -13.37271085647200       -3.73916075418700       12.03361123284100      h
      -12.01474927815300       -6.30025280338000       12.50916302998400      h
      -14.19189942402300       -2.89330457850700      -10.83680331747400      o
      -14.26359667193600       -4.53118393522800      -10.03967098435000      h
      -15.77245169492000       -2.07400968193500      -10.48307024058400      h
       -9.61718719186800       13.11671518141200       -4.64916653788200      o
       -7.96822044394000       13.29841854599000       -3.77448629217400      h
       -9.42344725470600       13.69337536046100       -6.35325627446700      h
       -9.80273140913100       10.82669110271300       -9.38573795404600      o
       -9.94692896100600       10.05596574369000      -11.04014953363600      h
       -9.00725776028200        9.47649918800400       -8.38924334012400      h
        5.42179751544900        0.24308680044200        9.45041647594600      o
        4.31300631814800       -0.61323614246000       10.62142876491000      h
        4.39634717939300        0.62607206250700        7.94305248887700      h
      -10.83166144951100       -8.98974865378800       -4.50471542257900      o
      -12.22080962530400       -8.61828183319900       -5.62898190768800      h
      -10.83565581068200       -7.66539765956700       -3.22599784635500      h
        3.23848442183600       -9.23594744018300      -10.85822449929200      o
        3.71403372699700      -10.46232869757100       -9.56105715578200      h
        1.70968910266500       -9.89424080392300      -11.62733353356900      h
        2.99193862374200       -8.95494187259700       -3.34540856630900      o
        3.02766695057900       -7.14203404658800       -2.99280179178500      h
        2.13526836735200       -9.77577931674500       -1.91696832154100      h
       -9.67304275962300        9.87210373911400        1.95987645009500      o
      -10.43615209599100       11.24916740772300        1.00743762647700      h
      -10.93015167885300        8.52253098177300        2.02200786859200      h
      -13.02905695135100       -0.69814278395100       -5.45450196782800      o
      -12.84025061299900       -0.67186451662700       -3.61137200718000      h
      -12.68214022518700        1.03075795226000       -5.99475215828400      h
      -18.69179589935500        8.12894968332500        0.19873968337200      o
      -17.40380347333900        8.90570874209500       -0.87968794842000      h
      -20.17572666009900        7.81962978076600       -0.80984678442200      h
       11.58869228299800        8.72498907681700       10.16763991578200      o
       11.87997659914600        6.98324601854600       10.62733387334100      h
       12.73988107803400        9.09299616654000        8.78945205449700      h
      -11.58514801070600        4.10593047592400       -6.67702173634600      o
      -12.67629537709200        4.76496622757400       -8.01812523066500      h
       -9.99376799297800        3.67279082230400       -7.49988046538500      h
        2.62764284882500       10.22761143987900        9.72475922226900      o
        4.44028664686000       10.46567596442100        9.73945967009200      h
        1.91184497194800       11.74588263826800        9.00338990549200      h
        7.51742037233400        2.21319883643500      -13.29364753372100      o
        6.57294589019200        3.44146474378000      -14.31398672422200      h
        6.83093222675500        2.30018994410300      -11.61075554626100      h
       -1.14011120716000      -11.14344674826000       13.81754148921700      o
       -2.32469893661000      -11.99533097340600       12.72649418287600      h
       -2.10562671665100       -9.88983803272300       14.73914126128500      h
       12.62702343124100        7.38162888178500       -6.25747448652700      o
       13.57573926683800        8.67138269792600       -5.36497158608100      h
       12.19891065538200        6.06068989869300       -5.02769858723700      h
      -14.58861772669500       -1.54203223245100        4.05520945287800      o
      -14.67441757814800        0.13182816680400        4.83357656789700      h
      -16.28078224714300       -1.81776718069900        3.35248270872400      h
       12.18017820096800        3.50368445991000       11.02212900248200      o
       10.74137130306800        3.20236880171300       12.14194297237900      h
       13.11592327191100        1.93662919510200       11.00730081466500      h
      -21.75634463695600       -1.53504686709300        6.78318939895500      o
      -21.07449093901000       -0.20287111940500        7.82485225026500      h
      -20.85101069120000       -3.06306571733600        7.26599326358100      h
      -11.67978284138700        6.40537953010300        7.02336088761600      o
       -9.90048832162600        6.26422961542200        6.68767496471800      h
      -11.93467371972900        7.76410081491400        8.22069009201200      h
      -13.21511448281100        6.30507774068000        1.85885860968400      o
      -14.48334052374100        6.86059403365100        3.07052958719400      h
      -14.05974248118700        5.63109588004600        0.36138342584900      h
      -12.60558195131100        3.69378452297800       11.76415062261000      o
      -11.35165642869800        4.91036043272200       12.34445683455900      h
      -14.02648039921400        4.69468087631000       11.15757789667700      h
       -4.56608494231200       -7.54326977655800       15.55739697752700      o
       -5.96272989527200       -7.83390665899000       16.66521485579300      h
       -5.22240870989100       -7.61621613691400       13.79458239891100      h
        2.80007623702500       -8.91225794679800       11.58963851583500      o
        3.72628283611400       -8.06911058290800       12.94264143927900      h
        1.41516567454200       -9.81961191869800       12.41901369439000      h
       -3.78949856084100        7.58990269196400      -11.53287861009000      o
       -1.97263390513000        7.57406650013600      -11.32620624098600      h
       -4.19356915714800        6.29129274092400      -12.78219713277200      h
        7.67188868886800        8.64502637547200       -4.24144769334900      o
        9.29837809924000        8.54548084643700       -3.36022453478100      h
        6.46182049943000        8.85397250195500       -2.88258932233800      h
       11.40261549617600        2.76595340359100       -8.38560706085500      o
       11.29429044645600        2.22024694258400       -6.64960391268500      h
       11.11169204568600        1.25633164395600       -9.41812400668900      h
        6.35420939044100       12.14451566399500        4.38012003577000      o
        6.73827561675600       11.86251487998600        6.16170159711700      h
        7.97923926077200       12.60596109307500        3.61902100422800      h
        5.82522938438400        6.71467705906300        6.54126847797700      o
        4.62380515387200        6.37662745693200        7.89161989991800      h
        7.16634559863700        5.45070887191900        6.73671295285800      h
        9.67151877520200        3.53253986329600        6.63988001279600      o
       10.72190167544200        3.60065893553300        8.15152510767400      h
       10.74133036442300        3.90855089823800        5.17510754373700      h
        9.96827651097500       -6.94336187140800        0.41322688355900      o
        9.08735652756500       -5.35208957070500        0.04055456181200      h
        9.33978247213400       -8.15378638738200       -0.83383499018800      h
       14.91601966286300       -6.80518223874500        1.33147048117700      o
       15.40507948999900       -8.40693647342300        2.07599268135600      h
       13.11285813774400       -6.88556456035200        0.96813166971700      h
       22.19565998111900        3.54670510803900       -2.14607393768200      o
       23.45258484954500        2.73294772171400       -1.07351819804200      h
       21.57525237006600        2.14559621874200       -3.20355756727000      h
       -4.95590639420100        9.76035735341300        3.85401980349600      o
       -3.71148944401000        8.82053417866100        2.89698281668400      h
       -6.51641019268300        9.69965346148900        2.89405017441600      h
       12.77817158583100       12.89728663680700       -8.17716903235800      o
       14.05858483885000       12.44206888689800       -6.95193822784400      h
       12.94689192275600       11.68514530802000       -9.54031013936600      h
      -19.57511768721900       -1.05345949559500       -8.73216660292600      o
      -19.09630922254700        0.53992954383600       -9.50179951496800      h
      -20.65561481704600       -0.51824616991300       -7.32728981513700      h
        3.06386009670900        3.66595599705100       14.46743083801400      o
        2.83594847102800        4.23212278150400       12.70898698594900      h
        2.11380858334700        4.83089253136100       15.48009440863000      h
      -14.39787876032300        6.14702310885400      -10.28569535981200      o
      -14.77035114774200        7.75950330575400       -9.45373968677300      h
      -15.99205648500500        5.29661069506300      -10.57584800677200      h
       -8.30353757245700       -3.45365612819400        9.24271606776900      o
       -9.33996251577400       -2.06227660444100        8.62140608763100      h
       -9.19441243469200       -4.08558728166100       10.70211638081300      h
      -14.90702646765300        4.33703148411900       -2.52549506152200      o
      -13.21028293827300        4.10061689725700       -3.18542902958500      h
      -15.91936257200500        5.18840697916600       -3.79498447779100      h
       -3.91044120112000       -5.69427220946700       -9.16150939006700      o
       -2.09607121855500       -5.68565035750000       -8.98127819079000      h
       -4.61108412084800       -6.48419717241800       -7.64653728034300      h
        7.51132533113800       -2.73107538407800       -0.58124206867800      o
        7.41207331433700       -1.39257586295400        0.66924452195800      h
        8.15790496137300       -1.96717413083900       -2.13601875258200      h
      -18.35034071040800        6.52581576955900       -5.66029255565500      o
      -19.84538200488800        6.37043770134800       -4.57973781035100      h
      -18.04945923904600        8.28198004691300       -6.00837604340700      h
       13.77713021436300       -5.76627243222800        7.70462793941700      o
       12.20307096416000       -5.96152432835100        6.72625632458200      h
       15.11078208368200       -5.53223576330500        6.48517145351300      h
        9.58398948227700       -1.74497515690700        7.36983086083500      o
        8.17157214748800       -0.78233703825400        8.06531394338400      h
       11.05418449859300       -1.33629486119600        8.38385181611900      h
       19.97549613280800       -2.69170588339300        0.36207177969100      o
       20.94369481579800       -4.25118224997000        0.59582053809300      h
       18.81500832707700       -3.14347302149800       -1.02874186506000      h
       16.70772111995100      -11.14192126604200        3.54655577679200      o
       15.80186236328400      -11.87250459250600        4.99428933095100      h
       17.99092847281500      -10.02637198960500        4.29871730882800      h
       11.88149697267800        8.53294638567800      -11.22760035153400      o
       11.87353882780200        7.91021371969000       -9.49200437524500      h
       10.15857350578500        8.87562476399700      -11.68852703081000      h
        3.58597707335300       16.05921321732500        2.69144409474400      o
        4.27931654791800       16.15114408090800        0.99638322421500      h
        4.58834143213200       14.72596307558600        3.49879539173700      h
       -2.18037448245600       -3.14803179448800       14.56275998575600      o
       -2.76287370644000       -4.69879820875100       15.34759280151200      h
       -3.17854909997500       -1.75194805649800       15.29910436381900      h
       12.64816728821600      -13.12418920968000        0.75112711816100      o
       11.33679991615700      -13.12886155331000        2.04934452172000      h
       14.21810336143300      -12.90530404329900        1.65434046712400      h
       14.48822793708100       -2.51308090468600       -7.73864572260700      o
       13.16218280373600       -2.18519387152000       -8.98075292823400      h
       13.76152243730200       -3.75523134724300       -6.58799466212900      h
        2.41108318278800       -1.40374120025500       13.48474516403100      o
        0.74757011478500       -1.97683722161500       14.05298895572300      h
        2.59019868843200        0.32198665226100       14.09668470769100      h
        7.62283675322700       11.54507670851200        9.29597129835100      o
        8.98033212273700       10.30020520685300        9.61256748523200      h
        8.15288048904400       13.06279729348200       10.12308391426300      h
       -0.86647025422100       14.10768088976500        1.70282106283300      o
        0.68696031704000       15.09499537300600        1.99199188132200      h
       -2.26500110360000       15.02489490005700        2.40059584797700      h
       -1.57753614148100        6.87015951157800        1.22559344405700      o
       -1.47087515608700        5.60745557566100       -0.11226520561400      h
       -0.96384851023300        8.39910277285900        0.37591913000900      h
        4.95409542843900        9.73016344447600       -0.02395190772200      o
        5.28466207882800       10.11136764096800        1.73791912109000      h
        3.14034626979200        9.79012540939500       -0.30568159296900      h
       16.60149131238200        1.44717002030700        0.40119257335400      o
       15.32441313237800        0.42442464156500       -0.43498272790500      h
       18.18320130460600        0.59424901875000        0.17054200892900      h
        0.24668269135400       14.46140283257800        7.51305042057200      o
        1.26904561431800       15.58716484831600        6.52438721044100      h
       -1.44769417434900       14.49561819247500        6.77037121814300      h
      -16.48193316224500        6.72279183179600       10.05429950504700      o
      -16.56909511134300        7.12415871233800        8.26653822104900      h
      -15.74233409708500        8.20911104910300       10.80231180946800      h
       -9.05472356484100        6.99023434283600       13.49422425162400      o
       -7.79812673129600        6.43887127859600       14.67197140028300      h
       -8.16641216064300        7.84044519241100       12.09675880516900      h
      -14.48471966747000       12.77723152880800        4.66634974261700      o
      -14.12973210772500       13.43331496009500        3.00768816029600      h
      -12.88170114244900       12.85390443459300        5.56528144879100      h
       15.86170985975500        1.28910309260100       -4.85589788098600      o
       16.30312391976200        2.68221982516800       -6.00056995778700      h
       15.27274834447700       -0.07779130872000       -5.96653417287800      h
       -9.45004565842500       -7.22642153500700       -9.60297440105400      o
       -9.10155364007900       -6.62393725951100      -11.28785356876400      h
      -11.23676855180800       -7.54925560709100       -9.44730841268600      h
       -9.74214895723200       -0.82380848111300      -12.44137943229100      o
       -8.78303511870500       -2.30549890579200      -12.92239413311100      h
      -11.38873819218900       -1.41508787735900      -11.88504792345000      h
      -18.47199675190100       -5.44632092165100        7.28224157326800      o
      -18.42188084045800       -7.02511421069000        8.18349600321100      h
      -18.31795687819200       -5.95204903457100        5.48549963862800      h
      -12.63882501583700      -14.06195691628900       -1.16988095066700      o
      -11.99310898488000      -14.68497262618600       -2.74830307882100      h
      -13.70789316381400      -12.60758362557000       -1.58768499292700      h
       -5.43364472993400       13.19071089657200       -1.98960508828400      o
       -3.99597860894500       13.63384809770500       -3.06315689831400      h
       -5.32771231099400       11.38770087153800       -1.56821647740500      h
      -11.17204066195100       -8.89447841900800        9.97772490034800      o
      -10.46427252240600      -10.35518867949800        9.07292838603800      h
      -11.40491707939200       -7.61793647444300        8.66885458683500      h
      -21.39698378233400        5.67770251522100        6.62974696021500      o
      -19.98225844455200        6.77510251158600        6.28378248075100      h
      -20.80054891909000        4.42209483396900        7.79824614969300      h
       18.50726835862100       -4.80781857047300       -9.78588095036400      o
       18.98595497206400       -6.18744807193700       -8.69554075604100      h
       17.11174675079600       -3.94710390748800       -8.90899223636300      h
        2.89382488091000      -14.98196936259100        3.31006304069100      o
        1.56205030333300      -16.20748204505200        3.41558943651500      h
        3.62743416053100      -14.79379276766400        4.99634026507500      h
       -6.26350297214200      -11.53922015602100       -9.38483139562700      o
       -4.88766897825500      -11.22730363073400      -10.56508683706500      h
       -7.19750836836800       -9.96658926878300       -9.27635993882300      h
       12.86058416569100       -1.67297510441000       -1.74880028688300      o
       11.69472638809200       -1.26437218749700       -3.09119032004500      h
       14.07763617204600       -2.85929897082100       -2.43295654465600      h
       -9.81898958526700        6.61888252662300      -12.52497963385700      o
       -8.85464640808600        5.49715401791800      -11.42588926988300      h
      -11.56999155859400        6.39744884540200      -12.02933359135700      h
       10.81985820800400       13.58663244127300        2.27831142498500      o
       12.44515552085500       12.76960873658900        2.31492199872700      h
       10.63164261650200       14.20998758695700        0.57346370968400      h
       22.15566224217600       -7.22115583519200        0.29923168202700      o
       20.90602542671600       -8.42168853230800       -0.34472283994200      h
       23.12690012926900       -6.66408962017800       -1.14386787123100      h
       15.95793973006300       10.91881314684600        1.26701613444200      o
       15.83134105630300        9.13591665787000        0.77639515424400      h
       17.77489727960000       11.23459458291900        1.20250238738500      h
       11.82051704527100       -7.84274622987400      -10.06890699328200      o
       12.03215588742400       -7.00758752558600       -8.43046812158900      h
       11.39399118038400       -9.57229114947200       -9.65200176799000      h
       -3.01286925991500      -15.05487084838100       -6.90481537320800      o
       -4.12032221925000      -15.98837702153000       -5.81108218728100      h
       -4.05346439489900      -13.85462050939200       -7.80902477895600      h
       17.63498471986500        0.67812420870100        7.64261339083200      o
       16.63142618448900        0.17776471233900        9.07480018056700      h
       17.48220551994200       -0.74215842740500        6.42378351991200      h
      -16.91647017239600       -4.02778662030900       -5.66466903982200      o
      -15.57362674371200       -2.77105162285300       -5.41016950596100      h
      -18.04942025966900       -3.17745507658400       -6.85281382461500      h
[...]
   382   8 o      384   1 h                                       0.9742997
   385   8 o      386   1 h                                       0.9746688
   385   8 o      387   1 h                                       0.9852200
   388   8 o      389   1 h                                       0.9682297
   388   8 o      390   1 h                                       0.9700555
   391   8 o      392   1 h                                       0.9682457
   391   8 o      393   1 h                                       0.9694069
   394   8 o      395   1 h                                       0.9700674
   394   8 o      396   1 h                                       0.9797079
   397   8 o      398   1 h                                       0.9849826
   397   8 o      399   1 h                                       0.9591347
   400   8 o      401   1 h                                       0.9801898
   400   8 o      402   1 h                                       0.9683788
   403   8 o      404   1 h                                       0.9752006
   403   8 o      405   1 h                                       0.9646198
   406   8 o      407   1 h                                       0.9714898
   406   8 o      408   1 h                                       0.9701810
   409   8 o      410   1 h                                       0.9648595
   409   8 o      411   1 h                                       0.9771918
   412   8 o      413   1 h                                       0.9707408
   412   8 o      414   1 h                                       0.9784688
   415   8 o      416   1 h                                       0.9796055
   415   8 o      417   1 h                                       0.9606870
   418   8 o      419   1 h                                       0.9861736
   418   8 o      420   1 h                                       0.9642758
   421   8 o      422   1 h                                       0.9765137
   421   8 o      423   1 h                                       0.9695260
   424   8 o      425   1 h                                       0.9791944
   424   8 o      426   1 h                                       0.9879030
   427   8 o      428   1 h                                       0.9829408
   427   8 o      429   1 h                                       0.9838739
   430   8 o      431   1 h                                       0.9757766
   430   8 o      432   1 h                                       0.9610575
   433   8 o      434   1 h                                       0.9703446
   433   8 o      435   1 h                                       0.9806365
   436   8 o      437   1 h                                       0.9700188
   436   8 o      438   1 h                                       0.9882455
   439   8 o      440   1 h                                       0.9764826
   439   8 o      441   1 h                                       0.9654265
   442   8 o      443   1 h                                       0.9770074
   442   8 o      444   1 h                                       0.9750422
   445   8 o      446   1 h                                       0.9784222
   445   8 o      447   1 h                                       0.9735551
   448   8 o      449   1 h                                       0.9889715
   448   8 o      450   1 h                                       0.9567047
   451   8 o      452   1 h                                       0.9859690
   451   8 o      453   1 h                                       0.9589737
   454   8 o      455   1 h                                       0.9751322
   454   8 o      456   1 h                                       0.9809391
   457   8 o      458   1 h                                       0.9698219
   457   8 o      459   1 h                                       0.9718226
   460   8 o      461   1 h                                       0.9723228
   460   8 o      462   1 h                                       0.9587431
   463   8 o      464   1 h                                       0.9598437
   463   8 o      465   1 h                                       0.9791433
   466   8 o      467   1 h                                       0.9706881
   466   8 o      468   1 h                                       0.9635785
   469   8 o      470   1 h                                       0.9569370
   469   8 o      471   1 h                                       0.9850184
   472   8 o      473   1 h                                       0.9624074
   472   8 o      474   1 h                                       0.9734022
   475   8 o      476   1 h                                       0.9823182
   475   8 o      477   1 h                                       0.9827306
   478   8 o      479   1 h                                       0.9646789
   478   8 o      480   1 h                                       0.9643277
   481   8 o      482   1 h                                       0.9680735
   481   8 o      483   1 h                                       0.9714940
   484   8 o      485   1 h                                       0.9623695
   484   8 o      486   1 h                                       0.9910984
   487   8 o      488   1 h                                       0.9607904
   487   8 o      489   1 h                                       0.9804312
   490   8 o      491   1 h                                       0.9780146
   490   8 o      492   1 h                                       0.9814256
   493   8 o      494   1 h                                       0.9833684
   493   8 o      495   1 h                                       0.9753144
   496   8 o      497   1 h                                       0.9649944
   496   8 o      498   1 h                                       0.9609596
   499   8 o      500   1 h                                       0.9644043
   499   8 o      501   1 h                                       0.9839345
   502   8 o      503   1 h                                       0.9593505
   502   8 o      504   1 h                                       0.9782087
   505   8 o      506   1 h                                       0.9733430
   505   8 o      507   1 h                                       0.9696081
   508   8 o      509   1 h                                       0.9653957
   508   8 o      510   1 h                                       0.9695142
   511   8 o      512   1 h                                       0.9752139
   511   8 o      513   1 h                                       0.9700998
   514   8 o      515   1 h                                       0.9628205
   514   8 o      516   1 h                                       0.9657307
   517   8 o      518   1 h                                       0.9782695
   517   8 o      519   1 h                                       0.9665509
   520   8 o      521   1 h                                       0.9808292
   520   8 o      522   1 h                                       0.9765026
   523   8 o      524   1 h                                       0.9795874
   523   8 o      525   1 h                                       0.9681283
   526   8 o      527   1 h                                       0.9604441
   526   8 o      528   1 h                                       0.9672564
   529   8 o      530   1 h                                       0.9625571
   529   8 o      531   1 h                                       0.9936831
   532   8 o      533   1 h                                       0.9825300
   532   8 o      534   1 h                                       0.9783810
   535   8 o      536   1 h                                       0.9796090
   535   8 o      537   1 h                                       0.9718622
   538   8 o      539   1 h                                       0.9763126
   538   8 o      540   1 h                                       0.9601210
   541   8 o      542   1 h                                       0.9747716
   541   8 o      543   1 h                                       0.9698371
   544   8 o      546   1 h                                       0.9566755
   547   8 o      548   1 h                                       0.9840766
   547   8 o      549   1 h                                       0.9708465
   550   8 o      551   1 h                                       0.9710984
   550   8 o      552   1 h                                       0.9733672
   553   8 o      554   1 h                                       0.9788158
   553   8 o      555   1 h                                       0.9621058
   556   8 o      557   1 h                                       0.9829463
   556   8 o      558   1 h                                       0.9871042
   559   8 o      560   1 h                                       0.9615092
   559   8 o      561   1 h                                       0.9973723
   562   8 o      564   1 h                                       0.9775149
   565   8 o      566   1 h                                       0.9740759
   565   8 o      567   1 h                                       0.9657232
   568   8 o      569   1 h                                       0.9607277
   568   8 o      570   1 h                                       0.9742350
   571   8 o      572   1 h                                       1.0006900 (max)
   571   8 o      573   1 h                                       0.9779817
   574   8 o      575   1 h                                       0.9655932
   574   8 o      576   1 h                                       0.9808111
   577   8 o      578   1 h                                       0.9652801
   577   8 o      579   1 h                                       0.9721882
   580   8 o      581   1 h                                       0.9837473
   580   8 o      582   1 h                                       0.9653042
   583   8 o      584   1 h                                       0.9686888
   583   8 o      585   1 h                                       0.9643230
   586   8 o      587   1 h                                       0.9659037
   586   8 o      588   1 h                                       0.9840810
   589   8 o      590   1 h                                       0.9754575
   589   8 o      591   1 h                                       0.9814000
   592   8 o      593   1 h                                       0.9619053
   592   8 o      594   1 h                                       0.9753974
   595   8 o      596   1 h                                       0.9723271
   595   8 o      597   1 h                                       0.9937379
   598   8 o      599   1 h                                       0.9831437
   598   8 o      600   1 h                                       0.9744166
   601   8 o      602   1 h                                       0.9692391
   601   8 o      603   1 h                                       0.9704975
   604   8 o      605   1 h                                       0.9800889
   604   8 o      606   1 h                                       0.9589945
   607   8 o      608   1 h                                       0.9670184
   607   8 o      609   1 h                                       0.9801644
   610   8 o      611   1 h                                       0.9707054
   610   8 o      612   1 h                                       0.9769486
   613   8 o      614   1 h                                       0.9660289
   613   8 o      615   1 h                                       0.9737052
   616   8 o      617   1 h                                       0.9795610
   616   8 o      618   1 h                                       0.9750917
   619   8 o      620   1 h                                       0.9723994
   619   8 o      621   1 h                                       0.9709614
   622   8 o      623   1 h                                       0.9727384
   622   8 o      624   1 h                                       0.9721877
   625   8 o      626   1 h                                       0.9748267
   625   8 o      627   1 h                                       0.9700644
   628   8 o      629   1 h                                       0.9684455
   628   8 o      630   1 h                                       0.9720813
   631   8 o      632   1 h                                       0.9570262
   631   8 o      633   1 h                                       0.9838002
   634   8 o      635   1 h                                       0.9563221
   634   8 o      636   1 h                                       0.9977038
   637   8 o      638   1 h                                       0.9636862
   637   8 o      639   1 h                                       0.9611151
   640   8 o      641   1 h                                       0.9746551
   640   8 o      642   1 h                                       0.9794671
   643   8 o      644   1 h                                       0.9708950
   643   8 o      645   1 h                                       0.9898608
   646   8 o      647   1 h                                       0.9759871
   646   8 o      648   1 h                                       0.9812094
   649   8 o      650   1 h                                       0.9713058
   649   8 o      651   1 h                                       0.9671660
   652   8 o      653   1 h                                       0.9665507
   652   8 o      654   1 h                                       0.9691907
   655   8 o      656   1 h                                       0.9724919
   655   8 o      657   1 h                                       0.9720438
   658   8 o      659   1 h                                       0.9644839
   658   8 o      660   1 h                                       0.9708869
   661   8 o      662   1 h                                       0.9735028
   661   8 o      663   1 h                                       0.9671541
   664   8 o      665   1 h                                       0.9690782
   664   8 o      666   1 h                                       0.9628379
   667   8 o      668   1 h                                       0.9712717
   667   8 o      669   1 h                                       0.9764063
   670   8 o      671   1 h                                       0.9767060
   670   8 o      672   1 h                                       0.9727448
   673   8 o      674   1 h                                       0.9793761
   673   8 o      675   1 h                                       0.9685657
   676   8 o      677   1 h                                       0.9751285
   676   8 o      678   1 h                                       0.9605149
   679   8 o      680   1 h                                       0.9840427
   679   8 o      681   1 h                                       0.9787162
   682   8 o      683   1 h                                       0.9747868
   682   8 o      684   1 h                                       0.9719941
   685   8 o      686   1 h                                       0.9731296
   685   8 o      687   1 h                                       0.9821418
   688   8 o      689   1 h                                       0.9690838
   688   8 o      690   1 h                                       0.9609584
   691   8 o      692   1 h                                       0.9670319
   691   8 o      693   1 h                                       0.9758201
   694   8 o      695   1 h                                       0.9612612
   694   8 o      696   1 h                                       0.9872437
   697   8 o      698   1 h                                       0.9829858
   697   8 o      699   1 h                                       0.9678531
   700   8 o      701   1 h                                       0.9834202
   700   8 o      702   1 h                                       0.9789792
   703   8 o      704   1 h                                       0.9672910
   703   8 o      705   1 h                                       0.9780950
   706   8 o      707   1 h                                       0.9744248
   706   8 o      708   1 h                                       0.9798578
   709   8 o      710   1 h                                       0.9810288
   709   8 o      711   1 h                                       0.9713482
   712   8 o      713   1 h                                       0.9868697
   712   8 o      714   1 h                                       0.9743643
   715   8 o      716   1 h                                       0.9783070
   715   8 o      717   1 h                                       0.9764083
   718   8 o      719   1 h                                       0.9697096
   718   8 o      720   1 h                                       0.9793374
   721   8 o      722   1 h                                       0.9637393
   721   8 o      723   1 h                                       0.9814738
   724   8 o      725   1 h                                       0.9846503
   724   8 o      726   1 h                                       0.9889747
   727   8 o      728   1 h                                       0.9565149
   727   8 o      729   1 h                                       0.9894533
   730   8 o      731   1 h                                       0.9652017
   730   8 o      732   1 h                                       0.9704086
   733   8 o      734   1 h                                       0.9666948
   733   8 o      735   1 h                                       0.9764667
   736   8 o      737   1 h                                       0.9771949
   736   8 o      738   1 h                                       0.9564332
   739   8 o      740   1 h                                       0.9668866
   739   8 o      741   1 h                                       0.9700644
   742   8 o      743   1 h                                       0.9717445
   742   8 o      744   1 h                                       0.9653745
   745   8 o      746   1 h                                       0.9784880
   745   8 o      747   1 h                                       0.9750167
   748   8 o      749   1 h                                       0.9792453
   748   8 o      750   1 h                                       0.9792210
   751   8 o      752   1 h                                       0.9717637
   751   8 o      753   1 h                                       0.9612539
   754   8 o      755   1 h                                       0.9605115
   754   8 o      756   1 h                                       0.9644073

 * 1 distinct bonds (by element types)

   Z      Z             #   av. dist./Å        max./Å        min./Å
   1 H    8 O         502     0.9734160     1.0006900     0.9557983


optimized geometry written to: xtbopt.coord


           -------------------------------------------------
          | TOTAL ENERGY            -1283.320203000784 Eh   |
          | GRADIENT NORM               0.003958219285 Eh/α |
          | HOMO-LUMO GAP               6.061134626998 eV   |
           -------------------------------------------------

------------------------------------------------------------------------
 * finished run on 2022/11/24 at 12:11:49.347     
------------------------------------------------------------------------
 total:
 * wall-time:     0 d,  0 h,  7 min,  5.349 sec
 *  cpu-time:     0 d,  0 h, 10 min, 26.861 sec
 * ratio c/w:     1.474 speedup
 SCF:
 * wall-time:     0 d,  0 h,  0 min, 19.879 sec
 *  cpu-time:     0 d,  0 h,  0 min, 31.475 sec
 * ratio c/w:     1.583 speedup
 ANC optimizer:
 * wall-time:     0 d,  0 h,  6 min, 44.458 sec
 *  cpu-time:     0 d,  0 h,  9 min, 53.663 sec
 * ratio c/w:     1.468 speedup

