      -----------------------------------------------------------      
     |                   =====================                   |     
     |                           x T B                           |     
     |                   =====================                   |     
     |                         S. Grimme                         |     
     |          Mulliken Center for Theoretical Chemistry        |     
     |                    University of Bonn                     |     
      -----------------------------------------------------------      

   * xtb version 6.5.1 (579679a) compiled by 'ehlert@majestix' on 2022-07-11

   xtb is free software: you can redistribute it and/or modify it under
   the terms of the GNU Lesser General Public License as published by
   the Free Software Foundation, either version 3 of the License, or
   (at your option) any later version.
   
   xtb is distributed in the hope that it will be useful,
   but WITHOUT ANY WARRANTY; without even the implied warranty of
   MERCHANTABILITY or FITNESS FOR A PARTICULAR PURPOSE.  See the
   GNU Lesser General Public License for more details.
   
   Cite this work as:
   * C. Bannwarth, E. Caldeweyher, S. Ehlert, A. Hansen, P. Pracht,
     J. Seibert, S. Spicher, S. Grimme, WIREs Comput. Mol. Sci., 2020, 11,
     e01493. DOI: 10.1002/wcms.1493
   
   for GFN2-xTB:
   * C. Bannwarth, S. Ehlert and S. Grimme., J. Chem. Theory Comput., 2019,
     15, 1652-1671. DOI: 10.1021/acs.jctc.8b01176
   for GFN1-xTB:
   * S. Grimme, C. Bannwarth, P. Shushkov, J. Chem. Theory Comput., 2017,
     13, 1989-2009. DOI: 10.1021/acs.jctc.7b00118
   for GFN0-xTB:
   * P. Pracht, E. Caldeweyher, S. Ehlert, S. Grimme, ChemRxiv, 2019, preprint.
     DOI: 10.26434/chemrxiv.8326202.v1
   for GFN-FF:
   * S. Spicher and S. Grimme, Angew. Chem. Int. Ed., 2020, 59, 15665-15673.
     DOI: 10.1002/anie.202004239
   
   for ALPB and GBSA implicit solvation:
   * S. Ehlert, M. Stahn, S. Spicher, S. Grimme, J. Chem. Theory Comput.,
     2021, 17, 4250-4261. DOI: 10.1021/acs.jctc.1c00471
   
   for DFT-D4:
   * E. Caldeweyher, C. Bannwarth and S. Grimme, J. Chem. Phys., 2017,
     147, 034112. DOI: 10.1063/1.4993215
   * E. Caldeweyher, S. Ehlert, A. Hansen, H. Neugebauer, S. Spicher,
     C. Bannwarth and S. Grimme, J. Chem. Phys., 2019, 150, 154122.
     DOI: 10.1063/1.5090222
   * E. Caldeweyher, J.-M. Mewes, S. Ehlert and S. Grimme, Phys. Chem. Chem. Phys.
     2020, 22, 8499-8512. DOI: 10.1039/D0CP00502A
   
   for sTDA-xTB:
   * S. Grimme and C. Bannwarth, J. Chem. Phys., 2016, 145, 054103.
     DOI: 10.1063/1.4959605
   
   in the mass-spec context:
   * V. Asgeirsson, C. Bauer and S. Grimme, Chem. Sci., 2017, 8, 4879.
     DOI: 10.1039/c7sc00601b
   * J. Koopman and S. Grimme, ACS Omega 2019, 4, 12, 15120-15133.
     DOI: 10.1021/acsomega.9b02011
   
   for metadynamics refer to:
   * S. Grimme, J. Chem. Theory Comput., 2019, 155, 2847-2862
     DOI: 10.1021/acs.jctc.9b00143
   
   for SPH calculations refer to:
   * S. Spicher and S. Grimme, J. Chem. Theory Comput., 2021, 17, 1701-1714
     DOI: 10.1021/acs.jctc.0c01306
   
   with help from (in alphabetical order)
   P. Atkinson, C. Bannwarth, F. Bohle, G. Brandenburg, E. Caldeweyher
   M. Checinski, S. Dohm, S. Ehlert, S. Ehrlich, I. Gerasimov, C. Hölzer
   A. Katbashev, J. Koopman, C. Lavigne, S. Lehtola, F. März, M. Müller,
   F. Musil, H. Neugebauer, J. Pisarek, C. Plett, P. Pracht, F. Pultar,
   J. Seibert, P. Shushkov, S. Spicher, M. Stahn, M. Steiner, T. Strunk,
   J. Stückrath, T. Rose, and J. Unsleber
   
 * started run on 2022/11/24 at 12:21:16.685     

           -------------------------------------------------
          |                Calculation Setup                |
           -------------------------------------------------

          program call               : xtb xtbopt.coord --gfn2 --sp --gbsa water
          hostname                   : cn0430
          coordinate file            : xtbopt.coord
          omp threads                :                     2

   ID    Z sym.   atoms
    1    8 o      1, 4, 7, 10, 13, 16, 19, 22, 25, 28, 31, 34, 37, 40, 43,
                  46, 49, 52, 55, 58, 61, 64, 67, 70, 73, 76, 79, 82, 85, 88,
                  91, 94, 97, 100, 103, 106, 109, 112, 115, 118, 121, 124,
                  127, 130, 133, 136, 139, 142, 145, 148, 151, 154, 157, 160,
                  163, 166, 169, 172, 175, 178, 181, 184, 187, 190, 193, 196,
                  199, 202, 205, 208, 211, 214, 217, 220, 223, 226, 229, 232,
                  235, 238, 241, 244, 247, 250, 253, 256, 259, 262, 265, 268,
                  271, 274, 277, 280, 283, 286, 289, 292, 295, 298, 301, 304,
                  307, 310, 313, 316, 319, 322, 325, 328, 331, 334, 337, 340,
                  343, 346, 349, 352, 355, 358, 361, 364, 367, 370, 373, 376,
                  379, 382, 385, 388, 391, 394, 397, 400, 403, 406, 409, 412,
                  415, 418, 421, 424, 427, 430, 433, 436, 439, 442, 445, 448,
                  451, 454, 457, 460, 463, 466, 469, 472, 475, 478, 481, 484,
                  487, 490, 493, 496, 499, 502, 505, 508, 511, 514, 517, 520,
                  523, 526, 529, 532, 535, 538, 541, 544, 547, 550, 553, 556,
                  559, 562, 565, 568, 571, 574, 577, 580, 583, 586, 589, 592,
                  595, 598, 601, 604, 607, 610, 613, 616, 619, 622, 625, 628,
                  631, 634, 637, 640, 643, 646, 649, 652, 655, 658, 661, 664,
                  667, 670, 673, 676, 679, 682, 685, 688, 691, 694, 697, 700,
                  703, 706, 709, 712, 715, 718, 721, 724, 727, 730, 733, 736,
                  739, 742, 745, 748, 751, 754
    2    1 h      2, 3, 5, 6, 8, 9, 11, 12, 14, 15, 17, 18, 20, 21, 23, 24,
                  26, 27, 29, 30, 32, 33, 35, 36, 38, 39, 41, 42, 44, 45, 47,
                  48, 50, 51, 53, 54, 56, 57, 59, 60, 62, 63, 65, 66, 68, 69,
                  71, 72, 74, 75, 77, 78, 80, 81, 83, 84, 86, 87, 89, 90, 92,
                  93, 95, 96, 98, 99, 101, 102, 104, 105, 107, 108, 110, 111,
                  113, 114, 116, 117, 119, 120, 122, 123, 125, 126, 128, 129,
                  131, 132, 134, 135, 137, 138, 140, 141, 143, 144, 146, 147,
                  149, 150, 152, 153, 155, 156, 158, 159, 161, 162, 164, 165,
                  167, 168, 170, 171, 173, 174, 176, 177, 179, 180, 182, 183,
                  185, 186, 188, 189, 191, 192, 194, 195, 197, 198, 200, 201,
                  203, 204, 206, 207, 209, 210, 212, 213, 215, 216, 218, 219,
                  221, 222, 224, 225, 227, 228, 230, 231, 233, 234, 236, 237,
                  239, 240, 242, 243, 245, 246, 248, 249, 251, 252, 254, 255,
                  257, 258, 260, 261, 263, 264, 266, 267, 269, 270, 272, 273,
                  275, 276, 278, 279, 281, 282, 284, 285, 287, 288, 290, 291,
                  293, 294, 296, 297, 299, 300, 302, 303, 305, 306, 308, 309,
                  311, 312, 314, 315, 317, 318, 320, 321, 323, 324, 326, 327,
                  329, 330, 332, 333, 335, 336, 338, 339, 341, 342, 344, 345,
                  347, 348, 350, 351, 353, 354, 356, 357, 359, 360, 362, 363,
                  365, 366, 368, 369, 371, 372, 374, 375, 377, 378, 380, 381,
                  383, 384, 386, 387, 389, 390, 392, 393, 395, 396, 398, 399,
                  401, 402, 404, 405, 407, 408, 410, 411, 413, 414, 416, 417,
                  419, 420, 422, 423, 425, 426, 428, 429, 431, 432, 434, 435,
                  437, 438, 440, 441, 443, 444, 446, 447, 449, 450, 452, 453,
                  455, 456, 458, 459, 461, 462, 464, 465, 467, 468, 470, 471,
                  473, 474, 476, 477, 479, 480, 482, 483, 485, 486, 488, 489,
                  491, 492, 494, 495, 497, 498, 500, 501, 503, 504, 506, 507,
                  509, 510, 512, 513, 515, 516, 518, 519, 521, 522, 524, 525,
                  527, 528, 530, 531, 533, 534, 536, 537, 539, 540, 542, 543,
                  545, 546, 548, 549, 551, 552, 554, 555, 557, 558, 560, 561,
                  563, 564, 566, 567, 569, 570, 572, 573, 575, 576, 578, 579,
                  581, 582, 584, 585, 587, 588, 590, 591, 593, 594, 596, 597,
                  599, 600, 602, 603, 605, 606, 608, 609, 611, 612, 614, 615,
                  617, 618, 620, 621, 623, 624, 626, 627, 629, 630, 632, 633,
                  635, 636, 638, 639, 641, 642, 644, 645, 647, 648, 650, 651,
                  653, 654, 656, 657, 659, 660, 662, 663, 665, 666, 668, 669,
                  671, 672, 674, 675, 677, 678, 680, 681, 683, 684, 686, 687,
                  689, 690, 692, 693, 695, 696, 698, 699, 701, 702, 704, 705,
                  707, 708, 710, 711, 713, 714, 716, 717, 719, 720, 722, 723,
                  725, 726, 728, 729, 731, 732, 734, 735, 737, 738, 740, 741,
                  743, 744, 746, 747, 749, 750, 752, 753, 755, 756

molecular fragmentation (1/2 indicates fragments):
111222222222222222222222222222222222222222222222222222222222222222222222
222222222222222222222222222222222222222222222222222222222222222222222222
222222222222222222222222222222222222222222222222222222222222222222222222
222222222222222222222222222222222222222222222222222222222222222222222222
222222222222222222222222222222222222222222222222222222222222222222222222
222222222222222222222222222222222222222222222222222222222222222222222222
222222222222222222222222222222222222222222222222222222222222222222222222
222222222222222222222222222222222222222222222222222222222222222222222222
222222222222222222222222222222222222222222222222222222222222222222222222
222222222222222222222222222222222222222222222222222222222222222222222222
222222222222222222222222222222222222
# atoms in fragment 1/2:     3   753
 fragment masses (1/2) :       18.02     4521.84
CMA distance (Bohr)    :  18.064
constraining FC (au)   :  0.0500

           -------------------------------------------------
          |                 G F N 2 - x T B                 |
           -------------------------------------------------

        Reference                      10.1021/acs.jctc.8b01176
      * Hamiltonian:
        H0-scaling (s, p, d)           1.850000    2.230000    2.230000
        zeta-weighting                 0.500000
      * Dispersion:
        s8                             2.700000
        a1                             0.520000
        a2                             5.000000
        s9                             5.000000
      * Repulsion:
        kExp                           1.500000    1.000000
        rExp                           1.000000
      * Coulomb:
        alpha                          2.000000
        third order                    shell-resolved
        anisotropic                    true
        a3                             3.000000
        a5                             4.000000
        cn-shift                       1.200000
        cn-exp                         4.000000
        max-rad                        5.000000

      * Solvation model:               GBSA
        Solvent                        water
        Parameter file                 internal GFN2-xTB/GBSA
        Dielectric constant                8.0200E+01
        Reference state                gsolv [1 M gas/solution]
        Free energy shift                  1.8574E-03 Eh       1.1656E+00 kcal/mol
        Temperature                        2.9815E+02 K
        Density                            1.0000E+00 kg/L
        Solvent mass                       1.8000E+01 g/mol
        Interaction kernel             Still
        Born radius scaling (c1)           1.5524E+00
        Born radii integrator          GBOBC
        Born offset                        2.4628E-02 a0       4.6540E-02 AA
        H-bond correction              true
        Ion screening                  false
        Surface tension                    1.0000E-05 Eh       1.5569E+01 dyn/cm
        Grid points                               230 per atom

          ...................................................
          :                      SETUP                      :
          :.................................................:
          :  # basis functions                1512          :
          :  # atomic orbitals                1512          :
          :  # shells                         1008          :
          :  # electrons                      2016          :
          :  max. iterations                   250          :
          :  Hamiltonian                  GFN2-xTB          :
          :  restarted?                      false          :
          :  GBSA solvation                   true          :
          :  PC potential                    false          :
          :  electronic temp.          300.0000000     K    :
          :  accuracy                    1.0000000          :
          :  -> integral cutoff          0.2500000E+02      :
          :  -> integral neglect         0.1000000E-07      :
          :  -> SCF convergence          0.1000000E-05 Eh   :
          :  -> wf. convergence          0.1000000E-03 e    :
          :  Broyden damping             0.4000000          :
          ...................................................

 iter      E             dE          RMSdq      gap      omega  full diag
   1  -1291.2403063 -0.129124E+04  0.408E+00    8.34       0.0  T
   2  -1291.3245256 -0.842192E-01  0.242E+00    7.93       1.0  T
   3  -1291.3601019 -0.355763E-01  0.224E-01    6.81       1.0  T
   4  -1291.3655704 -0.546847E-02  0.479E-02    7.07       1.0  T
   5  -1291.3657226 -0.152212E-03  0.309E-02    7.02       1.0  T
   6  -1291.3657688 -0.461885E-04  0.375E-03    7.03       1.0  T
   7  -1291.3657705 -0.169483E-05  0.894E-04    7.02       4.1  T
   8  -1291.3657706 -0.802663E-07  0.459E-04    7.02       7.9  T
   9  -1291.3657706 -0.326547E-07  0.119E-04    7.02      30.6  T

   *** convergence criteria satisfied after 9 iterations ***

         #    Occupation            Energy/Eh            Energy/eV
      -------------------------------------------------------------
         1        2.0000           -0.6551594             -17.8278
       ...           ...                  ...                  ...
      1002        2.0000           -0.3323925              -9.0449
      1003        2.0000           -0.3304152              -8.9911
      1004        2.0000           -0.3294766              -8.9655
      1005        2.0000           -0.3277996              -8.9199
      1006        2.0000           -0.3268305              -8.8935
      1007        2.0000           -0.3137322              -8.5371
      1008        2.0000           -0.3109213              -8.4606 (HOMO)
      1009                         -0.0528964              -1.4394 (LUMO)
      1010                         -0.0453266              -1.2334
      1011                         -0.0368590              -1.0030
      1012                         -0.0328882              -0.8949
      1013                         -0.0260831              -0.7098
       ...                                ...                  ...
      1512                          0.5029273              13.6853
      -------------------------------------------------------------
                  HL-Gap            0.2580249 Eh            7.0212 eV
             Fermi-level           -0.1819088 Eh           -4.9500 eV

 SCC (total)                   0 d,  0 h,  0 min, 22.492 sec
 SCC setup                      ...        0 min,  0.118 sec (  0.523%)
 Dispersion                     ...        0 min,  0.118 sec (  0.523%)
 classical contributions        ...        0 min,  0.023 sec (  0.104%)
 integral evaluation            ...        0 min,  0.613 sec (  2.724%)
 iterations                     ...        0 min,  8.760 sec ( 38.947%)
 molecular gradient             ...        0 min, 12.789 sec ( 56.862%)
 printout                       ...        0 min,  0.071 sec (  0.317%)

         :::::::::::::::::::::::::::::::::::::::::::::::::::::
         ::                     SUMMARY                     ::
         :::::::::::::::::::::::::::::::::::::::::::::::::::::
         :: total energy           -1283.566570709450 Eh    ::
         :: total w/o Gsasa/hb     -1283.335972232438 Eh    ::
         :: gradient norm              0.123990438590 Eh/a0 ::
         :: HOMO-LUMO gap              7.021214947832 eV    ::
         ::.................................................::
         :: SCC energy             -1291.365770591344 Eh    ::
         :: -> isotropic ES            7.344302951490 Eh    ::
         :: -> anisotropic ES         -1.637439275089 Eh    ::
         :: -> anisotropic XC         -0.119859882033 Eh    ::
         :: -> dispersion             -0.799761756901 Eh    ::
         :: -> Gsolv                  -0.262462446993 Eh    ::
         ::    -> Gelec               -0.031863969981 Eh    ::
         ::    -> Gsasa                0.006057969443 Eh    ::
         ::    -> Ghb                 -0.238513889582 Eh    ::
         ::    -> Gshift               0.001857443127 Eh    ::
         :: repulsion energy           7.639972087950 Eh    ::
         :: add. restraining           0.000000000000 Eh    ::
         :: total charge              -0.000000000000 e     ::
         :::::::::::::::::::::::::::::::::::::::::::::::::::::

           -------------------------------------------------
          |                Property Printout                |
           -------------------------------------------------

    * Orbital Energies and Occupations

         #    Occupation            Energy/Eh            Energy/eV
      -------------------------------------------------------------
         1        2.0000           -0.6551594             -17.8278
       ...           ...                  ...                  ...
       996        2.0000           -0.3419959              -9.3062
       997        2.0000           -0.3412108              -9.2848
       998        2.0000           -0.3395529              -9.2397
       999        2.0000           -0.3390327              -9.2255
      1000        2.0000           -0.3372956              -9.1783
      1001        2.0000           -0.3369106              -9.1678
      1002        2.0000           -0.3323925              -9.0449
      1003        2.0000           -0.3304152              -8.9911
      1004        2.0000           -0.3294766              -8.9655
      1005        2.0000           -0.3277996              -8.9199
      1006        2.0000           -0.3268305              -8.8935
      1007        2.0000           -0.3137322              -8.5371
      1008        2.0000           -0.3109213              -8.4606 (HOMO)
      1009                         -0.0528964              -1.4394 (LUMO)
      1010                         -0.0453266              -1.2334
      1011                         -0.0368590              -1.0030
      1012                         -0.0328882              -0.8949
      1013                         -0.0260831              -0.7098
      1014                         -0.0239987              -0.6530
      1015                         -0.0162698              -0.4427
      1016                         -0.0100546              -0.2736
      1017                         -0.0092664              -0.2522
      1018                         -0.0063708              -0.1734
      1019                         -0.0023736              -0.0646
       ...                                ...                  ...
      1512                          0.5029273              13.6853
      -------------------------------------------------------------
                  HL-Gap            0.2580249 Eh            7.0212 eV
             Fermi-level           -0.1819088 Eh           -4.9500 eV

     #   Z          covCN         q      C6AA      α(0)
     1   8 o        1.608    -0.682    27.225     7.042
     2   1 h        0.804     0.342     0.607     1.224
     3   1 h        0.805     0.335     0.623     1.240
     4   8 o        1.607    -0.670    26.936     7.005
     5   1 h        0.804     0.328     0.644     1.260
     6   1 h        0.803     0.356     0.574     1.190
     7   8 o        1.608    -0.672    26.966     7.009
     8   1 h        0.805     0.323     0.657     1.273
     9   1 h        0.803     0.340     0.611     1.228
    10   8 o        1.609    -0.664    26.779     6.984
    11   1 h        0.804     0.353     0.582     1.199
    12   1 h        0.806     0.332     0.632     1.249
    13   8 o        1.607    -0.698    27.646     7.096
    14   1 h        0.804     0.340     0.613     1.230
    15   1 h        0.804     0.337     0.620     1.237
    16   8 o        1.608    -0.674    27.020     7.016
    17   1 h        0.804     0.361     0.563     1.178
    18   1 h        0.805     0.342     0.608     1.225
    19   8 o        1.608    -0.689    27.425     7.068
    20   1 h        0.804     0.326     0.649     1.265
    21   1 h        0.804     0.343     0.606     1.223
    22   8 o        1.608    -0.684    27.289     7.050
    23   1 h        0.803     0.353     0.582     1.198
    24   1 h        0.804     0.337     0.618     1.235
    25   8 o        1.606    -0.695    27.580     7.088
    26   1 h        0.803     0.343     0.606     1.223
    27   1 h        0.803     0.341     0.610     1.227
    28   8 o        1.606    -0.692    27.513     7.079
    29   1 h        0.805     0.330     0.637     1.253
    30   1 h        0.803     0.359     0.569     1.185
    31   8 o        1.607    -0.677    27.107     7.027
    32   1 h        0.804     0.336     0.623     1.240
    33   1 h        0.803     0.347     0.596     1.212
    34   8 o        1.608    -0.667    26.851     6.994
    35   1 h        0.804     0.327     0.645     1.262
    36   1 h        0.804     0.353     0.581     1.197
    37   8 o        1.607    -0.685    27.308     7.053
    38   1 h        0.804     0.348     0.593     1.210
    39   1 h        0.803     0.349     0.592     1.208
    40   8 o        1.607    -0.687    27.361     7.060
    41   1 h        0.803     0.343     0.604     1.221
    42   1 h        0.804     0.349     0.591     1.208
    43   8 o        1.607    -0.698    27.660     7.098
    44   1 h        0.803     0.350     0.588     1.205
    45   1 h        0.804     0.344     0.603     1.220
    46   8 o        1.608    -0.693    27.535     7.082
    47   1 h        0.804     0.335     0.625     1.242
    48   1 h        0.803     0.350     0.588     1.205
    49   8 o        1.608    -0.678    27.139     7.031
    50   1 h        0.805     0.344     0.602     1.219
    51   1 h        0.803     0.345     0.600     1.216
    52   8 o        1.609    -0.660    26.662     6.969
    53   1 h        0.805     0.340     0.612     1.229
    54   1 h        0.805     0.338     0.617     1.234
    55   8 o        1.608    -0.682    27.237     7.044
    56   1 h        0.803     0.346     0.598     1.215
    57   1 h        0.804     0.335     0.625     1.242
    58   8 o        1.607    -0.692    27.500     7.078
    59   1 h        0.803     0.359     0.568     1.183
    60   1 h        0.804     0.333     0.629     1.246
    61   8 o        1.608    -0.678    27.131     7.030
    62   1 h        0.803     0.339     0.615     1.232
    63   1 h        0.804     0.340     0.612     1.229
    64   8 o        1.606    -0.705    27.842     7.121
    65   1 h        0.804     0.348     0.594     1.210
    66   1 h        0.802     0.362     0.562     1.178
    67   8 o        1.608    -0.687    27.364     7.060
    68   1 h        0.804     0.348     0.594     1.211
    69   1 h        0.805     0.335     0.624     1.241
    70   8 o        1.609    -0.660    26.681     6.971
    71   1 h        0.804     0.335     0.625     1.242
    72   1 h        0.804     0.357     0.572     1.188
    73   8 o        1.608    -0.689    27.429     7.069
    74   1 h        0.803     0.343     0.606     1.223
    75   1 h        0.804     0.339     0.615     1.232
    76   8 o        1.606    -0.698    27.670     7.099
    77   1 h        0.803     0.364     0.557     1.172
    78   1 h        0.804     0.334     0.626     1.243
    79   8 o        1.608    -0.691    27.465     7.073
    80   1 h        0.804     0.360     0.566     1.182
    81   1 h        0.804     0.348     0.593     1.210
    82   8 o        1.608    -0.679    27.169     7.035
    83   1 h        0.804     0.355     0.577     1.194
    84   1 h        0.804     0.347     0.596     1.213
    85   8 o        1.608    -0.676    27.087     7.024
    86   1 h        0.804     0.339     0.614     1.231
    87   1 h        0.805     0.327     0.644     1.260
    88   8 o        1.607    -0.690    27.443     7.070
    89   1 h        0.804     0.341     0.610     1.227
    90   1 h        0.803     0.347     0.596     1.213
    91   8 o        1.608    -0.686    27.348     7.058
    92   1 h        0.804     0.355     0.578     1.194
    93   1 h        0.805     0.330     0.637     1.254
    94   8 o        1.605    -0.709    27.948     7.135
    95   1 h        0.803     0.350     0.588     1.205
    96   1 h        0.802     0.360     0.565     1.181
    97   8 o        1.607    -0.689    27.413     7.066
    98   1 h        0.805     0.354     0.579     1.195
    99   1 h        0.803     0.353     0.581     1.197
   100   8 o        1.610    -0.680    27.191     7.038
   101   1 h        0.804     0.341     0.610     1.227
   102   1 h        0.805     0.345     0.600     1.216
   103   8 o        1.607    -0.689    27.419     7.067
   104   1 h        0.804     0.355     0.576     1.192
   105   1 h        0.803     0.355     0.576     1.192
   106   8 o        1.607    -0.699    27.687     7.102
   107   1 h        0.805     0.339     0.614     1.231
   108   1 h        0.803     0.342     0.608     1.225
   109   8 o        1.608    -0.698    27.662     7.098
   110   1 h        0.804     0.326     0.647     1.263
   111   1 h        0.803     0.359     0.567     1.183
   112   8 o        1.607    -0.667    26.843     6.993
   113   1 h        0.803     0.354     0.579     1.195
   114   1 h        0.804     0.335     0.626     1.243
   115   8 o        1.609    -0.671    26.956     7.007
   116   1 h        0.805     0.321     0.662     1.278
   117   1 h        0.804     0.344     0.603     1.220
   118   8 o        1.607    -0.672    26.982     7.011
   119   1 h        0.804     0.324     0.652     1.269
   120   1 h        0.803     0.350     0.588     1.204
   121   8 o        1.607    -0.663    26.737     6.979
   122   1 h        0.803     0.339     0.614     1.231
   123   1 h        0.805     0.334     0.627     1.244
   124   8 o        1.608    -0.703    27.794     7.115
   125   1 h        0.804     0.342     0.606     1.223
   126   1 h        0.805     0.336     0.621     1.238
   127   8 o        1.608    -0.669    26.912     7.002
   128   1 h        0.803     0.348     0.593     1.210
   129   1 h        0.806     0.308     0.698     1.312
   130   8 o        1.607    -0.699    27.695     7.103
   131   1 h        0.803     0.352     0.584     1.201
   132   1 h        0.803     0.355     0.578     1.194
   133   8 o        1.608    -0.674    27.027     7.016
   134   1 h        0.804     0.362     0.562     1.177
   135   1 h        0.804     0.328     0.644     1.260
   136   8 o        1.607    -0.674    27.039     7.018
   137   1 h        0.803     0.337     0.620     1.237
   138   1 h        0.804     0.337     0.620     1.237
   139   8 o        1.607    -0.680    27.175     7.036
   140   1 h        0.805     0.308     0.697     1.311
   141   1 h        0.802     0.368     0.548     1.163
   142   8 o        1.608    -0.666    26.817     6.989
   143   1 h        0.803     0.355     0.577     1.193
   144   1 h        0.805     0.316     0.675     1.291
   145   8 o        1.608    -0.669    26.894     6.999
   146   1 h        0.806     0.316     0.676     1.291
   147   1 h        0.803     0.356     0.575     1.192
   148   8 o        1.608    -0.691    27.467     7.073
   149   1 h        0.804     0.353     0.582     1.198
   150   1 h        0.804     0.351     0.586     1.202
   151   8 o        1.609    -0.668    26.877     6.997
   152   1 h        0.804     0.344     0.603     1.219
   153   1 h        0.804     0.331     0.636     1.253
   154   8 o        1.608    -0.691    27.467     7.073
   155   1 h        0.804     0.331     0.635     1.252
   156   1 h        0.804     0.339     0.614     1.231
   157   8 o        1.607    -0.682    27.230     7.043
   158   1 h        0.803     0.349     0.591     1.207
   159   1 h        0.804     0.332     0.632     1.249
   160   8 o        1.608    -0.668    26.873     6.996
   161   1 h        0.804     0.347     0.594     1.211
   162   1 h        0.804     0.334     0.628     1.245
   163   8 o        1.609    -0.649    26.393     6.934
   164   1 h        0.805     0.315     0.677     1.292
   165   1 h        0.804     0.355     0.577     1.193
   166   8 o        1.606    -0.691    27.486     7.076
   167   1 h        0.804     0.350     0.588     1.205
   168   1 h        0.802     0.357     0.571     1.188
   169   8 o        1.605    -0.707    27.895     7.128
   170   1 h        0.804     0.330     0.637     1.254
   171   1 h        0.802     0.362     0.561     1.176
   172   8 o        1.609    -0.671    26.959     7.008
   173   1 h        0.804     0.353     0.582     1.198
   174   1 h        0.805     0.334     0.627     1.244
   175   8 o        1.608    -0.691    27.468     7.073
   176   1 h        0.804     0.340     0.612     1.229
   177   1 h        0.804     0.342     0.608     1.225
   178   8 o        1.615    -0.673    27.003     7.014
   179   1 h        0.804     0.346     0.597     1.214
   180   1 h        0.804     0.341     0.610     1.227
   181   8 o        1.608    -0.697    27.622     7.093
   182   1 h        0.805     0.351     0.586     1.202
   183   1 h        0.803     0.344     0.603     1.220
   184   8 o        1.607    -0.704    27.806     7.117
   185   1 h        0.804     0.330     0.637     1.254
   186   1 h        0.803     0.364     0.558     1.173
   187   8 o        1.607    -0.717    28.162     7.162
   188   1 h        0.804     0.335     0.625     1.241
   189   1 h        0.804     0.332     0.631     1.248
   190   8 o        1.608    -0.684    27.276     7.049
   191   1 h        0.804     0.348     0.592     1.209
   192   1 h        0.804     0.324     0.654     1.271
   193   8 o        1.607    -0.682    27.239     7.044
   194   1 h        0.804     0.334     0.627     1.244
   195   1 h        0.803     0.355     0.577     1.193
   196   8 o        1.606    -0.697    27.628     7.094
   197   1 h        0.805     0.319     0.665     1.281
   198   1 h        0.803     0.373     0.537     1.151
   199   8 o        1.607    -0.705    27.848     7.122
   200   1 h        0.803     0.349     0.590     1.207
   201   1 h        0.805     0.355     0.577     1.193
   202   8 o        1.609    -0.671    26.939     7.005
   203   1 h        0.805     0.346     0.597     1.213
   204   1 h        0.805     0.318     0.669     1.285
   205   8 o        1.608    -0.678    27.136     7.031
   206   1 h        0.804     0.345     0.600     1.216
   207   1 h        0.804     0.334     0.627     1.244
   208   8 o        1.607    -0.672    26.965     7.008
   209   1 h        0.802     0.350     0.589     1.205
   210   1 h        0.804     0.320     0.664     1.280
   211   8 o        1.608    -0.697    27.619     7.093
   212   1 h        0.804     0.347     0.595     1.211
   213   1 h        0.804     0.350     0.589     1.205
   214   8 o        1.608    -0.689    27.418     7.067
   215   1 h        0.804     0.354     0.579     1.196
   216   1 h        0.804     0.347     0.595     1.212
   217   8 o        1.608    -0.672    26.979     7.010
   218   1 h        0.805     0.341     0.609     1.225
   219   1 h        0.803     0.327     0.645     1.262
   220   8 o        1.607    -0.676    27.070     7.022
   221   1 h        0.803     0.345     0.600     1.217
   222   1 h        0.804     0.331     0.634     1.251
   223   8 o        1.608    -0.672    26.969     7.009
   224   1 h        0.805     0.322     0.660     1.276
   225   1 h        0.803     0.368     0.547     1.162
   226   8 o        1.606    -0.701    27.732     7.107
   227   1 h        0.804     0.351     0.587     1.203
   228   1 h        0.802     0.327     0.647     1.263
   229   8 o        1.607    -0.674    27.027     7.016
   230   1 h        0.804     0.353     0.582     1.198
   231   1 h        0.803     0.330     0.637     1.253
   232   8 o        1.609    -0.667    26.841     6.992
   233   1 h        0.804     0.335     0.625     1.242
   234   1 h        0.805     0.328     0.643     1.260
   235   8 o        1.608    -0.659    26.634     6.965
   236   1 h        0.804     0.329     0.640     1.256
   237   1 h        0.804     0.325     0.651     1.267
   238   8 o        1.608    -0.672    26.981     7.011
   239   1 h        0.805     0.309     0.695     1.309
   240   1 h        0.802     0.364     0.556     1.172
   241   8 o        1.607    -0.676    27.083     7.024
   242   1 h        0.805     0.322     0.659     1.275
   243   1 h        0.802     0.369     0.545     1.160
   244   8 o        1.606    -0.687    27.376     7.062
   245   1 h        0.802     0.337     0.620     1.237
   246   1 h        0.804     0.340     0.613     1.230
   247   8 o        1.607    -0.683    27.251     7.045
   248   1 h        0.804     0.348     0.594     1.210
   249   1 h        0.804     0.343     0.606     1.223
   250   8 o        1.607    -0.671    26.964     7.008
   251   1 h        0.802     0.344     0.602     1.219
   252   1 h        0.805     0.330     0.638     1.255
   253   8 o        1.609    -0.649    26.399     6.934
   254   1 h        0.805     0.325     0.650     1.267
   255   1 h        0.804     0.340     0.612     1.228
   256   8 o        1.607    -0.658    26.626     6.964
   257   1 h        0.802     0.337     0.621     1.238
   258   1 h        0.805     0.319     0.667     1.283
   259   8 o        1.609    -0.678    27.144     7.032
   260   1 h        0.805     0.336     0.622     1.239
   261   1 h        0.804     0.343     0.606     1.223
   262   8 o        1.607    -0.692    27.495     7.077
   263   1 h        0.804     0.346     0.599     1.215
   264   1 h        0.803     0.339     0.614     1.231
   265   8 o        1.605    -0.718    28.208     7.168
   266   1 h        0.803     0.332     0.633     1.250
   267   1 h        0.803     0.360     0.565     1.181
   268   8 o        1.608    -0.680    27.184     7.037
   269   1 h        0.804     0.325     0.651     1.268
   270   1 h        0.804     0.343     0.604     1.221
   271   8 o        1.609    -0.666    26.834     6.991
   272   1 h        0.804     0.354     0.579     1.196
   273   1 h        0.805     0.343     0.604     1.220
   274   8 o        1.608    -0.683    27.255     7.046
   275   1 h        0.804     0.328     0.642     1.259
   276   1 h        0.804     0.330     0.636     1.253
   277   8 o        1.606    -0.678    27.145     7.032
   278   1 h        0.802     0.353     0.582     1.199
   279   1 h        0.804     0.325     0.651     1.268
   280   8 o        1.608    -0.669    26.902     7.000
   281   1 h        0.805     0.330     0.638     1.255
   282   1 h        0.804     0.353     0.581     1.197
   283   8 o        1.607    -0.700    27.711     7.105
   284   1 h        0.804     0.326     0.648     1.265
   285   1 h        0.803     0.358     0.571     1.187
   286   8 o        1.608    -0.679    27.167     7.035
   287   1 h        0.803     0.345     0.600     1.217
   288   1 h        0.805     0.327     0.645     1.262
   289   8 o        1.610    -0.653    26.494     6.947
   290   1 h        0.805     0.335     0.626     1.242
   291   1 h        0.805     0.322     0.659     1.275
   292   8 o        1.606    -0.667    26.857     6.994
   293   1 h        0.801     0.352     0.583     1.200
   294   1 h        0.806     0.310     0.693     1.307
   295   8 o        1.607    -0.691    27.479     7.075
   296   1 h        0.804     0.319     0.666     1.282
   297   1 h        0.803     0.371     0.542     1.156
   298   8 o        1.607    -0.696    27.601     7.091
   299   1 h        0.805     0.334     0.628     1.245
   300   1 h        0.803     0.363     0.559     1.174
   301   8 o        1.608    -0.682    27.240     7.044
   302   1 h        0.805     0.318     0.669     1.284
   303   1 h        0.804     0.357     0.573     1.189
   304   8 o        1.607    -0.673    27.009     7.014
   305   1 h        0.803     0.338     0.617     1.234
   306   1 h        0.804     0.324     0.653     1.269
   307   8 o        1.606    -0.697    27.622     7.093
   308   1 h        0.803     0.366     0.551     1.167
   309   1 h        0.803     0.351     0.586     1.202
   310   8 o        1.607    -0.686    27.349     7.058
   311   1 h        0.804     0.326     0.647     1.264
   312   1 h        0.804     0.350     0.588     1.205
   313   8 o        1.606    -0.693    27.528     7.081
   314   1 h        0.803     0.363     0.559     1.175
   315   1 h        0.803     0.338     0.617     1.234
   316   8 o        1.608    -0.673    27.004     7.014
   317   1 h        0.803     0.348     0.592     1.209
   318   1 h        0.805     0.321     0.660     1.277
   319   8 o        1.610    -0.674    27.016     7.015
   320   1 h        0.805     0.338     0.618     1.235
   321   1 h        0.804     0.342     0.608     1.225
   322   8 o        1.607    -0.677    27.103     7.026
   323   1 h        0.803     0.326     0.649     1.265
   324   1 h        0.804     0.348     0.593     1.210
   325   8 o        1.609    -0.661    26.699     6.974
   326   1 h        0.805     0.320     0.663     1.279
   327   1 h        0.805     0.325     0.650     1.267
   328   8 o        1.608    -0.672    26.980     7.010
   329   1 h        0.803     0.328     0.644     1.260
   330   1 h        0.805     0.351     0.586     1.203
   331   8 o        1.609    -0.667    26.850     6.994
   332   1 h        0.805     0.337     0.619     1.236
   333   1 h        0.804     0.335     0.626     1.242
   334   8 o        1.607    -0.690    27.456     7.072
   335   1 h        0.804     0.327     0.644     1.261
   336   1 h        0.803     0.366     0.552     1.167
   337   8 o        1.606    -0.695    27.591     7.089
   338   1 h        0.803     0.351     0.587     1.204
   339   1 h        0.803     0.346     0.599     1.215
   340   8 o        1.608    -0.668    26.873     6.996
   341   1 h        0.803     0.341     0.609     1.226
   342   1 h        0.805     0.333     0.631     1.247
   343   8 o        1.609    -0.668    26.873     6.997
   344   1 h        0.805     0.332     0.632     1.248
   345   1 h        0.804     0.343     0.604     1.221
   346   8 o        1.610    -0.658    26.622     6.964
   347   1 h        0.805     0.337     0.619     1.236
   348   1 h        0.805     0.319     0.667     1.283
   349   8 o        1.607    -0.681    27.207     7.040
   350   1 h        0.804     0.336     0.623     1.240
   351   1 h        0.803     0.357     0.573     1.189
   352   8 o        1.607    -0.680    27.179     7.036
   353   1 h        0.804     0.332     0.633     1.250
   354   1 h        0.804     0.333     0.630     1.246
   355   8 o        1.606    -0.687    27.366     7.060
   356   1 h        0.806     0.316     0.676     1.291
   357   1 h        0.801     0.357     0.573     1.189
   358   8 o        1.607    -0.665    26.785     6.985
   359   1 h        0.804     0.331     0.634     1.251
   360   1 h        0.803     0.327     0.645     1.262
   361   8 o        1.608    -0.678    27.128     7.030
   362   1 h        0.805     0.336     0.623     1.240
   363   1 h        0.803     0.332     0.633     1.250
   364   8 o        1.607    -0.691    27.462     7.073
   365   1 h        0.803     0.351     0.586     1.202
   366   1 h        0.804     0.353     0.581     1.197
   367   8 o        1.613    -0.678    27.126     7.030
   368   1 h        0.805     0.350     0.587     1.204
   369   1 h        0.803     0.344     0.604     1.221
   370   8 o        1.606    -0.668    26.877     6.997
   371   1 h        0.804     0.330     0.637     1.254
   372   1 h        0.803     0.343     0.606     1.223
   373   8 o        1.607    -0.691    27.470     7.074
   374   1 h        0.804     0.334     0.628     1.245
   375   1 h        0.803     0.342     0.608     1.225
   376   8 o        1.607    -0.687    27.376     7.062
   377   1 h        0.804     0.322     0.659     1.275
   378   1 h        0.803     0.350     0.587     1.204
   379   8 o        1.606    -0.704    27.810     7.117
   380   1 h        0.803     0.356     0.574     1.190
   381   1 h        0.804     0.344     0.602     1.219
   382   8 o        1.608    -0.683    27.259     7.047
   383   1 h        0.804     0.316     0.674     1.290
   384   1 h        0.804     0.346     0.598     1.215
   385   8 o        1.606    -0.693    27.523     7.081
   386   1 h        0.804     0.325     0.649     1.266
   387   1 h        0.802     0.343     0.604     1.221
   388   8 o        1.611    -0.685    27.306     7.053
   389   1 h        0.804     0.353     0.581     1.197
   390   1 h        0.804     0.341     0.609     1.225
   391   8 o        1.609    -0.678    27.140     7.031
   392   1 h        0.804     0.338     0.617     1.234
   393   1 h        0.804     0.333     0.629     1.246
   394   8 o        1.607    -0.688    27.394     7.064
   395   1 h        0.804     0.324     0.653     1.270
   396   1 h        0.803     0.338     0.619     1.235
   397   8 o        1.608    -0.678    27.134     7.030
   398   1 h        0.802     0.361     0.564     1.179
   399   1 h        0.805     0.309     0.693     1.308
   400   8 o        1.608    -0.671    26.958     7.007
   401   1 h        0.803     0.345     0.601     1.218
   402   1 h        0.804     0.331     0.635     1.251
   403   8 o        1.609    -0.677    27.118     7.028
   404   1 h        0.804     0.350     0.587     1.204
   405   1 h        0.805     0.310     0.693     1.308
   406   8 o        1.608    -0.666    26.818     6.989
   407   1 h        0.804     0.361     0.564     1.179
   408   1 h        0.804     0.330     0.638     1.255
   409   8 o        1.611    -0.686    27.349     7.058
   410   1 h        0.805     0.338     0.616     1.233
   411   1 h        0.803     0.351     0.587     1.204
   412   8 o        1.608    -0.693    27.539     7.083
   413   1 h        0.804     0.349     0.591     1.207
   414   1 h        0.803     0.350     0.589     1.206
   415   8 o        1.608    -0.637    26.090     6.894
   416   1 h        0.803     0.346     0.598     1.214
   417   1 h        0.805     0.328     0.642     1.258
   418   8 o        1.607    -0.680    27.189     7.037
   419   1 h        0.802     0.366     0.552     1.168
   420   1 h        0.805     0.333     0.631     1.247
   421   8 o        1.608    -0.675    27.061     7.021
   422   1 h        0.803     0.351     0.585     1.202
   423   1 h        0.804     0.324     0.654     1.270
   424   8 o        1.605    -0.693    27.521     7.080
   425   1 h        0.803     0.323     0.655     1.271
   426   1 h        0.802     0.361     0.564     1.180
   427   8 o        1.605    -0.696    27.611     7.092
   428   1 h        0.803     0.331     0.636     1.253
   429   1 h        0.802     0.332     0.632     1.249
   430   8 o        1.609    -0.683    27.268     7.048
   431   1 h        0.803     0.364     0.556     1.172
   432   1 h        0.805     0.323     0.656     1.272
   433   8 o        1.607    -0.691    27.474     7.074
   434   1 h        0.804     0.332     0.632     1.249
   435   1 h        0.803     0.349     0.591     1.208
   436   8 o        1.606    -0.671    26.955     7.007
   437   1 h        0.804     0.325     0.651     1.267
   438   1 h        0.802     0.339     0.615     1.232
   439   8 o        1.608    -0.670    26.917     7.002
   440   1 h        0.803     0.349     0.591     1.208
   441   1 h        0.805     0.329     0.641     1.257
   442   8 o        1.608    -0.686    27.330     7.056
   443   1 h        0.803     0.353     0.583     1.199
   444   1 h        0.804     0.356     0.575     1.191
   445   8 o        1.607    -0.677    27.097     7.026
   446   1 h        0.803     0.336     0.623     1.240
   447   1 h        0.804     0.335     0.625     1.242
   448   8 o        1.607    -0.658    26.621     6.964
   449   1 h        0.802     0.353     0.582     1.199
   450   1 h        0.806     0.318     0.669     1.284
   451   8 o        1.607    -0.654    26.512     6.949
   452   1 h        0.802     0.335     0.624     1.241
   453   1 h        0.805     0.316     0.674     1.290
   454   8 o        1.606    -0.705    27.843     7.122
   455   1 h        0.804     0.356     0.573     1.190
   456   1 h        0.803     0.342     0.607     1.223
   457   8 o        1.608    -0.669    26.891     6.999
   458   1 h        0.804     0.345     0.599     1.216
   459   1 h        0.804     0.353     0.581     1.198
   460   8 o        1.610    -0.659    26.638     6.966
   461   1 h        0.804     0.355     0.578     1.194
   462   1 h        0.805     0.313     0.684     1.299
   463   8 o        1.608    -0.671    26.942     7.005
   464   1 h        0.805     0.316     0.675     1.290
   465   1 h        0.803     0.343     0.606     1.223
   466   8 o        1.609    -0.663    26.744     6.980
   467   1 h        0.804     0.348     0.594     1.211
   468   1 h        0.805     0.323     0.655     1.271
   469   8 o        1.608    -0.680    27.173     7.035
   470   1 h        0.806     0.312     0.685     1.300
   471   1 h        0.802     0.352     0.584     1.201
   472   8 o        1.609    -0.669    26.900     7.000
   473   1 h        0.805     0.327     0.646     1.262
   474   1 h        0.804     0.340     0.612     1.229
   475   8 o        1.605    -0.690    27.443     7.070
   476   1 h        0.803     0.333     0.630     1.247
   477   1 h        0.803     0.347     0.595     1.211
   478   8 o        1.610    -0.637    26.089     6.894
   479   1 h        0.805     0.330     0.639     1.255
   480   1 h        0.805     0.331     0.635     1.252
   481   8 o        1.609    -0.662    26.720     6.977
   482   1 h        0.804     0.330     0.638     1.255
   483   1 h        0.804     0.340     0.612     1.229
   484   8 o        1.606    -0.670    26.939     7.005
   485   1 h        0.805     0.316     0.675     1.291
   486   1 h        0.801     0.355     0.577     1.194
   487   8 o        1.608    -0.674    27.037     7.018
   488   1 h        0.805     0.318     0.668     1.284
   489   1 h        0.803     0.347     0.596     1.213
   490   8 o        1.607    -0.694    27.542     7.083
   491   1 h        0.803     0.339     0.616     1.233
   492   1 h        0.803     0.363     0.558     1.174
   493   8 o        1.606    -0.705    27.846     7.122
   494   1 h        0.802     0.336     0.623     1.240
   495   1 h        0.804     0.361     0.563     1.178
   496   8 o        1.610    -0.666    26.821     6.990
   497   1 h        0.805     0.339     0.615     1.232
   498   1 h        0.805     0.327     0.646     1.262
   499   8 o        1.607    -0.695    27.581     7.088
   500   1 h        0.805     0.329     0.641     1.257
   501   1 h        0.802     0.358     0.570     1.186
   502   8 o        1.609    -0.646    26.322     6.924
   503   1 h        0.805     0.315     0.678     1.294
   504   1 h        0.803     0.345     0.601     1.218
   505   8 o        1.608    -0.689    27.417     7.067
   506   1 h        0.804     0.328     0.642     1.259
   507   1 h        0.804     0.341     0.610     1.226
   508   8 o        1.609    -0.677    27.114     7.028
   509   1 h        0.805     0.346     0.597     1.214
   510   1 h        0.804     0.340     0.613     1.230
   511   8 o        1.608    -0.692    27.492     7.077
   512   1 h        0.804     0.355     0.576     1.192
   513   1 h        0.804     0.328     0.642     1.259
   514   8 o        1.610    -0.655    26.545     6.954
   515   1 h        0.805     0.329     0.640     1.256
   516   1 h        0.805     0.335     0.624     1.241
   517   8 o        1.608    -0.674    27.028     7.017
   518   1 h        0.803     0.346     0.598     1.215
   519   1 h        0.805     0.329     0.639     1.255
   520   8 o        1.606    -0.690    27.451     7.071
   521   1 h        0.803     0.360     0.566     1.182
   522   1 h        0.803     0.318     0.668     1.284
   523   8 o        1.607    -0.685    27.319     7.054
   524   1 h        0.803     0.354     0.578     1.194
   525   1 h        0.804     0.327     0.646     1.263
   526   8 o        1.610    -0.656    26.578     6.958
   527   1 h        0.805     0.321     0.662     1.278
   528   1 h        0.805     0.340     0.611     1.228
   529   8 o        1.606    -0.684    27.280     7.049
   530   1 h        0.805     0.322     0.659     1.275
   531   1 h        0.802     0.354     0.579     1.196
   532   8 o        1.608    -0.679    27.154     7.033
   533   1 h        0.803     0.367     0.549     1.164
   534   1 h        0.803     0.329     0.639     1.256
   535   8 o        1.607    -0.702    27.777     7.113
   536   1 h        0.803     0.351     0.585     1.202
   537   1 h        0.804     0.330     0.639     1.255
   538   8 o        1.609    -0.674    27.024     7.016
   539   1 h        0.803     0.364     0.557     1.173
   540   1 h        0.805     0.315     0.678     1.293
   541   8 o        1.608    -0.691    27.460     7.073
   542   1 h        0.804     0.336     0.622     1.238
   543   1 h        0.804     0.342     0.608     1.225
   544   8 o        1.604    -0.684    27.289     7.050
   545   1 h        0.801     0.355     0.578     1.195
   546   1 h        0.806     0.314     0.681     1.297
   547   8 o        1.606    -0.697    27.629     7.094
   548   1 h        0.802     0.364     0.557     1.173
   549   1 h        0.804     0.319     0.665     1.281
   550   8 o        1.608    -0.685    27.312     7.053
   551   1 h        0.804     0.342     0.607     1.224
   552   1 h        0.804     0.356     0.575     1.191
   553   8 o        1.608    -0.665    26.789     6.986
   554   1 h        0.803     0.338     0.618     1.235
   555   1 h        0.805     0.329     0.639     1.256
   556   8 o        1.605    -0.706    27.881     7.126
   557   1 h        0.803     0.340     0.613     1.230
   558   1 h        0.802     0.368     0.549     1.164
   559   8 o        1.605    -0.690    27.446     7.071
   560   1 h        0.805     0.310     0.692     1.307
   561   1 h        0.802     0.373     0.539     1.153
   562   8 o        1.600    -0.716    28.137     7.159
   563   1 h        0.804     0.348     0.593     1.209
   564   1 h        0.803     0.358     0.571     1.187
   565   8 o        1.609    -0.666    26.827     6.991
   566   1 h        0.804     0.333     0.629     1.246
   567   1 h        0.805     0.347     0.595     1.211
   568   8 o        1.609    -0.668    26.886     6.998
   569   1 h        0.805     0.316     0.675     1.290
   570   1 h        0.804     0.366     0.553     1.168
   571   8 o        1.606    -0.711    28.011     7.143
   572   1 h        0.804     0.361     0.564     1.179
   573   1 h        0.803     0.361     0.564     1.180
   574   8 o        1.608    -0.688    27.388     7.063
   575   1 h        0.805     0.326     0.648     1.264
   576   1 h        0.803     0.363     0.558     1.173
   577   8 o        1.609    -0.680    27.185     7.037
   578   1 h        0.805     0.327     0.644     1.261
   579   1 h        0.804     0.343     0.605     1.222
   580   8 o        1.609    -0.682    27.240     7.044
   581   1 h        0.802     0.343     0.606     1.223
   582   1 h        0.805     0.334     0.627     1.244
   583   8 o        1.609    -0.671    26.946     7.006
   584   1 h        0.804     0.334     0.626     1.243
   585   1 h        0.805     0.319     0.665     1.281
   586   8 o        1.607    -0.685    27.329     7.055
   587   1 h        0.805     0.333     0.628     1.245
   588   1 h        0.802     0.340     0.613     1.230
   589   8 o        1.606    -0.706    27.859     7.124
   590   1 h        0.804     0.343     0.606     1.223
   591   1 h        0.803     0.350     0.589     1.206
   592   8 o        1.609    -0.669    26.905     7.001
   593   1 h        0.805     0.324     0.653     1.269
   594   1 h        0.804     0.368     0.548     1.163
   595   8 o        1.604    -0.693    27.517     7.080
   596   1 h        0.804     0.318     0.669     1.284
   597   1 h        0.801     0.360     0.566     1.182
   598   8 o        1.606    -0.691    27.474     7.074
   599   1 h        0.802     0.365     0.555     1.170
   600   1 h        0.804     0.337     0.619     1.236
   601   8 o        1.609    -0.658    26.623     6.964
   602   1 h        0.804     0.343     0.605     1.222
   603   1 h        0.804     0.334     0.626     1.243
   604   8 o        1.608    -0.642    26.205     6.909
   605   1 h        0.803     0.352     0.583     1.199
   606   1 h        0.805     0.316     0.674     1.290
   607   8 o        1.608    -0.657    26.600     6.961
   608   1 h        0.805     0.330     0.637     1.253
   609   1 h        0.803     0.337     0.619     1.236
   610   8 o        1.608    -0.700    27.715     7.105
   611   1 h        0.804     0.336     0.623     1.239
   612   1 h        0.803     0.349     0.591     1.208
   613   8 o        1.609    -0.691    27.466     7.073
   614   1 h        0.805     0.326     0.647     1.264
   615   1 h        0.804     0.347     0.596     1.213
   616   8 o        1.607    -0.697    27.619     7.093
   617   1 h        0.803     0.358     0.570     1.186
   618   1 h        0.804     0.326     0.647     1.264
   619   8 o        1.608    -0.669    26.910     7.001
   620   1 h        0.804     0.342     0.608     1.224
   621   1 h        0.804     0.332     0.632     1.249
   622   8 o        1.608    -0.674    27.020     7.016
   623   1 h        0.804     0.344     0.602     1.218
   624   1 h        0.804     0.336     0.622     1.239
   625   8 o        1.608    -0.689    27.418     7.067
   626   1 h        0.804     0.347     0.595     1.212
   627   1 h        0.804     0.329     0.641     1.258
   628   8 o        1.609    -0.673    27.000     7.013
   629   1 h        0.804     0.350     0.588     1.204
   630   1 h        0.804     0.357     0.572     1.189
   631   8 o        1.608    -0.664    26.771     6.983
   632   1 h        0.806     0.320     0.663     1.279
   633   1 h        0.802     0.355     0.577     1.194
   634   8 o        1.605    -0.666    26.828     6.991
   635   1 h        0.806     0.315     0.677     1.292
   636   1 h        0.801     0.352     0.585     1.201
   637   8 o        1.610    -0.642    26.201     6.909
   638   1 h        0.805     0.336     0.621     1.238
   639   1 h        0.805     0.328     0.643     1.259
   640   8 o        1.607    -0.680    27.182     7.036
   641   1 h        0.804     0.347     0.595     1.211
   642   1 h        0.803     0.353     0.582     1.199
   643   8 o        1.606    -0.690    27.458     7.072
   644   1 h        0.804     0.324     0.653     1.269
   645   1 h        0.802     0.362     0.562     1.178
   646   8 o        1.606    -0.696    27.613     7.092
   647   1 h        0.803     0.333     0.629     1.246
   648   1 h        0.803     0.340     0.613     1.230
   649   8 o        1.609    -0.668    26.874     6.997
   650   1 h        0.804     0.322     0.659     1.275
   651   1 h        0.805     0.339     0.614     1.231
   652   8 o        1.609    -0.674    27.033     7.017
   653   1 h        0.805     0.335     0.624     1.240
   654   1 h        0.804     0.328     0.641     1.258
   655   8 o        1.608    -0.668    26.875     6.997
   656   1 h        0.804     0.338     0.618     1.235
   657   1 h        0.804     0.340     0.612     1.229
   658   8 o        1.609    -0.673    26.997     7.013
   659   1 h        0.805     0.329     0.639     1.256
   660   1 h        0.804     0.350     0.589     1.206
   661   8 o        1.609    -0.692    27.508     7.079
   662   1 h        0.804     0.341     0.611     1.228
   663   1 h        0.805     0.342     0.607     1.224
   664   8 o        1.609    -0.667    26.855     6.994
   665   1 h        0.804     0.350     0.588     1.205
   666   1 h        0.805     0.319     0.668     1.283
   667   8 o        1.608    -0.689    27.425     7.068
   668   1 h        0.804     0.327     0.645     1.262
   669   1 h        0.803     0.361     0.562     1.178
   670   8 o        1.608    -0.675    27.054     7.020
   671   1 h        0.803     0.355     0.577     1.193
   672   1 h        0.804     0.328     0.642     1.259
   673   8 o        1.607    -0.661    26.707     6.975
   674   1 h        0.803     0.347     0.595     1.212
   675   1 h        0.804     0.325     0.650     1.266
   676   8 o        1.609    -0.674    27.022     7.016
   677   1 h        0.804     0.347     0.596     1.213
   678   1 h        0.805     0.324     0.652     1.269
   679   8 o        1.605    -0.700    27.725     7.106
   680   1 h        0.802     0.331     0.636     1.252
   681   1 h        0.803     0.342     0.607     1.224
   682   8 o        1.608    -0.684    27.278     7.049
   683   1 h        0.804     0.354     0.579     1.195
   684   1 h        0.804     0.350     0.589     1.206
   685   8 o        1.607    -0.689    27.433     7.069
   686   1 h        0.804     0.330     0.638     1.255
   687   1 h        0.803     0.350     0.589     1.206
   688   8 o        1.610    -0.643    26.226     6.912
   689   1 h        0.804     0.340     0.613     1.230
   690   1 h        0.805     0.328     0.644     1.260
   691   8 o        1.609    -0.676    27.072     7.022
   692   1 h        0.805     0.336     0.621     1.238
   693   1 h        0.803     0.340     0.613     1.229
   694   8 o        1.607    -0.671    26.958     7.007
   695   1 h        0.805     0.319     0.666     1.281
   696   1 h        0.802     0.353     0.581     1.198
   697   8 o        1.607    -0.671    26.964     7.008
   698   1 h        0.802     0.337     0.620     1.237
   699   1 h        0.805     0.326     0.647     1.263
   700   8 o        1.605    -0.707    27.905     7.129
   701   1 h        0.802     0.343     0.605     1.222
   702   1 h        0.803     0.326     0.648     1.264
   703   8 o        1.608    -0.674    27.020     7.016
   704   1 h        0.805     0.338     0.618     1.235
   705   1 h        0.803     0.343     0.604     1.221
   706   8 o        1.607    -0.690    27.451     7.071
   707   1 h        0.804     0.326     0.648     1.265
   708   1 h        0.803     0.356     0.575     1.191
   709   8 o        1.608    -0.663    26.754     6.981
   710   1 h        0.803     0.337     0.619     1.236
   711   1 h        0.804     0.329     0.639     1.256
   712   8 o        1.606    -0.693    27.534     7.082
   713   1 h        0.802     0.365     0.555     1.170
   714   1 h        0.804     0.337     0.620     1.237
   715   8 o        1.607    -0.723    28.330     7.184
   716   1 h        0.803     0.348     0.592     1.209
   717   1 h        0.804     0.334     0.628     1.245
   718   8 o        1.608    -0.680    27.196     7.038
   719   1 h        0.804     0.335     0.624     1.241
   720   1 h        0.803     0.354     0.578     1.194
   721   8 o        1.608    -0.680    27.178     7.036
   722   1 h        0.805     0.326     0.647     1.263
   723   1 h        0.803     0.335     0.625     1.242
   724   8 o        1.604    -0.692    27.497     7.077
   725   1 h        0.802     0.358     0.570     1.186
   726   1 h        0.802     0.331     0.636     1.253
   727   8 o        1.607    -0.665    26.787     6.985
   728   1 h        0.806     0.313     0.682     1.297
   729   1 h        0.801     0.358     0.569     1.185
   730   8 o        1.609    -0.681    27.201     7.039
   731   1 h        0.805     0.325     0.650     1.266
   732   1 h        0.804     0.340     0.612     1.228
   733   8 o        1.608    -0.683    27.273     7.048
   734   1 h        0.805     0.326     0.648     1.264
   735   1 h        0.803     0.350     0.588     1.204
   736   8 o        1.609    -0.661    26.692     6.973
   737   1 h        0.803     0.352     0.583     1.199
   738   1 h        0.806     0.318     0.670     1.286
   739   8 o        1.609    -0.682    27.225     7.042
   740   1 h        0.805     0.332     0.632     1.249
   741   1 h        0.804     0.344     0.602     1.219
   742   8 o        1.609    -0.661    26.692     6.973
   743   1 h        0.804     0.343     0.606     1.223
   744   1 h        0.805     0.330     0.639     1.255
   745   8 o        1.607    -0.672    26.979     7.010
   746   1 h        0.803     0.342     0.609     1.225
   747   1 h        0.804     0.336     0.622     1.239
   748   8 o        1.606    -0.692    27.507     7.078
   749   1 h        0.803     0.336     0.623     1.240
   750   1 h        0.803     0.368     0.549     1.164
   751   8 o        1.609    -0.659    26.633     6.965
   752   1 h        0.804     0.327     0.644     1.261
   753   1 h        0.805     0.325     0.650     1.266
   754   8 o        1.610    -0.657    26.593     6.960
   755   1 h        0.805     0.319     0.666     1.282
   756   1 h        0.805     0.327     0.646     1.262

 Mol. C6AA /au·bohr⁶  :    2899686.695247
 Mol. C8AA /au·bohr⁸  :   52614908.605610
 Mol. α(0) /au        :       2393.163663


Wiberg/Mayer (AO) data.
largest (>0.10) Wiberg bond orders for each atom

 ---------------------------------------------------------------------------
     #   Z sym  total        # sym  WBO       # sym  WBO       # sym  WBO
 ---------------------------------------------------------------------------
     1   8 o    1.828 --     3 h    0.851     2 h    0.831
     2   1 h    0.883 --     1 o    0.831
     3   1 h    0.887 --     1 o    0.851
     4   8 o    1.888 --     5 h    0.840     6 h    0.801
     5   1 h    0.893 --     4 o    0.840
     6   1 h    0.873 --     4 o    0.801
     7   8 o    1.830 --     8 h    0.867     9 h    0.824
     8   1 h    0.896 --     7 o    0.867
     9   1 h    0.884 --     7 o    0.824
    10   8 o    1.858 --    12 h    0.867    11 h    0.807
    11   1 h    0.876 --    10 o    0.807
    12   1 h    0.890 --    10 o    0.867
    13   8 o    1.807 --    14 h    0.830    15 h    0.826
    14   1 h    0.884 --    13 o    0.830
    15   1 h    0.887 --    13 o    0.826
    16   8 o    1.859 --    18 h    0.848    17 h    0.815
    17   1 h    0.869 --    16 o    0.815
    18   1 h    0.883 --    16 o    0.848
    19   8 o    1.812 --    20 h    0.844    21 h    0.813
    20   1 h    0.894 --    19 o    0.844
    21   1 h    0.883 --    19 o    0.813
    22   8 o    1.865 --    24 h    0.831    23 h    0.794
    23   1 h    0.876 --    22 o    0.794
    24   1 h    0.886 --    22 o    0.831
    25   8 o    1.851 --    27 h    0.815    26 h    0.807
    26   1 h    0.882 --    25 o    0.807
    27   1 h    0.884 --    25 o    0.815
    28   8 o    1.847 --    29 h    0.853    30 h    0.768
    29   1 h    0.891 --    28 o    0.853
    30   1 h    0.871 --    28 o    0.768
    31   8 o    1.874 --    32 h    0.832    33 h    0.814
    32   1 h    0.887 --    31 o    0.832
    33   1 h    0.880 --    31 o    0.814
    34   8 o    1.853 --    35 h    0.846    36 h    0.830
    35   1 h    0.893 --    34 o    0.846
    36   1 h    0.875 --    34 o    0.830
    37   8 o    1.873 --    38 h    0.821    39 h    0.814
    38   1 h    0.879 --    37 o    0.821
    39   1 h    0.878 --    37 o    0.814
    40   8 o    1.862 --    41 h    0.814    42 h    0.813
    41   1 h    0.882 --    40 o    0.814
    42   1 h    0.878 --    40 o    0.813
    43   8 o    1.842 --    45 h    0.822    44 h    0.800
    44   1 h    0.877 --    43 o    0.800
    45   1 h    0.882 --    43 o    0.822
    46   8 o    1.825 --    47 h    0.842    48 h    0.808
    47   1 h    0.888 --    46 o    0.842
    48   1 h    0.877 --    46 o    0.808
    49   8 o    1.858 --    50 h    0.847    51 h    0.818
    50   1 h    0.882 --    49 o    0.847
    51   1 h    0.881 --    49 o    0.818
    52   8 o    1.849 --    53 h    0.850    54 h    0.848
    53   1 h    0.884 --    52 o    0.850
    54   1 h    0.886 --    52 o    0.848
    55   8 o    1.844 --    57 h    0.839    56 h    0.814
    56   1 h    0.880 --    55 o    0.814
    57   1 h    0.888 --    55 o    0.839
    58   8 o    1.850 --    60 h    0.825    59 h    0.797
    59   1 h    0.871 --    58 o    0.797
    60   1 h    0.889 --    58 o    0.825
    61   8 o    1.844 --    63 h    0.842    62 h    0.828
    62   1 h    0.885 --    61 o    0.828
    63   1 h    0.884 --    61 o    0.842
    64   8 o    1.852 --    65 h    0.821    66 h    0.775
    65   1 h    0.879 --    64 o    0.821
    66   1 h    0.869 --    64 o    0.775
    67   8 o    1.864 --    69 h    0.845    68 h    0.787   171 h    0.101
    68   1 h    0.879 --    67 o    0.787
    69   1 h    0.888 --    67 o    0.845
    70   8 o    1.885 --    71 h    0.842    72 h    0.817
    71   1 h    0.888 --    70 o    0.842
    72   1 h    0.872 --    70 o    0.817
    73   8 o    1.835 --    75 h    0.848    74 h    0.824
    74   1 h    0.883 --    73 o    0.824
    75   1 h    0.885 --    73 o    0.848
    76   8 o    1.855 --    78 h    0.826    77 h    0.781
    77   1 h    0.868 --    76 o    0.781
    78   1 h    0.888 --    76 o    0.826
    79   8 o    1.867 --    81 h    0.814    80 h    0.798
    80   1 h    0.870 --    79 o    0.798
    81   1 h    0.879 --    79 o    0.814
    82   8 o    1.877 --    84 h    0.823    83 h    0.809
    83   1 h    0.874 --    82 o    0.809
    84   1 h    0.880 --    82 o    0.823
    85   8 o    1.832 --    87 h    0.845    86 h    0.819
    86   1 h    0.885 --    85 o    0.819
    87   1 h    0.893 --    85 o    0.845
    88   8 o    1.849 --    89 h    0.821    90 h    0.819
    89   1 h    0.884 --    88 o    0.821
    90   1 h    0.880 --    88 o    0.819
    91   8 o    1.820 --    93 h    0.861    92 h    0.820
    92   1 h    0.874 --    91 o    0.820
    93   1 h    0.891 --    91 o    0.861
    94   8 o    1.844 --    95 h    0.804    96 h    0.782
    95   1 h    0.877 --    94 o    0.804
    96   1 h    0.870 --    94 o    0.782
    97   8 o    1.865 --    98 h    0.835    99 h    0.797
    98   1 h    0.875 --    97 o    0.835
    99   1 h    0.875 --    97 o    0.797
   100   8 o    1.854 --   102 h    0.840   101 h    0.819
   101   1 h    0.884 --   100 o    0.819
   102   1 h    0.881 --   100 o    0.840
   103   8 o    1.895 --   104 h    0.803   105 h    0.803
   104   1 h    0.874 --   103 o    0.803
   105   1 h    0.874 --   103 o    0.803
   106   8 o    1.833 --   107 h    0.824   108 h    0.799
   107   1 h    0.885 --   106 o    0.824
   108   1 h    0.883 --   106 o    0.799
   109   8 o    1.809 --   110 h    0.849   111 h    0.789
   110   1 h    0.893 --   109 o    0.849
   111   1 h    0.871 --   109 o    0.789
   112   8 o    1.892 --   114 h    0.830   113 h    0.820
   113   1 h    0.875 --   112 o    0.820
   114   1 h    0.888 --   112 o    0.830
   115   8 o    1.812 --   116 h    0.881   117 h    0.835
   116   1 h    0.897 --   115 o    0.881
   117   1 h    0.882 --   115 o    0.835
   118   8 o    1.873 --   119 h    0.833   120 h    0.814
   119   1 h    0.895 --   118 o    0.833
   120   1 h    0.877 --   118 o    0.814
   121   8 o    1.872 --   123 h    0.855   122 h    0.806
   122   1 h    0.885 --   121 o    0.806
   123   1 h    0.888 --   121 o    0.855
   124   8 o    1.796 --   126 h    0.835   125 h    0.813
   125   1 h    0.883 --   124 o    0.813
   126   1 h    0.887 --   124 o    0.835
   127   8 o    1.816 --   129 h    0.902   128 h    0.807
   128   1 h    0.879 --   127 o    0.807
   129   1 h    0.905 --   127 o    0.902
   130   8 o    1.865 --   132 h    0.808   131 h    0.807
   131   1 h    0.876 --   130 o    0.807
   132   1 h    0.874 --   130 o    0.808
   133   8 o    1.871 --   135 h    0.832   134 h    0.806
   134   1 h    0.869 --   133 o    0.806
   135   1 h    0.893 --   133 o    0.832
   136   8 o    1.850 --   138 h    0.836   137 h    0.823
   137   1 h    0.886 --   136 o    0.823
   138   1 h    0.886 --   136 o    0.836
   139   8 o    1.842 --   140 h    0.884   141 h    0.777
   140   1 h    0.905 --   139 o    0.884
   141   1 h    0.864 --   139 o    0.777
   142   8 o    1.827 --   144 h    0.892   143 h    0.812
   143   1 h    0.874 --   142 o    0.812
   144   1 h    0.900 --   142 o    0.892
   145   8 o    1.828 --   146 h    0.892   147 h    0.808
   146   1 h    0.900 --   145 o    0.892
   147   1 h    0.873 --   145 o    0.808
   148   8 o    1.851 --   149 h    0.820   150 h    0.814
   149   1 h    0.875 --   148 o    0.820
   150   1 h    0.877 --   148 o    0.814
   151   8 o    1.872 --   153 h    0.829   152 h    0.828
   152   1 h    0.882 --   151 o    0.828
   153   1 h    0.891 --   151 o    0.829
   154   8 o    1.811 --   155 h    0.843   156 h    0.831
   155   1 h    0.890 --   154 o    0.843
   156   1 h    0.885 --   154 o    0.831
   157   8 o    1.865 --   159 h    0.827   158 h    0.815
   158   1 h    0.878 --   157 o    0.815
   159   1 h    0.890 --   157 o    0.827
   160   8 o    1.861 --   162 h    0.839   161 h    0.830
   161   1 h    0.879 --   160 o    0.830
   162   1 h    0.888 --   160 o    0.839
   163   8 o    1.869 --   164 h    0.877   165 h    0.816
   164   1 h    0.901 --   163 o    0.877
   165   1 h    0.874 --   163 o    0.816
   166   8 o    1.885 --   167 h    0.809   168 h    0.797
   167   1 h    0.877 --   166 o    0.809
   168   1 h    0.872 --   166 o    0.797
   169   8 o    1.835 --   170 h    0.846   171 h    0.752
   170   1 h    0.891 --   169 o    0.846
   171   1 h    0.869 --   169 o    0.752    67 o    0.101
   172   8 o    1.830 --   174 h    0.851   173 h    0.840
   173   1 h    0.876 --   172 o    0.840
   174   1 h    0.888 --   172 o    0.851
   175   8 o    1.834 --   176 h    0.821   177 h    0.818
   176   1 h    0.884 --   175 o    0.821
   177   1 h    0.883 --   175 o    0.818
   178   8 o    1.864 --   180 h    0.834   179 h    0.832   563 h    0.107
   179   1 h    0.880 --   178 o    0.832
   180   1 h    0.884 --   178 o    0.834
   181   8 o    1.829 --   182 h    0.836   183 h    0.809
   182   1 h    0.877 --   181 o    0.836
   183   1 h    0.882 --   181 o    0.809
   184   8 o    1.821 --   185 h    0.852   186 h    0.801
   185   1 h    0.891 --   184 o    0.852
   186   1 h    0.868 --   184 o    0.801
   187   8 o    1.777 --   188 h    0.835   189 h    0.819
   188   1 h    0.888 --   187 o    0.835
   189   1 h    0.889 --   187 o    0.819
   190   8 o    1.843 --   192 h    0.827   191 h    0.815
   191   1 h    0.879 --   190 o    0.815
   192   1 h    0.895 --   190 o    0.827
   193   8 o    1.881 --   194 h    0.835   195 h    0.791
   194   1 h    0.888 --   193 o    0.835
   195   1 h    0.874 --   193 o    0.791
   196   8 o    1.830 --   197 h    0.871   198 h    0.763
   197   1 h    0.898 --   196 o    0.871
   198   1 h    0.861 --   196 o    0.763
   199   8 o    1.829 --   201 h    0.820   200 h    0.795
   200   1 h    0.878 --   199 o    0.795
   201   1 h    0.874 --   199 o    0.820
   202   8 o    1.818 --   204 h    0.856   203 h    0.848
   203   1 h    0.880 --   202 o    0.848
   204   1 h    0.899 --   202 o    0.856
   205   8 o    1.864 --   207 h    0.832   206 h    0.814
   206   1 h    0.881 --   205 o    0.814
   207   1 h    0.888 --   205 o    0.832
   208   8 o    1.856 --   210 h    0.859   209 h    0.800
   209   1 h    0.877 --   208 o    0.800
   210   1 h    0.898 --   208 o    0.859
   211   8 o    1.835 --   213 h    0.834   212 h    0.828
   212   1 h    0.879 --   211 o    0.828
   213   1 h    0.878 --   211 o    0.834
   214   8 o    1.852 --   215 h    0.822   216 h    0.821
   215   1 h    0.875 --   214 o    0.822
   216   1 h    0.879 --   214 o    0.821
   217   8 o    1.838 --   218 h    0.842   219 h    0.821
   218   1 h    0.883 --   217 o    0.842
   219   1 h    0.893 --   217 o    0.821
   220   8 o    1.870 --   222 h    0.838   221 h    0.803
   221   1 h    0.881 --   220 o    0.803
   222   1 h    0.890 --   220 o    0.838
   223   8 o    1.847 --   224 h    0.877   225 h    0.789
   224   1 h    0.896 --   223 o    0.877
   225   1 h    0.864 --   223 o    0.789
   226   8 o    1.826 --   228 h    0.815   227 h    0.815
   227   1 h    0.877 --   226 o    0.815
   228   1 h    0.893 --   226 o    0.815
   229   8 o    1.872 --   230 h    0.821   231 h    0.816
   230   1 h    0.875 --   229 o    0.821
   231   1 h    0.891 --   229 o    0.816
   232   8 o    1.823 --   234 h    0.862   233 h    0.855
   233   1 h    0.888 --   232 o    0.855
   234   1 h    0.893 --   232 o    0.862
   235   8 o    1.859 --   236 h    0.838   237 h    0.833
   236   1 h    0.892 --   235 o    0.838
   237   1 h    0.894 --   235 o    0.833
   238   8 o    1.839 --   239 h    0.894   240 h    0.793
   239   1 h    0.905 --   238 o    0.894
   240   1 h    0.867 --   238 o    0.793
   241   8 o    1.867 --   242 h    0.872   243 h    0.781
   242   1 h    0.896 --   241 o    0.872
   243   1 h    0.864 --   241 o    0.781
   244   8 o    1.826 --   246 h    0.836   245 h    0.819
   245   1 h    0.886 --   244 o    0.819
   246   1 h    0.884 --   244 o    0.836
   247   8 o    1.867 --   249 h    0.825   248 h    0.821
   248   1 h    0.879 --   247 o    0.821
   249   1 h    0.883 --   247 o    0.825
   250   8 o    1.849 --   252 h    0.865   251 h    0.798
   251   1 h    0.881 --   250 o    0.798
   252   1 h    0.891 --   250 o    0.865
   253   8 o    1.863 --   254 h    0.873   255 h    0.827
   254   1 h    0.894 --   253 o    0.873
   255   1 h    0.884 --   253 o    0.827
   256   8 o    1.849 --   258 h    0.891   257 h    0.805
   257   1 h    0.887 --   256 o    0.805
   258   1 h    0.898 --   256 o    0.891
   259   8 o    1.829 --   260 h    0.860   261 h    0.838
   260   1 h    0.887 --   259 o    0.860
   261   1 h    0.883 --   259 o    0.838
   262   8 o    1.829 --   263 h    0.828   264 h    0.821
   263   1 h    0.880 --   262 o    0.828
   264   1 h    0.885 --   262 o    0.821
   265   8 o    1.828 --   266 h    0.822   267 h    0.779
   266   1 h    0.890 --   265 o    0.822
   267   1 h    0.870 --   265 o    0.779
   268   8 o    1.817 --   269 h    0.852   270 h    0.831
   269   1 h    0.895 --   268 o    0.852
   270   1 h    0.882 --   268 o    0.831
   271   8 o    1.860 --   273 h    0.850   272 h    0.830
   272   1 h    0.875 --   271 o    0.830
   273   1 h    0.882 --   271 o    0.850
   274   8 o    1.795 --   276 h    0.843   275 h    0.836
   275   1 h    0.892 --   274 o    0.836
   276   1 h    0.891 --   274 o    0.843
   277   8 o    1.868 --   279 h    0.836   278 h    0.798
   278   1 h    0.876 --   277 o    0.798
   279   1 h    0.895 --   277 o    0.836
   280   8 o    1.857 --   281 h    0.857   282 h    0.810
   281   1 h    0.891 --   280 o    0.857
   282   1 h    0.875 --   280 o    0.810
   283   8 o    1.836 --   284 h    0.849   285 h    0.791
   284   1 h    0.894 --   283 o    0.849
   285   1 h    0.872 --   283 o    0.791
   286   8 o    1.817 --   288 h    0.865   287 h    0.826
   287   1 h    0.881 --   286 o    0.826
   288   1 h    0.893 --   286 o    0.865
   289   8 o    1.815 --   291 h    0.883   290 h    0.853
   290   1 h    0.888 --   289 o    0.853
   291   1 h    0.896 --   289 o    0.883
   292   8 o    1.848 --   294 h    0.887   293 h    0.785
   293   1 h    0.876 --   292 o    0.785
   294   1 h    0.904 --   292 o    0.887
   295   8 o    1.834 --   296 h    0.868   297 h    0.790
   296   1 h    0.898 --   295 o    0.868
   297   1 h    0.862 --   295 o    0.790
   298   8 o    1.848 --   299 h    0.848   300 h    0.763
   299   1 h    0.889 --   298 o    0.848
   300   1 h    0.868 --   298 o    0.763
   301   8 o    1.829 --   302 h    0.856   303 h    0.803
   302   1 h    0.899 --   301 o    0.856
   303   1 h    0.873 --   301 o    0.803
   304   8 o    1.845 --   306 h    0.850   305 h    0.821
   305   1 h    0.886 --   304 o    0.821
   306   1 h    0.895 --   304 o    0.850
   307   8 o    1.876 --   308 h    0.804   309 h    0.801
   308   1 h    0.866 --   307 o    0.804
   309   1 h    0.877 --   307 o    0.801
   310   8 o    1.845 --   311 h    0.834   312 h    0.807
   311   1 h    0.893 --   310 o    0.834
   312   1 h    0.877 --   310 o    0.807
   313   8 o    1.863 --   315 h    0.822   314 h    0.801
   314   1 h    0.868 --   313 o    0.801
   315   1 h    0.886 --   313 o    0.822
   316   8 o    1.841 --   318 h    0.864   317 h    0.805
   317   1 h    0.879 --   316 o    0.805
   318   1 h    0.897 --   316 o    0.864
   319   8 o    1.828 --   320 h    0.850   321 h    0.842
   320   1 h    0.886 --   319 o    0.850
   321   1 h    0.883 --   319 o    0.842
   322   8 o    1.867 --   323 h    0.826   324 h    0.821
   323   1 h    0.894 --   322 o    0.826
   324   1 h    0.879 --   322 o    0.821
   325   8 o    1.821 --   327 h    0.855   326 h    0.853
   326   1 h    0.897 --   325 o    0.853
   327   1 h    0.894 --   325 o    0.855
   328   8 o    1.861 --   330 h    0.846   329 h    0.826
   329   1 h    0.893 --   328 o    0.826
   330   1 h    0.877 --   328 o    0.846
   331   8 o    1.830 --   332 h    0.862   333 h    0.849
   332   1 h    0.886 --   331 o    0.862
   333   1 h    0.888 --   331 o    0.849
   334   8 o    1.849 --   335 h    0.843   336 h    0.787
   335   1 h    0.893 --   334 o    0.843
   336   1 h    0.866 --   334 o    0.787
   337   8 o    1.855 --   339 h    0.810   338 h    0.807
   338   1 h    0.877 --   337 o    0.807
   339   1 h    0.880 --   337 o    0.810
   340   8 o    1.849 --   342 h    0.854   341 h    0.828
   341   1 h    0.883 --   340 o    0.828
   342   1 h    0.889 --   340 o    0.854
   343   8 o    1.840 --   344 h    0.864   345 h    0.832
   344   1 h    0.890 --   343 o    0.864
   345   1 h    0.882 --   343 o    0.832
   346   8 o    1.821 --   347 h    0.859   348 h    0.854
   347   1 h    0.886 --   346 o    0.859
   348   1 h    0.898 --   346 o    0.854
   349   8 o    1.868 --   350 h    0.831   351 h    0.805
   350   1 h    0.887 --   349 o    0.831
   351   1 h    0.873 --   349 o    0.805
   352   8 o    1.829 --   353 h    0.836   354 h    0.829
   353   1 h    0.890 --   352 o    0.836
   354   1 h    0.889 --   352 o    0.829
   355   8 o    1.823 --   356 h    0.893   357 h    0.774
   356   1 h    0.900 --   355 o    0.893
   357   1 h    0.873 --   355 o    0.774
   358   8 o    1.859 --   359 h    0.839   360 h    0.828
   359   1 h    0.890 --   358 o    0.839
   360   1 h    0.893 --   358 o    0.828
   361   8 o    1.827 --   362 h    0.848   363 h    0.822
   362   1 h    0.887 --   361 o    0.848
   363   1 h    0.890 --   361 o    0.822
[...]
   371   1 h    0.891 --   370 o    0.829
   372   1 h    0.883 --   370 o    0.827
   373   8 o    1.843 --   374 h    0.829   375 h    0.810
   374   1 h    0.889 --   373 o    0.829
   375   1 h    0.883 --   373 o    0.810
   376   8 o    1.851 --   377 h    0.826   378 h    0.805
   377   1 h    0.896 --   376 o    0.826
   378   1 h    0.877 --   376 o    0.805
   379   8 o    1.861 --   381 h    0.801   380 h    0.792
   380   1 h    0.873 --   379 o    0.792
   381   1 h    0.881 --   379 o    0.801
   382   8 o    1.833 --   383 h    0.847   384 h    0.813
   383   1 h    0.900 --   382 o    0.847
   384   1 h    0.880 --   382 o    0.813
   385   8 o    1.823 --   386 h    0.839   387 h    0.798
   386   1 h    0.894 --   385 o    0.839
   387   1 h    0.882 --   385 o    0.798
   388   8 o    1.847 --   390 h    0.832   389 h    0.818
   389   1 h    0.875 --   388 o    0.818
   390   1 h    0.883 --   388 o    0.832
   391   8 o    1.806 --   393 h    0.857   392 h    0.847
   392   1 h    0.886 --   391 o    0.847
   393   1 h    0.889 --   391 o    0.857
   394   8 o    1.808 --   395 h    0.848   396 h    0.826
   395   1 h    0.895 --   394 o    0.848
   396   1 h    0.886 --   394 o    0.826
   397   8 o    1.822 --   399 h    0.889   398 h    0.794
   398   1 h    0.870 --   397 o    0.794
   399   1 h    0.904 --   397 o    0.889
   400   8 o    1.863 --   402 h    0.840   401 h    0.820
   401   1 h    0.881 --   400 o    0.820
   402   1 h    0.890 --   400 o    0.840
   403   8 o    1.823 --   405 h    0.862   404 h    0.806
   404   1 h    0.877 --   403 o    0.806
   405   1 h    0.904 --   403 o    0.862
   406   8 o    1.883 --   408 h    0.839   407 h    0.820
   407   1 h    0.870 --   406 o    0.820
   408   1 h    0.891 --   406 o    0.839
   409   8 o    1.833 --   410 h    0.839   411 h    0.806
   410   1 h    0.885 --   409 o    0.839
   411   1 h    0.877 --   409 o    0.806
   412   8 o    1.863 --   413 h    0.817   414 h    0.804
   413   1 h    0.878 --   412 o    0.817
   414   1 h    0.878 --   412 o    0.804
   415   8 o    1.896 --   417 h    0.879   416 h    0.823
   416   1 h    0.880 --   415 o    0.823
   417   1 h    0.892 --   415 o    0.879
   418   8 o    1.865 --   420 h    0.859   419 h    0.787
   419   1 h    0.866 --   418 o    0.787
   420   1 h    0.889 --   418 o    0.859
   421   8 o    1.857 --   423 h    0.845   422 h    0.808
   422   1 h    0.876 --   421 o    0.808
   423   1 h    0.895 --   421 o    0.845
   424   8 o    1.858 --   425 h    0.826   426 h    0.783
   425   1 h    0.895 --   424 o    0.826
   426   1 h    0.870 --   424 o    0.783
   427   8 o    1.819 --   429 h    0.815   428 h    0.814
   428   1 h    0.891 --   427 o    0.814
   429   1 h    0.889 --   427 o    0.815
   430   8 o    1.825 --   432 h    0.879   431 h    0.814
   431   1 h    0.867 --   430 o    0.814
   432   1 h    0.896 --   430 o    0.879
   433   8 o    1.830 --   434 h    0.856   435 h    0.810
   434   1 h    0.890 --   433 o    0.856
   435   1 h    0.878 --   433 o    0.810
   436   8 o    1.868 --   437 h    0.845   438 h    0.802
   437   1 h    0.894 --   436 o    0.845
   438   1 h    0.885 --   436 o    0.802
   439   8 o    1.841 --   441 h    0.860   440 h    0.816
   440   1 h    0.878 --   439 o    0.816
   441   1 h    0.892 --   439 o    0.860
   442   8 o    1.889 --   443 h    0.810   444 h    0.803
   443   1 h    0.876 --   442 o    0.810
   444   1 h    0.874 --   442 o    0.803
   445   8 o    1.841 --   447 h    0.836   446 h    0.821
   446   1 h    0.887 --   445 o    0.821
   447   1 h    0.888 --   445 o    0.836
   448   8 o    1.855 --   450 h    0.893   449 h    0.798
   449   1 h    0.875 --   448 o    0.798
   450   1 h    0.899 --   448 o    0.893
   451   8 o    1.857 --   453 h    0.877   452 h    0.808
   452   1 h    0.887 --   451 o    0.808
   453   1 h    0.900 --   451 o    0.877
   454   8 o    1.838 --   455 h    0.806   456 h    0.794
   455   1 h    0.873 --   454 o    0.806
   456   1 h    0.883 --   454 o    0.794
   457   8 o    1.878 --   458 h    0.834   459 h    0.823
   458   1 h    0.881 --   457 o    0.834
   459   1 h    0.875 --   457 o    0.823
   460   8 o    1.838 --   462 h    0.877   461 h    0.825
   461   1 h    0.874 --   460 o    0.825
   462   1 h    0.902 --   460 o    0.877
   463   8 o    1.804 --   464 h    0.888   465 h    0.821
   464   1 h    0.900 --   463 o    0.888
   465   1 h    0.882 --   463 o    0.821
   466   8 o    1.831 --   468 h    0.871   467 h    0.838
   467   1 h    0.879 --   466 o    0.838
   468   1 h    0.895 --   466 o    0.871
   469   8 o    1.812 --   470 h    0.895   471 h    0.792
   470   1 h    0.902 --   469 o    0.895
   471   1 h    0.876 --   469 o    0.792
   472   8 o    1.823 --   473 h    0.874   474 h    0.831
   473   1 h    0.893 --   472 o    0.874
   474   1 h    0.884 --   472 o    0.831
   475   8 o    1.880 --   476 h    0.812   477 h    0.799
   476   1 h    0.889 --   475 o    0.812
   477   1 h    0.879 --   475 o    0.799
   478   8 o    1.872 --   479 h    0.864   480 h    0.858
   479   1 h    0.891 --   478 o    0.864
   480   1 h    0.890 --   478 o    0.858
   481   8 o    1.853 --   482 h    0.848   483 h    0.839
   482   1 h    0.891 --   481 o    0.848
   483   1 h    0.884 --   481 o    0.839
   484   8 o    1.849 --   485 h    0.880   486 h    0.785
   485   1 h    0.900 --   484 o    0.880
   486   1 h    0.874 --   484 o    0.785
   487   8 o    1.823 --   488 h    0.884   489 h    0.811
   488   1 h    0.899 --   487 o    0.884
   489   1 h    0.880 --   487 o    0.811
   490   8 o    1.873 --   491 h    0.820   492 h    0.792
   491   1 h    0.885 --   490 o    0.820
   492   1 h    0.868 --   490 o    0.792
   493   8 o    1.829 --   495 h    0.826   494 h    0.812
   494   1 h    0.887 --   493 o    0.812
   495   1 h    0.869 --   493 o    0.826
   496   8 o    1.809 --   498 h    0.876   497 h    0.855
   497   1 h    0.885 --   496 o    0.855
   498   1 h    0.893 --   496 o    0.876
   499   8 o    1.829 --   500 h    0.856   501 h    0.797
   500   1 h    0.892 --   499 o    0.856
   501   1 h    0.872 --   499 o    0.797
   502   8 o    1.857 --   503 h    0.889   504 h    0.817
   503   1 h    0.901 --   502 o    0.889
   504   1 h    0.881 --   502 o    0.817
   505   8 o    1.795 --   506 h    0.841   507 h    0.840
   506   1 h    0.892 --   505 o    0.841
   507   1 h    0.884 --   505 o    0.840
   508   8 o    1.844 --   510 h    0.833   509 h    0.832
   509   1 h    0.880 --   508 o    0.832
   510   1 h    0.885 --   508 o    0.833
   511   8 o    1.831 --   513 h    0.847   512 h    0.822
   512   1 h    0.874 --   511 o    0.822
   513   1 h    0.892 --   511 o    0.847
   514   8 o    1.823 --   515 h    0.872   516 h    0.858
   515   1 h    0.892 --   514 o    0.872
   516   1 h    0.888 --   514 o    0.858
   517   8 o    1.839 --   519 h    0.858   518 h    0.824
   518   1 h    0.880 --   517 o    0.824
   519   1 h    0.891 --   517 o    0.858
   520   8 o    1.837 --   522 h    0.847   521 h    0.807
   521   1 h    0.871 --   520 o    0.807
   522   1 h    0.898 --   520 o    0.847
   523   8 o    1.833 --   525 h    0.860   524 h    0.810
   524   1 h    0.874 --   523 o    0.810
   525   1 h    0.893 --   523 o    0.860
   526   8 o    1.819 --   527 h    0.884   528 h    0.846
   527   1 h    0.897 --   526 o    0.884
   528   1 h    0.884 --   526 o    0.846
   529   8 o    1.842 --   530 h    0.869   531 h    0.778
   530   1 h    0.896 --   529 o    0.869
   531   1 h    0.875 --   529 o    0.778
   532   8 o    1.883 --   534 h    0.830   533 h    0.801   545 h    0.106
   533   1 h    0.865 --   532 o    0.801
   534   1 h    0.891 --   532 o    0.830
   535   8 o    1.817 --   537 h    0.850   536 h    0.809
   536   1 h    0.877 --   535 o    0.809
   537   1 h    0.891 --   535 o    0.850
   538   8 o    1.821 --   540 h    0.880   539 h    0.812
   539   1 h    0.868 --   538 o    0.812
   540   1 h    0.901 --   538 o    0.880
   541   8 o    1.824 --   543 h    0.845   542 h    0.836
   542   1 h    0.887 --   541 o    0.836
   543   1 h    0.883 --   541 o    0.845
   544   8 o    1.830 --   546 h    0.896   545 h    0.762
   545   1 h    0.874 --   544 o    0.762   532 o    0.106
   546   1 h    0.902 --   544 o    0.896
   547   8 o    1.826 --   549 h    0.848   548 h    0.794
   548   1 h    0.868 --   547 o    0.794
   549   1 h    0.898 --   547 o    0.848
   550   8 o    1.863 --   551 h    0.824   552 h    0.809
   551   1 h    0.883 --   550 o    0.824
   552   1 h    0.873 --   550 o    0.809
   553   8 o    1.842 --   555 h    0.866   554 h    0.826
   554   1 h    0.886 --   553 o    0.826
   555   1 h    0.891 --   553 o    0.866
   556   8 o    1.870 --   557 h    0.804   558 h    0.777
   557   1 h    0.885 --   556 o    0.804
   558   1 h    0.865 --   556 o    0.777
   559   8 o    1.837 --   560 h    0.885   561 h    0.760
   560   1 h    0.904 --   559 o    0.885
   561   1 h    0.861 --   559 o    0.760
   562   8 o    1.855 --   564 h    0.807   563 h    0.759
   563   1 h    0.879 --   562 o    0.759   178 o    0.107
   564   1 h    0.872 --   562 o    0.807
   565   8 o    1.857 --   567 h    0.842   566 h    0.832
   566   1 h    0.889 --   565 o    0.832
   567   1 h    0.879 --   565 o    0.842
   568   8 o    1.834 --   569 h    0.884   570 h    0.817
   569   1 h    0.900 --   568 o    0.884
   570   1 h    0.866 --   568 o    0.817
   571   8 o    1.886 --   573 h    0.801   572 h    0.750
   572   1 h    0.870 --   571 o    0.750   367 o    0.107
   573   1 h    0.870 --   571 o    0.801
   574   8 o    1.838 --   575 h    0.858   576 h    0.799
   575   1 h    0.894 --   574 o    0.858
   576   1 h    0.868 --   574 o    0.799
   577   8 o    1.815 --   578 h    0.861   579 h    0.825
   578   1 h    0.893 --   577 o    0.861
   579   1 h    0.882 --   577 o    0.825
   580   8 o    1.837 --   582 h    0.856   581 h    0.810
   581   1 h    0.883 --   580 o    0.810
   582   1 h    0.888 --   580 o    0.856
   583   8 o    1.795 --   585 h    0.868   584 h    0.851
   584   1 h    0.888 --   583 o    0.851
   585   1 h    0.898 --   583 o    0.868
   586   8 o    1.824 --   587 h    0.859   588 h    0.805
   587   1 h    0.889 --   586 o    0.859
   588   1 h    0.884 --   586 o    0.805
   589   8 o    1.835 --   590 h    0.818   591 h    0.809
   590   1 h    0.883 --   589 o    0.818
   591   1 h    0.878 --   589 o    0.809
   592   8 o    1.854 --   593 h    0.876   594 h    0.803
   593   1 h    0.895 --   592 o    0.876
   594   1 h    0.865 --   592 o    0.803
   595   8 o    1.861 --   596 h    0.851   597 h    0.774
   596   1 h    0.899 --   595 o    0.851
   597   1 h    0.871 --   595 o    0.774
   598   8 o    1.870 --   600 h    0.836   599 h    0.798
   599   1 h    0.867 --   598 o    0.798
   600   1 h    0.886 --   598 o    0.836
   601   8 o    1.882 --   603 h    0.839   602 h    0.834
   602   1 h    0.882 --   601 o    0.834
   603   1 h    0.888 --   601 o    0.839
   604   8 o    1.880 --   606 h    0.892   605 h    0.810
   605   1 h    0.876 --   604 o    0.810
   606   1 h    0.900 --   604 o    0.892
   607   8 o    1.878 --   608 h    0.856   609 h    0.820
   608   1 h    0.891 --   607 o    0.856
   609   1 h    0.886 --   607 o    0.820
   610   8 o    1.826 --   611 h    0.839   612 h    0.815
   611   1 h    0.887 --   610 o    0.839
   612   1 h    0.878 --   610 o    0.815
   613   8 o    1.810 --   614 h    0.854   615 h    0.827
   614   1 h    0.894 --   613 o    0.854
   615   1 h    0.880 --   613 o    0.827
   616   8 o    1.839 --   618 h    0.828   617 h    0.803
   617   1 h    0.872 --   616 o    0.803
   618   1 h    0.893 --   616 o    0.828
   619   8 o    1.848 --   621 h    0.839   620 h    0.835
   620   1 h    0.883 --   619 o    0.835
   621   1 h    0.890 --   619 o    0.839
   622   8 o    1.836 --   624 h    0.843   623 h    0.841
   623   1 h    0.881 --   622 o    0.841
   624   1 h    0.887 --   622 o    0.843
   625   8 o    1.820 --   627 h    0.852   626 h    0.821
   626   1 h    0.879 --   625 o    0.821
   627   1 h    0.892 --   625 o    0.852
   628   8 o    1.888 --   629 h    0.829   630 h    0.820
   629   1 h    0.877 --   628 o    0.829
   630   1 h    0.873 --   628 o    0.820
   631   8 o    1.848 --   632 h    0.893   633 h    0.807
   632   1 h    0.897 --   631 o    0.893
   633   1 h    0.874 --   631 o    0.807
   634   8 o    1.847 --   635 h    0.893   636 h    0.786
   635   1 h    0.901 --   634 o    0.893
   636   1 h    0.876 --   634 o    0.786
   637   8 o    1.844 --   639 h    0.876   638 h    0.867
   638   1 h    0.887 --   637 o    0.867
   639   1 h    0.892 --   637 o    0.876
   640   8 o    1.889 --   641 h    0.826   642 h    0.802
   641   1 h    0.879 --   640 o    0.826
   642   1 h    0.876 --   640 o    0.802
   643   8 o    1.857 --   644 h    0.855   645 h    0.779
   644   1 h    0.895 --   643 o    0.855
   645   1 h    0.869 --   643 o    0.779
   646   8 o    1.807 --   647 h    0.834   648 h    0.819
   647   1 h    0.889 --   646 o    0.834
   648   1 h    0.884 --   646 o    0.819
   649   8 o    1.828 --   651 h    0.857   650 h    0.847
   650   1 h    0.896 --   649 o    0.847
   651   1 h    0.885 --   649 o    0.857
   652   8 o    1.803 --   653 h    0.862   654 h    0.847
   653   1 h    0.887 --   652 o    0.862
   654   1 h    0.892 --   652 o    0.847
   655   8 o    1.858 --   657 h    0.835   656 h    0.832
   656   1 h    0.886 --   655 o    0.832
   657   1 h    0.884 --   655 o    0.835
   658   8 o    1.834 --   659 h    0.870   660 h    0.832
   659   1 h    0.891 --   658 o    0.870
   660   1 h    0.878 --   658 o    0.832
   661   8 o    1.831 --   663 h    0.824   662 h    0.820
   662   1 h    0.884 --   661 o    0.820
   663   1 h    0.883 --   661 o    0.824
   664   8 o    1.818 --   666 h    0.878   665 h    0.840
   665   1 h    0.877 --   664 o    0.840
   666   1 h    0.898 --   664 o    0.878
   667   8 o    1.839 --   668 h    0.846   669 h    0.815
   668   1 h    0.893 --   667 o    0.846
   669   1 h    0.869 --   667 o    0.815
   670   8 o    1.867 --   672 h    0.843   671 h    0.803
   671   1 h    0.874 --   670 o    0.803
   672   1 h    0.892 --   670 o    0.843
   673   8 o    1.872 --   675 h    0.854   674 h    0.816
   674   1 h    0.880 --   673 o    0.816
   675   1 h    0.894 --   673 o    0.854
   676   8 o    1.816 --   678 h    0.886   677 h    0.830
   677   1 h    0.880 --   676 o    0.830
   678   1 h    0.895 --   676 o    0.886
   679   8 o    1.816 --   680 h    0.823   681 h    0.817
   680   1 h    0.890 --   679 o    0.823
   681   1 h    0.883 --   679 o    0.817
   682   8 o    1.863 --   684 h    0.822   683 h    0.808
   683   1 h    0.875 --   682 o    0.808
   684   1 h    0.878 --   682 o    0.822
   685   8 o    1.844 --   686 h    0.834   687 h    0.806
   686   1 h    0.891 --   685 o    0.834
   687   1 h    0.878 --   685 o    0.806
   688   8 o    1.858 --   690 h    0.883   689 h    0.853
   689   1 h    0.885 --   688 o    0.853
   690   1 h    0.893 --   688 o    0.883
   691   8 o    1.837 --   692 h    0.858   693 h    0.832
   692   1 h    0.887 --   691 o    0.858
   693   1 h    0.884 --   691 o    0.832
   694   8 o    1.840 --   695 h    0.883   696 h    0.799
   695   1 h    0.898 --   694 o    0.883
   696   1 h    0.875 --   694 o    0.799
   697   8 o    1.843 --   699 h    0.854   698 h    0.819
   698   1 h    0.887 --   697 o    0.819
   699   1 h    0.893 --   697 o    0.854
   700   8 o    1.814 --   702 h    0.825   701 h    0.804
   701   1 h    0.882 --   700 o    0.804
   702   1 h    0.894 --   700 o    0.825
   703   8 o    1.867 --   704 h    0.841   705 h    0.811
   704   1 h    0.886 --   703 o    0.841
   705   1 h    0.882 --   703 o    0.811
   706   8 o    1.840 --   707 h    0.833   708 h    0.796
   707   1 h    0.894 --   706 o    0.833
   708   1 h    0.873 --   706 o    0.796
   709   8 o    1.884 --   711 h    0.836   710 h    0.819
   710   1 h    0.886 --   709 o    0.819
   711   1 h    0.891 --   709 o    0.836
   712   8 o    1.887 --   714 h    0.828   713 h    0.776
   713   1 h    0.867 --   712 o    0.776
   714   1 h    0.886 --   712 o    0.828
   715   8 o    1.793 --   716 h    0.816   717 h    0.812
   716   1 h    0.879 --   715 o    0.816
   717   1 h    0.889 --   715 o    0.812
   718   8 o    1.858 --   719 h    0.845   720 h    0.809
   719   1 h    0.888 --   718 o    0.845
   720   1 h    0.874 --   718 o    0.809
   721   8 o    1.803 --   722 h    0.868   723 h    0.815
   722   1 h    0.893 --   721 o    0.868
   723   1 h    0.888 --   721 o    0.815
   724   8 o    1.881 --   726 h    0.813   725 h    0.786
   725   1 h    0.872 --   724 o    0.786
   726   1 h    0.891 --   724 o    0.813
   727   8 o    1.844 --   728 h    0.895   729 h    0.796
   728   1 h    0.902 --   727 o    0.895
   729   1 h    0.871 --   727 o    0.796
   730   8 o    1.809 --   731 h    0.864   732 h    0.842
   731   1 h    0.894 --   730 o    0.864
   732   1 h    0.884 --   730 o    0.842
   733   8 o    1.816 --   734 h    0.860   735 h    0.816
   734   1 h    0.894 --   733 o    0.860
   735   1 h    0.877 --   733 o    0.816
   736   8 o    1.829 --   738 h    0.894   737 h    0.824
   737   1 h    0.876 --   736 o    0.824
   738   1 h    0.899 --   736 o    0.894
   739   8 o    1.825 --   740 h    0.851   741 h    0.836
   740   1 h    0.890 --   739 o    0.851
   741   1 h    0.882 --   739 o    0.836
   742   8 o    1.839 --   744 h    0.864   743 h    0.839
   743   1 h    0.883 --   742 o    0.839
   744   1 h    0.891 --   742 o    0.864
   745   8 o    1.876 --   747 h    0.825   746 h    0.818
   746   1 h    0.883 --   745 o    0.818
   747   1 h    0.887 --   745 o    0.825
   748   8 o    1.864 --   749 h    0.826   750 h    0.791
   749   1 h    0.887 --   748 o    0.826
   750   1 h    0.865 --   748 o    0.791
   751   8 o    1.811 --   753 h    0.872   752 h    0.860
   752   1 h    0.893 --   751 o    0.860
   753   1 h    0.894 --   751 o    0.872
   754   8 o    1.803 --   755 h    0.878   756 h    0.858
   755   1 h    0.898 --   754 o    0.878
   756   1 h    0.893 --   754 o    0.858
 ---------------------------------------------------------------------------

Topologies differ in total number of bonds
Writing topology from bond orders to xtbtopo.mol

molecular dipole:
                 x           y           z       tot (Debye)
 q only:       -3.826       0.778       0.759
   full:       -5.189       0.685       1.173      13.634
molecular quadrupole (traceless):
                xx          xy          yy          xz          yz          zz
 q only:       93.105       1.672     -33.509      53.691      37.177     -59.595
  q+dip:      115.539       8.462     -37.502      86.954      47.513     -78.037
   full:      117.638       8.702     -39.497      87.492      46.544     -78.141


           -------------------------------------------------
          | TOTAL ENERGY            -1283.566570709450 Eh   |
          | GRADIENT NORM               0.123990438590 Eh/α |
          | HOMO-LUMO GAP               7.021214947832 eV   |
           -------------------------------------------------

------------------------------------------------------------------------
 * finished run on 2022/11/24 at 12:21:40.255     
------------------------------------------------------------------------
 total:
 * wall-time:     0 d,  0 h,  0 min, 23.570 sec
 *  cpu-time:     0 d,  0 h,  0 min, 38.262 sec
 * ratio c/w:     1.623 speedup
 SCF:
 * wall-time:     0 d,  0 h,  0 min, 22.504 sec
 *  cpu-time:     0 d,  0 h,  0 min, 36.491 sec
 * ratio c/w:     1.622 speedup

