756
 energy: -1283.314189982327 gnorm: 0.019435987655 xtb: 6.5.1 (579679a)
o            5.19563127146483       -7.80343982082000       -1.72749125142866
h            4.32855650020923       -7.97064438240718       -1.31559068694324
h            5.83308385322344       -7.78643062469775       -0.99968648125211
o           -0.82902545338556        4.01010945185407        4.03033340807772
h           -1.03957641445137        4.74210715884129        4.63470969020505
h           -0.33531362899069        4.43214888139850        3.29411403738164
o           -0.67713136237772       -2.48012675810118       -2.33147462839248
h           -1.31326897425862       -3.20205265712320       -2.28640650827369
h           -1.17057331779773       -1.71528089386130       -2.69430304583033
o           -5.23322867307628        1.87109833720492       -0.94549807767931
h           -4.38391462567305        1.79541585062675       -1.41543592477997
h           -5.19560221066745        2.65303822365899       -0.39279407545794
o           -3.23103829903361        2.20625650271010        0.95447152814712
h           -3.06133247517862        2.93230777514916        0.32927794275056
h           -3.13397530193881        2.58567589210866        1.84735030350823
o           -4.01241967543945       -3.88199188044005        2.95586715836345
h           -4.48049157241323       -3.03462077055680        2.84747119241990
h           -3.46178575952584       -3.77208374353703        3.74356976358249
o           -0.41148801262309       -5.02569544653067       -3.60689847466232
h           -0.99041656141200       -5.60194609186782       -3.08456011132342
h            0.35348358980493       -4.87573319684387       -3.02657006880389
o            0.33661878276926       -5.91954919420179        0.23986920374562
h           -0.10871076611393       -5.19849569619891        0.73045480783055
h            0.70519904167365       -6.55792549117514        0.87023479266198
o           -0.90525500691302       -3.72666688775099        1.00482702917514
h           -1.04788520368037       -3.75711408712575        1.97623326815101
h           -1.77054465913415       -3.93538149398697        0.60239468181171
o            2.03860942396389        1.53083205587373       -4.81506029057285
h            1.47838985233913        1.93302034685989       -5.48638946988914
h            2.75379771241096        2.17244526874685       -4.57386503635020
o           -2.29488173828736       -0.55266477272561       -3.33913807830455
h           -2.11859264244343       -0.49395726917226       -4.29441854657642
h           -3.15507462908126       -1.01678854016527       -3.27344471229950
o           -1.30477152104739        4.54980780688203       -2.99856259540209
h           -1.76839453243375        5.16982565975864       -3.58488790840455
h           -1.21345976811882        3.71485199814709       -3.48695382459059
o           -3.43832818000177       -4.20847058655040        0.37609373730691
h           -3.97151455273469       -3.57973509118244       -0.13784568271094
h           -3.66889244651077       -4.06564271750180        1.31636281057163
o           -2.89679366144420        1.83474707747738       -2.25449240943458
h           -2.78017526916354        0.96408485935491       -2.68170447019928
h           -2.00597949419120        2.09305927871185       -1.95176886082041
o           -0.30522814248168        2.26475794448236       -1.53181802318228
h            0.10211986982545        1.44130600047986       -1.86868955152868
h            0.22917462303803        2.97618677927821       -1.93215918153980
o            0.62366444693816        0.19536900077420       -2.89305055479142
h            1.26932040253599        0.65716137563026       -3.44875038153532
h            1.06691821651455       -0.60809505498254       -2.55247813658861
o           -2.64504594410047       -0.39227229720597        3.10135170166584
h           -2.36003745254290        0.38054260309464        2.59538477280781
h           -3.48513159745982       -0.73675236864635        2.74209392969671
o           -5.00932072584980        0.01220488796790        7.27250154347861
h           -5.74718548689292        0.62502630651213        7.14929161410973
h           -5.39638987863876       -0.87460436735665        7.27906189147003
o           -1.25434668432554       -4.20323847483581        3.57824844982082
h           -1.36705732626831       -3.46319156749526        4.20778429991389
h           -0.34456348483238       -4.52597421219325        3.68107474508095
o           -3.45143435518627        0.98934772001129        5.25384124026393
h           -3.15469514881655        0.29479899834951        4.62867976166486
h           -4.04048482233562        0.56337335343175        5.90131676189316
o           -0.13368502319707       -1.60549162464713        2.64374134592147
h            0.31066866347732       -2.04349564401065        3.39447265887082
h           -1.00642269172682       -1.32389712027265        2.96243820825381
o            3.87409441227281        0.43804579955959        1.61757805532586
h            4.38240163471380        0.69779679386073        2.40419420564582
h            3.95563789090729        1.21033670840868        1.00560004960332
o            1.74775305884834       -3.20724265794142        0.55487023682101
h            2.11364161090235       -2.66581780817304        1.29450327039975
h            0.82832761895029       -3.39882127356738        0.77894875873119
o            0.08699669922858        5.54980521880517       -0.85626774375784
h           -0.21055253506532        6.40440468181803       -0.50811926215809
h           -0.35969234592898        5.37161057833756       -1.69999548067964
o           -2.54754966924583        0.40944808291276        8.53036312857811
h           -2.12757609430972        1.10215787824510        7.98583623719765
h           -3.44850491255759        0.29406124991769        8.19242025923122
o           -6.04548998481704        0.18562557037807        4.28697615266718
h           -5.85086250217436        0.63439046724286        3.43515603499626
h           -6.17752065996798        0.89044330998704        4.94898356144779
o           -6.46514704088240       -0.34592391020646       -0.26068748181430
h           -5.92588264051397        0.46656104171396       -0.30521451108311
h           -6.91355085138123       -0.37703652671950        0.60137125720652
o            4.02789746900325        2.64316765797490        0.18167090954514
h            3.15534538875608        2.98876800331075        0.44729183240178
h            4.68002179030115        3.12249621930383        0.71576223309379
o           -3.04916173010750       -3.98912510200075       -2.52799859435955
h           -2.63593056914609       -4.74533386804193       -2.06789249154710
h           -3.97140192534481       -4.24697655257795       -2.65936516107189
o            1.92625858828730       -1.98277171714424       -1.93087360905903
h            2.56302163021047       -2.33675805580237       -2.57896648183126
h            2.46500532670395       -1.81514421489620       -1.13473218552276
o           -5.00664171659865       -7.27556695169439       -3.05801970978609
h           -5.26072748012507       -6.39185660218255       -2.73391183775569
h           -4.48593435780842       -7.09990980119134       -3.85327844530410
o           -5.21418573894304       -2.58935024316755       -0.89155347178438
h           -4.81521341765842       -2.27418154610800       -1.72868583181763
h           -5.73863233728652       -1.81602790271436       -0.58040505885174
o            1.16771349636298        2.57952405307943        5.09791938733025
h            0.92907396590320        1.68623129945617        4.81568036641544
h            0.44492663652087        3.15717640818631        4.76943510730598
o            2.87451921141062       -2.00773925142780        2.54607742358242
h            3.62134532602205       -2.61609629338641        2.69806811908105
h            3.27349551269472       -1.17718661868413        2.26570397219490
o            1.48033220585913        0.51360339404946        2.81653276879053
h            2.23140964367625        0.54169400384334        2.19441146700870
h            1.03636352294932       -0.35453997080692        2.72069094848211
o            1.66945380071287        2.85289239641688        1.35364863581266
h            0.88674122323073        3.41965120253495        1.31108974416102
h            2.14529937136540        3.09245153189157        2.18134356942118
o           -3.72691888262728        3.82997817756565       -3.88739570513875
h           -3.16230721241063        3.76478644191415       -4.67297098185573
h           -3.48286963076936        3.07182484900501       -3.32178962691423
o           -5.58421944621237        4.36804680884535       -1.88188576910439
h           -5.65412392572711        3.67308774342163       -2.56341820187355
h           -5.38846443747410        5.22394556993744       -2.30711226195314
o            2.60846121819481       -3.04129769623752        7.97278585660827
h            3.54338846855490       -2.84142159208149        8.06340237460100
h            2.17321467477562       -2.20180066912326        7.74713980874319
o           -1.71078463537850       -1.99623602949485        5.11649391740669
h           -1.54509135345073       -2.03362958262583        6.07772281582648
h           -2.68084609897878       -1.94143598667923        5.01216779618603
o            1.05114143847801       -2.44067246036162        4.89993010359891
h            1.03309075115269       -3.32011946216925        5.33867826389305
h            0.85505917957003       -1.79118472011909        5.58421219581305
o           -0.90496975563932        1.58423215171950        2.42790317434625
h            0.04132249146616        1.34630495949354        2.46565177644399
h           -0.94372559484417        2.41845367362318        1.94477651606958
o           -0.83472011625697       -3.01289284777262       -7.83429766935702
h           -0.31633059225186       -2.26107616732409       -7.47415271656991
h           -0.34335246214492       -3.33931450578822       -8.58701599582177
o            3.71505911982779       -2.76462562880605        5.29065843104811
h            2.79433228735017       -2.54992907282522        5.04112190339931
h            4.27300371996331       -2.32390261359490        4.62193371199030
o           -8.18461513615554        1.62254232906520        3.14663841046402
h           -7.49083813262211        2.26072827845627        3.39463323355572
h           -8.78294670044404        1.50177899476942        3.90314803737736
o           -8.93342464158332        4.42382000207099        2.62253606088893
h           -8.49791815848790        5.30164282342939        2.68978811204927
h           -9.47583552795972        4.48304258277669        1.81853284798200
o           -9.47076105343081       -3.78793938576615        1.39203226265148
h          -10.27921578502471       -3.74192161293546        0.87379535103197
h           -8.82547437879856       -3.24669767628117        0.87338030747048
o            2.76230217222163       -7.62530043224716        4.16030943271850
h            3.18380511281572       -6.78516056979282        4.43661330238421
h            2.09743406560625       -7.82857795938732        4.82033849458297
o            6.63345455376757       -5.03111921762769        5.75950892384952
h            6.83237526601231       -4.79776431987732        6.66524606621812
h            6.94406642514967       -4.28846747952840        5.19705390033256
o            3.12374726328803        1.80384464104483       -2.13169216202803
h            3.72512119469423        2.19113657381260       -1.46779975102166
h            2.55989651540042        2.53741103158644       -2.43271787779955
o            4.27338130912806       -5.22035681267064       -1.65775599339836
h            3.32450833646164       -5.24319307315186       -1.45772230895696
h            4.58660418686855       -6.13823026191312       -1.73168002213986
o           -7.80973888033551        5.55320726438958       -4.06960001223440
h           -6.91658729519933        5.81343700694647       -4.35837305794313
h           -7.82058705612877        5.63745524457347       -3.10121491917835
o            6.43066522568175        1.79446463691510        1.19812599494160
h            6.51380704526820        0.82494496566380        1.28265880459892
h            7.28562882996092        2.13197040830200        1.52252511354464
o            0.24833820115984        1.77922405752861       -6.86596065479649
h            0.42197221005089        0.82098342123180       -6.91311499302151
h           -0.54606441223765        1.92862546376768       -7.40643334435310
o           -8.01770045704120       -2.44599378756771       -0.35393951246260
h           -8.18751681208601       -3.02319882581635       -1.10223468653764
h           -8.38905578878799       -1.57620916026404       -0.58466888425640
o           -3.23313456553931        2.97654654174492        3.54435945816450
h           -3.37001976703959        2.22042481109573        4.15027277535007
h           -2.28333266345919        3.22987979804107        3.61614861770435
o            2.99679111406657       -5.34686377943389        1.32408994435507
h            2.86773801803977       -6.01684331837490        0.63605885688828
h            2.61732990417192       -4.50403734282848        0.96152825279216
o           -1.99094451058599       -6.48951270472231        1.95895001175450
h           -1.97721420026009       -5.67936532238536        2.48872752130292
h           -2.91106489301984       -6.65071196596668        1.71089075696849
o            3.00081396209305       -0.95290187859242       -4.65917338283580
h            2.60704551142591       -0.07654210059886       -4.79202401370985
h            2.27263536065132       -1.59368424424248       -4.61722747422699
o            2.84404260713784       -1.24818575659675       -7.71894642345901
h            3.30990162261704       -1.94287164544621       -7.22265110620378
h            3.40622890348032       -0.45446488723624       -7.66925900886878
o           -0.43277042424878        0.37938167390208        4.92301656025715
h           -0.78579827029605        0.78122710122004        4.11690020264635
h           -0.87564130336048       -0.48878008815247        4.99405984926601
o           -0.96738703344866       -5.34850117698197       -6.22451696100755
h           -1.05992559296300       -4.48783582303198       -6.66022395348424
h           -0.80561276695785       -5.18386051455662       -5.27226071535532
o            1.82152035900460        0.62640774978372       -0.14835208503630
h            1.65225441600863        1.41056075713214        0.40047352974548
h            2.25626380547043        0.94963191779573       -0.96064416907430
o           -1.75417072405337       -6.04419558533707       -1.49189616278616
h           -1.01816420863762       -6.08744358582466       -0.85742409535056
h           -2.24984456206581       -6.87988776250438       -1.41852511159331
o            5.01942489831227       -3.62126808882927        2.81230343238253
h            4.71281144225902       -4.42094694993753        3.27386620686033
h            5.10373097089091       -3.81570391488993        1.85334656565192
o           -3.42673394557777       -2.54877946733176       -6.98986341600113
h           -2.81246582646758       -2.77978130630019       -7.69565316652007
h           -2.95030133567996       -2.81556030258071       -6.16029440736615
o           -6.33871462361241       -4.33351191764935        0.94686212155287
h           -6.51910979687620       -3.86180521681298        1.79022339850834
h           -5.96790461721546       -3.65817306820558        0.36369930105721
o           -1.10519264136357        1.98537073210308       -4.37839264578557
h           -0.70162786600482        1.27664286375708       -3.86170713072231
h           -0.65824636892970        1.98466464176882       -5.23517132669638
o           -9.63133978963257        1.71463026232164        0.90562777837859
h           -9.12884719085256        1.70461699825048        1.73899992996078
h           -9.58309669120828        2.61714532478899        0.55186400009973
o            4.09731224376346       -5.32296449505104        4.71091677233497
h            3.78857061910756       -4.45740547755504        5.06206362365676
h            4.94509865670824       -5.46485462018695        5.15761587769160
o           -0.07223780589815        4.39209339671433        7.25278053290810
h           -0.55209079847883        3.57782844085939        7.01470764869618
h            0.61290704093623        4.53505177085136        6.57502002818880
o            4.67593376548086       -0.34149073581740       -2.63215419989659
h            4.21979408409971        0.50516023873287       -2.48695168896813
h            4.18177218262738       -0.77821736469901       -3.34794744628709
o            5.25110057361836        4.35492936816225        1.87485606165635
h            4.49849928424229        4.38627190445433        2.47808288729065
h            6.05475105735819        4.55338682284994        2.39596662320918
o           -4.66602963189972       -1.71488336709792       -3.35433951819403
h           -5.50504134745848       -1.20481281502117       -3.34570079329559
h           -4.74979229022821       -2.44646621082385       -3.98722385727688
o            4.87587864833042       -6.87316981582756        2.37438742861123
h            4.35142924528740       -7.52824548345143        2.84236657029380
h            4.23465004642157       -6.20604961452103        2.05376563845754
o           -2.28469430243294        1.85885292794084       -7.68780423244822
h           -2.33930554356595        1.10191858876706       -7.07495510280643
h           -3.12483796108659        1.82424753845185       -8.19877629494164
o            5.54206048702403       -0.83414696091033       -5.64709493947934
h            4.63618354146832       -1.09915973892312       -5.42990235442978
h            5.61295239644658       -0.81071325008417       -6.62617362164320
o           -8.42232410110157       -5.28897287770442        4.16219928474334
h           -8.15633972927893       -5.90083603443791        3.45903823938080
h           -7.73212864983586       -5.34757955086731        4.83684487675158
o          -10.20261956143116       -0.95788544733040        1.23001187918321
h          -10.56348240185094       -1.63508573520177        0.63617862277713
h          -10.79690307419498       -0.84791570353288        1.99174817461127
o           -8.17258058707210       -5.21137130660403       -0.82513209854692
h           -9.00278188704836       -5.28889765921157       -0.35140742239745
h           -7.54162041331068       -4.82954963792867       -0.17336452881594
o           -7.92548904669622        5.42624669996854       -1.30348994266603
h           -7.66691177848644        6.21527648426465       -0.81367721700934
h           -7.11043432431503        4.87016447476034       -1.34721822280906
o           -6.33240492659831        7.38945645562779       -0.07443121839428
h           -5.66381211712822        7.94444147183782        0.38819884858413
h           -6.02790387074897        7.39837184520065       -0.99737921916625
o           -3.03580435034694        4.31191018355352       -0.87509414651139
h           -2.44907278348209        4.23636074136296       -1.65065045585773
h           -3.95089708934759        4.29090023540298       -1.21027785281392
o           -1.47093121593125        6.05607760193485        5.78508903327660
h           -0.99184469677979        5.57297756815543        6.50318007665388
h           -0.92039566610815        6.79677479171527        5.51726118202453
o            0.61084679352721        5.30565431635699        2.19358838938505
h            1.40780365198811        5.60095958915946        2.64245034474134
h            0.16522404177098        6.08530771412325        1.81736805868988
o            0.64477727147934        4.52923992709056       -5.36138882858592
h            1.53659016053992        4.67248165700069       -5.75948448365187
h            0.38541328464266        5.37897619915459       -4.99689709590252
o            2.41080750933210        3.02450059049587       -8.09369535409055
h            2.64572273503771        3.85105344271075       -7.65534084775997
h            1.55300186111702        2.73844603623523       -7.74331140669818
o            6.18326835833469        1.88908610173605       -1.59696023903895
h            6.13047574733237        1.93392892127585       -0.62812241072468
h            7.01862335303270        1.41934758421712       -1.78676523432896
o            3.15506690448201        4.87324965087398       -6.13018273575954
h            3.43460768344706        5.64935375656950       -5.60104885085130
h            3.50751696028297        4.11690582954533       -5.60040190351112
o           -2.45133513107220        6.34157275494776       -4.86249157317207
h           -3.41875639951775        6.39487784480211       -4.88073932717924
h           -2.24575158944601        5.66690451344103       -5.53222693443623
o           -4.87154309363270       -1.47936997374818        2.00232992062964
h           -4.67814239617587       -1.12533766969440        1.11399264904687
h           -5.73670971086481       -1.13276870490530        2.23861789780765
o            0.58573579105719       -7.86236217055328       -2.01542031471517
h           -0.10917855617064       -7.85789655586761       -2.69620640185380
h            0.13118157232958       -8.13570279959324       -1.19936800182631
o            8.86492276643832       -2.52161106385249       -1.49121814924901
h            8.55037068262173       -3.05504770266145       -0.72438064349401
h            9.28457565450446       -3.12892742750731       -2.12375675376404
o            1.24693536571300       -5.24312951875769        3.43868763526841
h            1.67566007613723       -5.07598369786502        4.28874594370273
h            1.93737424085585       -5.29264922386352        2.75103434536694
o            2.94562311991376        7.60793777035795       -0.99299476307282
h            3.86181616591229        7.69544063803948       -1.30396079432247
h            2.91567074449250        6.72081340896261       -0.57154250957394
o           -6.31741310948899       -2.39366195862299        6.82416871417342
h           -7.07653383326008       -1.97867865902422        6.36791282930377
h           -6.35793151272977       -3.33395020648584        6.61956400295652
o           -7.51002975464156       -1.53107084715153       -5.73458935466144
h           -7.54797030432169       -2.39779927693920       -5.31276508989709
h           -8.34642199704360       -1.09751865887528       -5.54740187162813
o           -5.08919629493912        6.94106675592822       -2.46023298154689
h           -4.21660067039633        7.03722003560756       -1.99737212868988
h           -4.98667353535092        7.24622218111705       -3.36199843548391
o           -5.18738206632981        5.72923820105815       -4.96671863280250
h           -5.26368812465028        5.32138790519699       -5.84219553817803
h           -4.76643553948387        5.01474740944664       -4.43939639232591
o            2.86909168731421        0.12863599506559        5.00094503262697
h            2.28234465405101       -0.32451059149281        5.62061804963582
h            2.32644673855902        0.33130306786268        4.20328236213192
o           -5.73186839531394       -4.75717011934395       -2.38379274323881
h           -6.46697395251315       -4.56059834328110       -2.97872894614218
h           -5.73398212021776       -4.05635375396349       -1.70712454271804
o            1.71373215390482       -4.88745290645653       -5.74592495591017
h            1.96538200885749       -5.53642591974665       -5.05949355899516
h            0.90472851086207       -5.23580675263740       -6.15291992955032
o            1.58326573610922       -4.73875116395273       -1.77031397445539
h            1.60217235245510       -3.77940165695836       -1.58372250496675
h            1.12993535916792       -5.17311963325294       -1.01441594978533
o           -5.11875378849719        5.22409232242416        1.03712195357867
h           -5.52257385873159        5.95280303381658        0.53311303333934
h           -5.78398718017849        4.50992917478176        1.07000048432845
o           -6.89468001823171       -0.36944125122429       -2.88639813820829
h           -6.79476800670151       -0.35553539101437       -1.91105576629807
h           -6.71109959266413        0.54545361829457       -3.17228622718441
o           -9.89127242081671        4.30165492100488        0.10516851134284
h           -9.20969618115145        4.71269811326959       -0.46551081501119
h          -10.67653476196260        4.13796987769146       -0.42855246264041
o            6.13247186034730        4.61706538484218        5.38048333211471
h            6.28661288234672        3.69537465115407        5.62374289844543
h            6.74165473612895        4.81180635017488        4.65117772357748
o           -6.13059631222113        2.17276483741722       -3.53332773958825
h           -6.70800663225106        2.52151153836171       -4.24300914624624
h           -5.28847427295069        1.94355720358245       -3.96876582678952
o            1.39048871399435        5.41221889597005        5.14612096195805
h            2.34969850340184        5.53819721708249        5.15390010393607
h            1.01170478993722        6.21565341413016        4.76438875887392
o            3.97804754582832        1.17117438744174       -7.03469532464186
h            3.47825317359795        1.82114471453964       -7.57463557164773
h            3.61477366363183        1.21720809917099       -6.14414723646426
o           -0.60332086872588       -5.89685807010696        7.31192806682096
h           -1.23017769946792       -6.34765578838326        6.73457069628657
h           -1.11424967312336       -5.23347690645353        7.79961766377412
o            6.68193304136979        3.90618978359503       -3.31131289608638
h            7.18397184119193        4.58869811077395       -2.83902070050419
h            6.45538551668814        3.20717897674739       -2.66054351566253
o           -7.71996403956430       -0.81600831589325        2.14592442790751
h           -7.76536736565222        0.06976046162799        2.55781856689304
h           -8.61541894088651       -0.96192096675602        1.77405744940810
o            6.44547272870794        1.85406997038459        5.83265948376294
h            5.68408890744708        1.69462059077805        6.42523951708492
h            6.94064769546719        1.02482003602029        5.82481274469117
o          -11.51296177446129       -0.81231181973595        3.58950924717593
h          -11.15214033633731       -0.10735477313981        4.14073348953497
h          -11.03387968210897       -1.62090457311703        3.84499804967262
o           -6.18067490797532        3.38958087452463        3.71660252568434
h           -5.23911279663055        3.31488755635434        3.53896518526527
h           -6.31555735206134        4.10858521441749        4.35020185460110
o           -6.99313742379749        3.33650345334904        0.98366561453838
h           -7.66425374293327        3.63047001587544        1.62485428295104
h           -7.44009531222994        2.97984761213852        0.19123587335788
o           -6.67058669882276        1.95466659155168        6.22532041513311
h           -6.00703788808446        2.59845083832360        6.53240523784283
h           -7.42249377646260        2.48431813221238        5.90433595181315
o           -2.41626809452566       -3.99172646145912        8.23261994150172
h           -3.15534077535687       -4.14552487629046        8.81885191651265
h           -2.76357967530345       -4.03032801297794        7.29977863944793
o            1.48173653342884       -4.71616380314796        6.13297258520085
h            1.97186395825609       -4.26998943274318        6.84895089857457
h            0.74887342462191       -5.19631484730112        6.57185902898200
o           -2.00531627915243        4.01640353757001       -6.10293653658751
h           -1.04387290805233        4.00802338574712       -5.99357022873403
h           -2.21914123031468        3.32920874562584       -6.76404742795169
o            4.05978865874489        4.57475094556805       -2.24447746056372
h            4.92048978849124        4.52207372015529       -1.77815424732826
h            3.41944814925384        4.68532047400962       -1.52540057777789
o            6.03400426528276        1.46367950760407       -4.43747215620427
h            5.97668111760084        1.17490408459583       -3.51881885213425
h            5.88005420516575        0.66482207531969       -4.98385659381233
o            3.36250280273670        6.42660092685879        2.31785970395565
h            3.56574189718069        6.27737253850403        3.26063206558813
h            4.22243157715495        6.67078733200398        1.91510344122215
o            3.08257863850722        3.55325407823934        3.46149020895334
h            2.44681231509180        3.37436593263628        4.17606540815700
h            3.79226677626441        2.88439091829447        3.56491497105756
o            5.11794733067183        1.86933959226791        3.51367318591187
h            5.67378602420260        1.90538665292369        4.31360132109687
h            5.68406724364910        2.06831606300783        2.73854897612554
o            5.27498476160252       -3.67426886941228        0.21867024971251
h            4.80882198175158       -2.83220383153669        0.02146054990913
h            4.94240003905854       -4.31479793878582       -0.44124647446226
o            7.89321768299041       -3.60114735679587        0.70458383563091
h            8.15201699827967       -4.44875919525723        1.09856801697811