612
 energy: -1033.472512100207 gnorm: 0.000362965255 xtb: 6.5.1 (579679a)
H           -3.20226279030000        1.56650681700000       -2.18876242510000
C           -2.93223496990000        0.57679416500000       -2.54822089630000
H           -3.80758923340000        0.08742249840000       -2.96356796200000
C           -2.41611341560000       -0.29085225880000       -1.41340750470000
H           -2.09455699430000       -1.25679104410000       -1.79221799730000
H           -3.23472892150000       -0.45843655410000       -0.71853831780000
O           -1.99777623710000        0.72949871580000       -3.61303695950000
H           -1.32118378540000        1.36776474010000       -3.27339734850000
N           -1.28617334720000        0.31989447760000       -0.70409875850000
H           -0.43588422250000        0.32837289650000       -1.31707860950000
H           -1.05092158450000       -0.25221464830000        0.11878507610000
H           -1.53516295090000        1.28266794430000       -0.37696657830000
O            1.83530704050000        5.34749916840000        3.12480355200000
H            0.97798942120000        5.68733672220000        3.40636442920000
H            2.41537274560000        5.41776891450000        3.90487623730000
O            5.15884681730000        3.04152369440000       -2.37980909280000
H            5.97120559690000        3.58366609710000       -2.45348613680000
H            4.51591985070000        3.65039835210000       -1.95774272430000
O            5.89583744560000        3.10528596880000        0.78875815080000
H            6.39030429680000        3.84337265530000        1.18234148190000
H            6.46549847330000        2.74324093120000        0.09409056750000
O           -2.27658971490000        2.62917068200000        0.26346076900000
H           -2.33315329000000        2.65237461760000        1.23817115030000
H           -3.19540550870000        2.49852245340000       -0.03835480160000
O           -4.81728758580000        2.29159406790000       -0.41316046330000
H           -5.24179681290000        1.63495577930000       -0.98988526120000
H           -5.17863984820000        2.16659505680000        0.47728090600000
O           -2.23822416470000       -4.26446283860000       -5.33526121060000
H           -2.14897600420000       -3.32305939490000       -5.11696518700000
H           -1.73139228010000       -4.37192210230000       -6.17804577120000
O            1.32266049400000        0.71592458420000        0.53818994070000
H            2.16916391190000        0.78054663820000        1.00245583440000
H            0.70303137960000        0.25786022860000        1.12268548740000
O            4.29094453290000        7.50322823160000        0.96848654110000
H            4.48778771920000        7.04280230510000        1.79586429510000
H            3.45433743690000        7.09643808930000        0.66810526380000
O            2.07040649710000       -2.15204786330000        1.32224606270000
H            2.02175140720000       -2.98637850580000        1.82009848170000
H            2.04688459250000       -1.44652707690000        1.99486329780000
O           -0.30433939990000       -2.28288620220000       -0.47945634810000
H            0.39453553420000       -2.30785955570000        0.18356469160000
H           -0.92193112520000       -3.00350598560000       -0.26198301840000
O            0.73606537470000        5.19949537310000       -1.85828810510000
H            0.99188732610000        6.13253799210000       -1.74186229280000
H            0.98671532530000        4.71196297300000       -1.05489565810000
O            7.69981784140000        2.04847089460000       -1.06071945380000
H            8.31334099500000        2.72100013770000       -1.41466647140000
H            7.26316527990000        1.64302141050000       -1.82321546910000
O           -3.54968687200000       -0.01770135430000        1.87612764120000
H           -3.94704052250000       -0.56324239450000        2.57420286540000
H           -2.62126224200000       -0.27903379410000        1.83153793850000
O            0.45150127470000        0.00365477160000        5.86964639230000
H            0.67659064060000       -0.88947770690000        5.52678162120000
H           -0.36011529700000       -0.13767374610000        6.37954263300000
O           -0.48508248500000        1.33143265000000        3.76276190550000
H           -0.02026515100000        0.84740082080000        4.48034507160000
H            0.15747251460000        1.90562322510000        3.30555281750000
O            5.04581931120000       -1.57411627810000       -1.85058893090000
H            5.49893249280000       -2.34209698500000       -2.25940276110000
H            4.08532860440000       -1.75053737590000       -1.89984289970000
O           -3.64064227830000       -4.66313407210000        4.31304282680000
H           -3.11480355230000       -4.52935926740000        5.10351775190000
H           -4.56833159740000       -4.66169951570000        4.60149655800000
O           -0.31582224010000       -3.36915928000000        2.15930698280000
H           -0.35295312750000       -3.83216576590000        3.00849937650000
H            0.09608808440000       -3.97196983310000        1.51579212360000
O            1.17897554970000       -2.40632190670000        5.02300227360000
H            0.52413853110000       -3.08522882030000        4.79620056690000
H            1.50287588340000       -1.98664814680000        4.20825821720000
O           -1.34426177630000       -0.89999924110000        7.76366998290000
H           -2.04193293910000       -0.22841341900000        7.85861401550000
H           -0.69532092400000       -0.77932451970000        8.46167618680000
O            4.63500205350000        2.82738784620000        3.29176613310000
H            5.52883755810000        2.41803613970000        3.32192870440000
H            4.21656243300000        2.32084523800000        2.56329317830000
O           -0.93517561490000        4.52217811210000       -4.10405559130000
H           -0.82759585640000        3.94522795300000       -4.87462305300000
H           -0.19900146640000        5.16375331380000       -4.13407253840000
O           -3.04377413090000        2.63444632950000        2.85177117550000
H           -3.98742020020000        2.59723325300000        2.59645674110000
H           -2.86604532560000        1.80528409530000        3.33099521450000
O           -3.93761308360000       -2.36483018890000        0.01373550430000
H           -3.30650717730000       -3.04698990500000       -0.25780931190000
H           -3.80324445140000       -2.29254305950000        0.97165554710000
O            2.48052681880000       -1.91839307320000       -1.34199662210000
H            1.86750856420000       -1.24114278150000       -1.68532192940000
H            2.31961689280000       -1.95402665520000       -0.38724130820000
O            8.79678680690000        2.63616989180000        1.53813792060000
H            9.65634881440000        2.24140155510000        1.77159535800000
H            8.50696577090000        2.23610668960000        0.70946814370000
O           -3.44442178210000        3.54131350010000       -3.13668352710000
H           -4.36121814630000        3.72347745560000       -2.87789646710000
H           -2.85727892250000        4.06668751980000       -2.56149166330000
O            2.57232623620000        1.99621087680000       -1.75099749410000
H            2.20825220240000        2.65515860370000       -2.37262277700000
H            2.78595611090000        2.47006224990000       -0.91432565760000
O            0.98436536020000       -3.63584566320000        7.55509896570000
H            0.02654704290000       -3.65073480850000        7.54366405100000
H            1.24002635330000       -2.72464181500000        7.79761428510000
O           -2.84239962990000       -2.71408237120000        2.48210603540000
H           -2.01725302910000       -3.08241082380000        2.11428150310000
H           -3.29354351360000       -3.43369386710000        2.94955717960000
O            1.69146059610000       -0.35622079770000       -6.33953045940000
H            0.88018527170000       -0.80238871360000       -6.69053160180000
H            1.33286373590000        0.36895584410000       -5.77056384170000
O            3.17217398770000        6.90669843430000       -3.31945612210000
H            2.81763511140000        7.62397569070000       -2.78248934370000
H            3.38465464660000        6.19346271320000       -2.66869182130000
O            0.35327930810000        5.26788685570000       -6.96791237790000
H            0.56898406070000        5.74360144510000       -6.14281303620000
H            1.00131593350000        5.53602825180000       -7.61726870580000
O            4.08041444170000       -4.97667998230000       -4.11619372300000
H            4.59857224250000       -4.18804285440000       -4.36120496390000
H            4.57502509570000       -5.39979134570000       -3.39759984970000
O           -2.06658190860000       -4.30774285790000       -0.14494621930000
H           -2.39353796430000       -4.82485494350000        0.61845819100000
H           -1.69279193870000       -4.95490589400000       -0.76397875600000
O          -10.23794507670000       -1.29529081970000        3.56462466110000
H          -10.66930438760000       -0.46817183580000        3.25651342660000
H          -10.33227576540000       -1.89430551350000        2.80397444480000
O           -7.13325378870000       -2.43586422050000        1.14915780860000
H           -6.34002857520000       -2.95713671300000        1.39617499270000
H           -6.84426542990000       -1.49850503590000        1.17362768050000
O           -0.71903354550000       -0.53776203900000        1.88792692320000
H           -0.54223367720000       -1.43746209110000        2.19367916890000
H           -0.71657273090000        0.06218540340000        2.66796191720000
O            1.80326989030000        3.60912376160000       -3.72941650090000
H            2.63374974670000        3.87262541820000       -4.16255102220000
H            1.47489641090000        4.33634965350000       -3.16603754030000
O           -1.21575563250000        7.90346016720000       -3.19613592600000
H           -1.79331555120000        7.55106071430000       -3.88712567940000
H           -1.73356200270000        7.78783489700000       -2.37558998090000
O           -5.18795467290000       -1.59440529350000        3.46452394860000
H           -5.18559598190000       -2.45112701120000        3.01362766030000
H           -6.08316498000000       -1.21281693290000        3.35516002980000
O            5.66620914970000        4.04351117050000        5.65054744540000
H            5.36149697410000        3.75730482350000        4.77932527110000
H            5.83105293830000        3.22042108010000        6.13273230050000
O           -5.67297004960000       -6.43326349740000       -3.24947942740000
H           -6.58990858630000       -6.15716974650000       -3.11110328690000
H           -5.45504251010000       -7.04100173770000       -2.52681425390000
O            3.24104127140000        3.35754184680000        0.40419280140000
H            2.70686875990000        3.07907426380000        1.15944443100000
H            4.18967420400000        3.25875661090000        0.60937524580000
O            5.09255596610000        0.86042048750000       -0.71424126150000
H            5.06552361080000        1.65822355410000       -1.27488630390000
H            5.00744098160000        0.08756786940000       -1.29049813510000
O            0.10159408120000       -6.99485588710000        4.73208636280000
H            0.59654050820000       -7.01101894800000        3.88566584550000
H           -0.58832094850000       -7.65339892640000        4.63704762950000
O           -6.81263984970000       -5.76641543900000        3.24695115720000
H           -7.62375264900000       -5.27993302670000        3.00946120490000
H           -6.64611965420000       -5.58253513080000        4.17916359430000
O            2.15424797880000       -4.48445862200000       -2.26654411880000
H            2.30082882950000       -3.60895031410000       -1.86633650280000
H            2.78419508510000       -4.56037132470000       -3.00388213320000
O            4.23244244930000        3.61986337470000       -4.82337932240000
H            4.59017908350000        3.28239590480000       -3.96792210410000
H            4.15851014860000        2.85388978670000       -5.41485108500000
O            3.82666313350000        5.13256798390000       -1.48546478050000
H            3.20549799060000        5.09486167790000       -0.73626204330000
H            4.64923047200000        5.51452380440000       -1.11656459560000
O            2.51955043070000       -1.67078976420000       -4.13215759810000
H            1.75173024000000       -2.05613588940000       -3.66162937210000
H            2.16567214550000       -1.26456267050000       -4.94519765280000
O           -3.63739701890000        0.72627059840000       -5.81598209770000
H           -4.04137509570000       -0.15880088460000       -5.92219716370000
H           -3.00858306990000        0.68968131380000       -5.06989804040000
O           -0.48652858720000       -4.25376501410000       -7.28642792230000
H           -0.45403923650000       -3.28966029580000       -7.41751101550000
H            0.37015701880000       -4.50620718250000       -6.91849411220000
O            3.26274504090000        5.37822842130000        5.44320297080000
H            2.53607016990000        4.89460308800000        5.86215718940000
H            4.08585006800000        4.98633365870000        5.78013158850000
O            0.61176471200000        1.43497747460000       -4.76868425390000
H            1.07440622020000        2.19026903850000       -4.34996359340000
H           -0.05466972550000        1.84809898970000       -5.33746977150000
O            3.84499769770000        0.88322685700000        1.64085441100000
H            4.29020868340000        0.93908679630000        0.77280530200000
H            4.38973613620000        0.32722644760000        2.21251914860000
O           -1.35937818610000        2.67708537560000        6.01992561190000
H           -1.99695670860000        3.36914836450000        5.79754650700000
H           -1.22578419740000        2.17237711800000        5.19056229760000
O            2.71677976660000        1.69811178270000        4.80341377610000
H            2.94794167650000        1.10512085350000        5.56435404530000
H            3.56051623700000        2.07472027790000        4.48850041100000
O            0.89695321430000        0.06938331830000       -2.29298808970000
H            0.69842831090000        0.41620893930000       -3.17366189630000
H            1.45325536620000        0.76175279250000       -1.86656677980000
O           -4.95521463410000       -1.60102006350000       -5.85741286100000
H           -5.03720103920000       -2.44722706780000       -6.30314076430000
H           -4.80281430060000       -1.81925819560000       -4.90472061550000
O           -1.53612487080000       -1.68085720040000       -4.55956746000000
H           -0.81785604950000       -2.05851818590000       -3.97868369860000
H           -1.61359880510000       -0.74733544930000       -4.25970993190000
O           -1.80906742960000       -8.17642782450000       -0.66148072650000
H           -1.34088522830000       -7.38988766380000       -1.01942064900000
H           -1.50802605970000       -8.93689941180000       -1.15742352220000
O            7.82127185290000       -4.59331229870000        1.96689047250000
H            7.46471715280000       -5.22689471380000        1.31609403840000
H            8.69481261080000       -4.32220261930000        1.64064630010000
O            2.99730193950000       -8.06584046370000        0.91737459800000
H            3.77276355530000       -7.56363022880000        1.22955484560000
H            2.80747847210000       -7.75457205110000        0.01679069510000
O           -5.58472864700000        1.06791608010000        4.48894994300000
H           -4.67885900600000        0.70709223110000        4.41321661390000
H           -6.10587319560000        0.41643323320000        5.00209427350000
O            8.07058355020000        3.92128689060000        3.99846780660000
H            7.59635519620000        4.15573827420000        4.80416795350000
H            8.95461562400000        3.56755141830000        4.25109207400000
O            9.36999631210000        3.95388105720000       -1.94070928980000
H            8.61814054330000        4.45387574860000       -2.31695148040000
H            9.57621518610000        4.41708134550000       -1.08952969950000
O            9.62556935030000        4.94980978290000        0.46810216350000
H            9.35978953290000        4.14662465630000        0.97103838130000
H            9.02949810030000        5.63900911690000        0.76944345130000
O           -5.96925836820000        0.27348725580000       -1.88522448970000
H           -5.88381144530000        0.52843677030000       -2.82386835100000
H           -5.97997078880000       -0.71949296090000       -1.84615626580000
O            6.57306720780000        0.90645948660000       -6.79939078750000
H            5.60632308810000        0.95973861580000       -6.68606373140000
H            6.84764218860000        0.09028794150000       -6.34827220700000
O           -3.02085720380000        0.56603006370000        4.71974052780000
H           -3.05272852190000        0.68085536940000        5.68401537630000
H           -2.40382056350000       -0.18307320320000        4.56052205400000
O           -8.92433825370000        0.32553065620000        0.91877166540000
H           -8.53270262180000        1.19117116430000        0.69598156470000
H           -8.35529567770000       -0.03631433270000        1.63208575120000
O           -9.56629192980000        2.22530544800000       -4.08894526080000
H           -9.10892766130000        1.83774941540000       -3.30710517790000
H          -10.28403876930000        1.62570681290000       -4.29848870040000
O            8.57966177730000       -5.06902883570000       -1.39944348560000
H            9.48109499840000       -4.82207427460000       -1.60587383610000
H            8.19227228180000       -4.29189806600000       -0.94378398970000
O            7.46750744400000       -2.91232469210000       -0.22523444480000
H            6.56366853330000       -2.77236707270000        0.06712224150000
H            7.66360304390000       -2.23235879400000       -0.88673583300000
O           -4.90071617150000        2.82078935910000        6.36261379120000
H           -4.28419420220000        3.42487798220000        5.91060440150000
H           -5.18975733120000        2.17525864840000        5.67345582030000
O            0.44842834230000        3.22072712880000       -0.03093848800000
H            0.80373194490000        2.37109923380000        0.29349512160000
H           -0.06735113500000        3.61920835490000        0.68332303930000
O           -5.01202067500000        5.86239097130000        3.66670326540000
H           -5.88463665590000        5.55222170500000        3.38362267350000
H           -4.49367990480000        5.96071950350000        2.84810554460000
O           -1.90195754410000        4.80773494890000       -1.32097500560000
H           -0.96733892800000        4.94460091700000       -1.57610179300000
H           -1.91135175260000        4.10434484620000       -0.64155534490000
O           -0.37025490670000        7.10915005980000        0.55703563870000
H           -0.62172838410000        6.26401938430000        0.99453804400000
H           -1.15773695910000        7.40132799220000        0.08803101640000
O            2.30996661800000       -4.34246503710000        3.05772602070000
H            2.09459095450000       -4.48258091920000        4.00035838830000
H            3.26827900870000       -4.14739162730000        3.06850306930000
O            7.02265600370000       -2.07035678440000        2.51621223080000
H            7.32524092590000       -2.89766450460000        2.09842085880000
H            7.12639809100000       -1.34630994830000        1.87104656330000
O           -0.52766791920000       -1.53023648440000       -7.03137646680000
H           -0.93823815000000       -1.59420943510000       -6.14048098580000
H           -0.99198251920000       -0.78552165770000       -7.47648087580000
O           -7.68269787310000       -0.54121215780000        3.15214781160000
H           -8.52939391250000       -0.92770262320000        3.45332651420000
H           -7.66822234170000        0.37296389660000        3.48575453240000
O            3.88041389590000        0.52616796490000       -3.46871942900000
H            3.37257880760000       -0.30691099140000       -3.51174385050000
H            3.44044204670000        1.10160874810000       -2.79829343640000
O           -0.95572166130000        2.98947051570000       -6.41800584670000
H           -0.49075048300000        3.74988020680000       -6.81189861970000
H           -1.90195385690000        3.24236227240000       -6.32252351880000
O            6.16868202110000       -1.30189817260000        6.15355731440000
H            6.95976387190000       -1.76295328350000        5.79939797930000
H            5.53556963800000       -1.98109035730000        6.40695030400000
O            3.75638286530000       -2.49223000770000        5.77120863980000
H            4.09114713620000       -2.78174860020000        4.90515789320000
H            2.79672378990000       -2.63994567240000        5.74143291250000
O           -0.01409955420000       -5.13943055860000       -4.03844112310000
H           -0.83787680380000       -4.94992871710000       -4.52187932450000
H            0.71196583160000       -5.02218593270000       -4.67110580180000
O            7.00284837300000        4.97157622300000       -2.66505038370000
H            6.76457593150000        5.52883411020000       -1.90379138890000
H            6.59097082580000        5.41203930870000       -3.44150573440000
O            6.27695680950000       -3.71977405310000       -2.79698593810000
H            7.20025237060000       -3.54395344210000       -3.03989989550000
H            6.27835580880000       -4.52045010400000       -2.26389391050000
O            5.05036755820000       -0.59168028980000        3.74054376340000
H            5.69920752580000       -1.09535203690000        3.22925274920000
H            5.35022979680000       -0.69281489390000        4.66403708800000
O            0.99358141700000       -4.94041049190000        0.35859812550000
H            1.92198443220000       -4.69987268140000        0.17845042620000
H            1.03443418340000       -5.68229810990000        0.99099680300000
O            2.38025599670000       -0.65291321100000        3.44059929070000
H            2.21015439260000        0.20060331790000        3.86879856520000
H            3.33687809620000       -0.79450004140000        3.58790387290000
O            9.33784056950000        0.03989053280000        0.03161772670000
H            8.96491223340000       -0.39737640110000       -0.76050340240000
H            9.95249646210000        0.73198454380000       -0.28056815440000
O           -6.04698863280000       -4.29784729370000        5.56305026990000
H           -6.93847438720000       -3.92105242420000        5.48998213790000
H           -5.51453272450000       -3.55622944940000        5.90987551590000
O           -2.18301547880000       -3.14655884830000        6.57740614400000
H           -3.10134398130000       -2.84097949470000        6.43259502750000
H           -1.81468860520000       -2.45551910800000        7.15782407170000
O          -10.30395160100000        3.16324171130000       -0.35430701560000
H           -9.83804515380000        3.63213831600000       -1.06515173240000
H          -10.79054069500000        2.44197231590000       -0.76428331510000
O           -4.02161974370000       -2.12056072550000       -3.45290060700000
H           -4.04526109560000       -3.05552347440000       -3.17528531240000
H           -3.12184994380000       -1.97287568480000       -3.77985105510000
O           -0.59215181530000        5.15428972210000        4.30869543930000
H           -1.50112830350000        5.07144244950000        4.64024292760000
H           -0.01752516970000        4.63272713840000        4.89846187110000
O           -7.35862985580000        4.77590497850000        2.66974761370000
H           -7.50384826000000        5.14883064500000        1.78453607400000
H           -8.23117844720000        4.47714977110000        2.95315100950000
O           -6.14219870460000       -2.26085091570000       -1.41921465740000
H           -6.07916270070000       -2.72943037890000       -2.26902082340000
H           -5.32580024330000       -2.41213124750000       -0.89853305990000
O           -7.61809575450000        2.59390834810000        0.37819129510000
H           -6.98327617420000        2.47273953690000        1.10442153990000
H           -7.81555398190000        3.54621941380000        0.32948666650000
O           -3.03647862420000        1.15675898720000        7.41764130890000
H           -2.32562263900000        1.76750395030000        7.13374396770000
H           -3.85409401360000        1.68451102220000        7.34940312640000
O            6.84655049230000       -4.73577845650000        4.48118460040000
H            7.39757867880000       -4.09279388290000        4.94485792560000
H            7.29100429160000       -4.86517938500000        3.62206133850000
O            4.77255395390000       -2.12070920690000        0.75417818660000
H            3.89068117680000       -1.83618654290000        1.04333859540000
H            4.89224990320000       -1.76475728300000       -0.15102838150000
O           -8.69076624550000       -3.87607146450000        2.69083976670000
H           -9.54037313650000       -3.88427334120000        2.24042017830000
H           -8.12933613570000       -3.26686616210000        2.14777823800000
O            2.11730895460000        5.98036923900000        0.50672116430000
H            2.16564968540000        5.61205589340000        1.40369671430000
H            1.28279090180000        6.47008024570000        0.48600091100000
O           -4.94845677020000       -4.53809689990000       -5.66670635460000
H           -5.20663401450000       -5.44336801300000       -5.48042465910000
H           -3.97743539660000       -4.49966640490000       -5.57503323330000
O          -12.29566801090000       -0.67015361350000        0.23698209210000
H          -13.17117209240000       -0.80222020740000       -0.12368911130000
H          -11.77631345740000       -0.18383250600000       -0.45770124840000
O           -6.91851419090000       -0.68386058890000        6.02764271770000
H           -7.72433236910000       -0.16381150160000        6.21467618560000
H           -7.26954866740000       -1.48731751070000        5.60571932930000
O           -8.33154826720000       -2.87477613970000        5.11890141630000
H           -8.51308789320000       -3.20078651470000        4.20791131100000
H           -9.18213252310000       -2.62761615130000        5.48386654530000
O           -4.82130103860000       -5.10790999680000       -0.37822877210000
H           -4.72794895390000       -6.07486032750000       -0.49080051810000
H           -4.31759051410000       -4.71959232710000       -1.10558500420000
O           -6.59051423330000       -3.33905361350000       -3.82237525060000
H           -6.04746748150000       -3.73075958850000       -4.52440198050000
H           -7.21068812600000       -4.03908929560000       -3.51478535180000
O            9.66468563210000        2.58434469520000       -4.28154992580000
H            8.79066372500000        2.79738427850000       -4.65830621220000
H            9.73568915450000        3.12121446440000       -3.47778475180000
O           -0.50852819260000       -6.03037860670000       -1.54867635670000
H           -0.25585021560000       -5.76894737000000       -2.44850076140000
H            0.15045884830000       -5.62342762180000       -0.94258226380000
O           -5.22061568620000       -4.00301124630000        2.04806386630000
H           -5.74876162500000       -4.70383723660000        2.48215052290000
H           -4.88633352690000       -4.39588278730000        1.22034280070000
O           11.26193030970000        1.59606393380000        2.00370735560000
H           11.55234682860000        1.73023006720000        1.09330992820000
H           11.21136334440000        0.64116395540000        2.15309058460000
O           -4.57741307130000       -7.72017156070000       -0.93125842650000
H           -3.63242076690000       -7.92997527750000       -0.86163227240000
H           -4.94043524130000       -7.89797731660000       -0.04069185290000
O           -7.38957109120000       -0.24314991050000       -6.20428171000000
H           -6.53068757750000       -0.69092610840000       -6.22462751070000
H           -7.76062840320000       -0.46236736680000       -5.33786004790000
O            1.12081800400000        7.90922661350000       -1.72174186570000
H            0.84328719220000        8.06750396320000       -0.81319489830000
H            0.35264363130000        8.11344509440000       -2.27583723520000
O            3.69656790240000       -4.52948209110000        0.25193829710000
H            4.11412864550000       -3.66508089190000        0.43701138870000
H            4.00739043500000       -5.13234596430000        0.95761039060000
O           -0.46340363120000        2.45917906640000       -2.41322162420000
H           -0.14712809920000        2.73604741710000       -1.53194519050000
H           -0.64872973310000        3.27008593870000       -2.90884578250000
O            3.15493587630000       -2.43876200100000       -7.32430208870000
H            2.69922987440000       -1.62117634270000       -7.05837770570000