      -----------------------------------------------------------      
     |                   =====================                   |     
     |                           x T B                           |     
     |                   =====================                   |     
     |                         S. Grimme                         |     
     |          Mulliken Center for Theoretical Chemistry        |     
     |                    University of Bonn                     |     
      -----------------------------------------------------------      

   * xtb version 6.5.1 (579679a) compiled by 'ehlert@majestix' on 2022-07-11

   xtb is free software: you can redistribute it and/or modify it under
   the terms of the GNU Lesser General Public License as published by
   the Free Software Foundation, either version 3 of the License, or
   (at your option) any later version.
   
   xtb is distributed in the hope that it will be useful,
   but WITHOUT ANY WARRANTY; without even the implied warranty of
   MERCHANTABILITY or FITNESS FOR A PARTICULAR PURPOSE.  See the
   GNU Lesser General Public License for more details.
   
   Cite this work as:
   * C. Bannwarth, E. Caldeweyher, S. Ehlert, A. Hansen, P. Pracht,
     J. Seibert, S. Spicher, S. Grimme, WIREs Comput. Mol. Sci., 2020, 11,
     e01493. DOI: 10.1002/wcms.1493
   
   for GFN2-xTB:
   * C. Bannwarth, S. Ehlert and S. Grimme., J. Chem. Theory Comput., 2019,
     15, 1652-1671. DOI: 10.1021/acs.jctc.8b01176
   for GFN1-xTB:
   * S. Grimme, C. Bannwarth, P. Shushkov, J. Chem. Theory Comput., 2017,
     13, 1989-2009. DOI: 10.1021/acs.jctc.7b00118
   for GFN0-xTB:
   * P. Pracht, E. Caldeweyher, S. Ehlert, S. Grimme, ChemRxiv, 2019, preprint.
     DOI: 10.26434/chemrxiv.8326202.v1
   for GFN-FF:
   * S. Spicher and S. Grimme, Angew. Chem. Int. Ed., 2020, 59, 15665-15673.
     DOI: 10.1002/anie.202004239
   
   for ALPB and GBSA implicit solvation:
   * S. Ehlert, M. Stahn, S. Spicher, S. Grimme, J. Chem. Theory Comput.,
     2021, 17, 4250-4261. DOI: 10.1021/acs.jctc.1c00471
   
   for DFT-D4:
   * E. Caldeweyher, C. Bannwarth and S. Grimme, J. Chem. Phys., 2017,
     147, 034112. DOI: 10.1063/1.4993215
   * E. Caldeweyher, S. Ehlert, A. Hansen, H. Neugebauer, S. Spicher,
     C. Bannwarth and S. Grimme, J. Chem. Phys., 2019, 150, 154122.
     DOI: 10.1063/1.5090222
   * E. Caldeweyher, J.-M. Mewes, S. Ehlert and S. Grimme, Phys. Chem. Chem. Phys.
     2020, 22, 8499-8512. DOI: 10.1039/D0CP00502A
   
   for sTDA-xTB:
   * S. Grimme and C. Bannwarth, J. Chem. Phys., 2016, 145, 054103.
     DOI: 10.1063/1.4959605
   
   in the mass-spec context:
   * V. Asgeirsson, C. Bauer and S. Grimme, Chem. Sci., 2017, 8, 4879.
     DOI: 10.1039/c7sc00601b
   * J. Koopman and S. Grimme, ACS Omega 2019, 4, 12, 15120-15133.
     DOI: 10.1021/acsomega.9b02011
   
   for metadynamics refer to:
   * S. Grimme, J. Chem. Theory Comput., 2019, 155, 2847-2862
     DOI: 10.1021/acs.jctc.9b00143
   
   for SPH calculations refer to:
   * S. Spicher and S. Grimme, J. Chem. Theory Comput., 2021, 17, 1701-1714
     DOI: 10.1021/acs.jctc.0c01306
   
   with help from (in alphabetical order)
   P. Atkinson, C. Bannwarth, F. Bohle, G. Brandenburg, E. Caldeweyher
   M. Checinski, S. Dohm, S. Ehlert, S. Ehrlich, I. Gerasimov, C. Hölzer
   A. Katbashev, J. Koopman, C. Lavigne, S. Lehtola, F. März, M. Müller,
   F. Musil, H. Neugebauer, J. Pisarek, C. Plett, P. Pracht, F. Pultar,
   J. Seibert, P. Shushkov, S. Spicher, M. Stahn, M. Steiner, T. Strunk,
   J. Stückrath, T. Rose, and J. Unsleber
   
 * started run on 2022/10/12 at 03:15:58.515     

           -------------------------------------------------
          |                Calculation Setup                |
           -------------------------------------------------

          program call               : xtb cluster.xyz --gfn2 --ohess
          hostname                   : cn1257
          coordinate file            : cluster.xyz
          omp threads                :                    10

   ID    Z sym.   atoms
    1    6 C      1-4
    2    1 H      5-12, 15, 16, 18, 19, 21, 22, 24, 25, 27, 28, 30, 31, 33,
                  34, 36, 37, 39, 40, 42, 43, 45, 46, 48, 49, 51, 52, 54, 55,
                  57, 58, 60, 61, 63, 64, 66, 67, 69, 70, 72, 73, 75, 76, 78,
                  79, 81, 82, 84, 85, 87, 88, 90, 91
    3    8 O      13, 17, 20, 23, 26, 29, 32, 35, 38, 41, 44, 47, 50, 53, 56,
                  59, 62, 65, 68, 71, 74, 77, 80, 83, 86, 89
    4    7 N      14

molecular fragmentation (1/2 indicates fragments):
111111111111111122222222222222222222222222222222222222222222222222222222
2222222222222222222
# atoms in fragment 1/2:    16    75
 fragment masses (1/2) :       88.13      450.38
CMA distance (Bohr)    :   1.071
constraining FC (au)   :  0.0500

           -------------------------------------------------
          |                 G F N 2 - x T B                 |
           -------------------------------------------------

        Reference                      10.1021/acs.jctc.8b01176
      * Hamiltonian:
        H0-scaling (s, p, d)           1.850000    2.230000    2.230000
        zeta-weighting                 0.500000
      * Dispersion:
        s8                             2.700000
        a1                             0.520000
        a2                             5.000000
        s9                             5.000000
      * Repulsion:
        kExp                           1.500000    1.000000
        rExp                           1.000000
      * Coulomb:
        alpha                          2.000000
        third order                    shell-resolved
        anisotropic                    true
        a3                             3.000000
        a5                             4.000000
        cn-shift                       1.200000
        cn-exp                         4.000000
        max-rad                        5.000000


          ...................................................
          :                      SETUP                      :
          :.................................................:
          :  # basis functions                 184          :
          :  # atomic orbitals                 184          :
          :  # shells                          122          :
          :  # electrons                       237          :
          :  max. iterations                   250          :
          :  Hamiltonian                  GFN2-xTB          :
          :  restarted?                      false          :
          :  GBSA solvation                  false          :
          :  PC potential                    false          :
          :  electronic temp.          300.0000000     K    :
          :  accuracy                    1.0000000          :
          :  -> integral cutoff          0.2500000E+02      :
          :  -> integral neglect         0.1000000E-07      :
          :  -> SCF convergence          0.1000000E-05 Eh   :
          :  -> wf. convergence          0.1000000E-03 e    :
          :  Broyden damping             0.4000000          :
          ...................................................

 iter      E             dE          RMSdq      gap      omega  full diag
   1   -148.6766533 -0.148677E+03  0.395E+00    6.44       0.0  T
   2   -148.7348705 -0.582172E-01  0.234E+00    6.07       1.0  T
   3   -148.7311165  0.375399E-02  0.671E-01    6.71       1.0  T
   4   -148.7451981 -0.140816E-01  0.136E-01    6.16       1.0  T
   5   -148.7454086 -0.210453E-03  0.515E-02    6.15       1.0  T
   6   -148.7454204 -0.118765E-04  0.192E-02    6.16       1.0  T
   7   -148.7454222 -0.175827E-05  0.621E-03    6.17       1.7  T
   8   -148.7454226 -0.371595E-06  0.136E-03    6.17       7.7  T
   9   -148.7454226 -0.125541E-07  0.434E-04    6.17      24.2  T
  10   -148.7454226 -0.246956E-08  0.786E-05    6.17     133.4  T

   *** convergence criteria satisfied after 10 iterations ***

         #    Occupation            Energy/Eh            Energy/eV
      -------------------------------------------------------------
         1        2.0000           -0.6937765             -18.8786
       ...           ...                  ...                  ...
       113        2.0000           -0.4229186             -11.5082
       114        2.0000           -0.4215142             -11.4700
       115        2.0000           -0.4201670             -11.4333
       116        2.0000           -0.4143658             -11.2755
       117        2.0000           -0.4109940             -11.1837
       118        2.0000           -0.3863152             -10.5122
       119        1.0000           -0.2672213              -7.2715 (HOMO)
       120                         -0.0404618              -1.1010 (LUMO)
       121                         -0.0178352              -0.4853
       122                         -0.0073542              -0.2001
       123                         -0.0063198              -0.1720
       124                          0.0167155               0.4549
       ...                                ...                  ...
       184                          0.4016987              10.9308
      -------------------------------------------------------------
                  HL-Gap            0.2267595 Eh            6.1704 eV
             Fermi-level           -0.2403049 Eh           -6.5390 eV

 SCC (total)                   0 d,  0 h,  0 min,  0.100 sec
 SCC setup                      ...        0 min,  0.002 sec (  2.257%)
 Dispersion                     ...        0 min,  0.001 sec (  1.484%)
 classical contributions        ...        0 min,  0.001 sec (  1.230%)
 integral evaluation            ...        0 min,  0.006 sec (  6.073%)
 iterations                     ...        0 min,  0.067 sec ( 67.335%)
 molecular gradient             ...        0 min,  0.021 sec ( 20.648%)
 printout                       ...        0 min,  0.001 sec (  0.892%)

         :::::::::::::::::::::::::::::::::::::::::::::::::::::
         ::                     SUMMARY                     ::
         :::::::::::::::::::::::::::::::::::::::::::::::::::::
         :: total energy            -147.740883980371 Eh    ::
         :: gradient norm              0.000215549042 Eh/a0 ::
         :: HOMO-LUMO gap              6.170438822997 eV    ::
         ::.................................................::
         :: SCC energy              -148.745422589932 Eh    ::
         :: -> isotropic ES            0.790561490712 Eh    ::
         :: -> anisotropic ES         -0.140081752172 Eh    ::
         :: -> anisotropic XC         -0.008497776742 Eh    ::
         :: -> dispersion             -0.072585356508 Eh    ::
         :: repulsion energy           0.997985645077 Eh    ::
         :: add. restraining           0.000000000000 Eh    ::
         :: total charge              -0.000000000000 e     ::
         :::::::::::::::::::::::::::::::::::::::::::::::::::::

      ----------------------------------------------------------- 
     |                   =====================                   |
     |                        A N C O P T                        |
     |                   =====================                   |
     |               Approximate Normal Coordinate               |
     |                Rational Function Optimizer                |
      ----------------------------------------------------------- 

          ...................................................
          :                      SETUP                      :
          :.................................................:
          :   optimization level            normal          :
          :   max. optcycles                   273          :
          :   ANC micro-cycles                  20          :
          :   degrees of freedom               267          :
          :.................................................:
          :   RF solver                   davidson          :
          :   write xtbopt.log                true          :
          :   linear?                        false          :
          :   energy convergence         0.5000000E-05 Eh   :
          :   grad. convergence          0.1000000E-02 Eh/α :
          :   maximium RF displ.         1.0000000          :
          :   Hlow (freq-cutoff)         0.1000000E-01      :
          :   Hmax (freq-cutoff)         5.0000000          :
          :   S6 in model hess.         20.0000000          :
          ...................................................

generating ANC from model Hessian ...
Using Lindh-Hessian (1995)
 Shifting diagonal of input Hessian by   1.005355745181303E-002
 Lowest  eigenvalues of input Hessian
    0.010000    0.000000    0.000000    0.000000    0.000000    0.000000
    0.000000    0.010096    0.010105    0.010145    0.010248    0.010288
    0.010320    0.010401    0.010413    0.010464    0.010533    0.010552
 Highest eigenvalues
    1.414179    1.414953    1.420536    1.495238    1.542358    1.705958
 

........................................................................
.............................. CYCLE    1 ..............................
........................................................................
   1   -148.7454226 -0.148745E+03  0.333E-05    6.17       0.0  T
   2   -148.7454226 -0.115108E-10  0.187E-05    6.17     559.6  T
   3   -148.7454226 -0.162004E-11  0.727E-06    6.17    1442.5  T
     SCC iter.                  ...        0 min,  0.018 sec
     gradient                   ...        0 min,  0.020 sec
 * total energy  :  -147.7408840 Eh     change       -0.1070077E-09 Eh
   gradient norm :     0.0002152 Eh/α   predicted     0.0000000E+00 (-100.00%)
   displ. norm   :     0.0079831 α      lambda       -0.4987960E-07
   maximum displ.:     0.0030490 α      in ANC's #2, #13, #57, ...

   *** GEOMETRY OPTIMIZATION CONVERGED AFTER 1 ITERATIONS ***

------------------------------------------------------------------------
 total energy gain   :        -0.0000000 Eh       -0.0000 kcal/mol
 total RMSD          :         0.0000000 a0        0.0000 Å
 total power (kW/mol):        -0.0000003 (step)   -0.0000 (real)
------------------------------------------------------------------------

 ANCopt (total)                0 d,  0 h,  0 min,  0.259 sec
 optimizer setup                ...        0 min,  0.001 sec (  0.238%)
 model hessian                  ...        0 min,  0.202 sec ( 78.162%)
 ANC generation                 ...        0 min,  0.007 sec (  2.837%)
 coordinate transformation      ...        0 min,  0.000 sec (  0.027%)
 single point calculation       ...        0 min,  0.046 sec ( 17.868%)
 optimization log               ...        0 min,  0.002 sec (  0.670%)
 hessian update                 ...        0 min,  0.000 sec (  0.001%)
 rational function              ...        0 min,  0.000 sec (  0.084%)

================
 final structure:
================
91
 xtb: 6.5.1 (579679a)
C            1.43189739240000       -0.16210141830000       -0.19927013670000
C           -0.50473898020000       -0.77568203380000        1.11884438260000
C           -1.69319353480000        0.05323169660000        0.65537197170000
C            1.00030462670000        1.22147198530000       -0.43979597180000
H            1.91650735450000       -0.58990540900000       -1.08287079800000
H           -0.85291146400000       -1.73108621990000        1.50729216310000
H           -2.20693362620000       -0.45597667370000       -0.15338484310000
H            0.30942385590000        1.45594647500000       -1.22405322230000
H            2.12338476270000       -0.19227869420000        0.64749915330000
H            0.04815008300000       -0.26220442800000        1.90765801690000
H           -2.38409263920000        0.18524907710000        1.47649391880000
H           -1.36396102560000        1.02487280030000        0.30762952930000
O            0.37633829580000       -1.10782976020000        0.05674945390000
N            1.26917828780000        2.22352018750000        0.49919477410000
H            1.27974654830000        3.14862108530000        0.08790691670000
H            2.11965940420000        2.04406343170000        1.02263336870000
O            1.53009942960000       -3.53611260460000       -1.75586132110000
H            0.56023590140000       -3.45867730790000       -1.71532181870000
H            1.84131432500000       -3.39141876900000       -0.84052160310000
O           -3.92908000350000        2.53460643940000        1.56121512250000
H           -3.47136611950000        2.12204632680000        2.31390414850000
H           -3.24978571540000        2.97690344040000        1.04012729270000
O           -1.09817172130000       -2.75682151790000       -1.44906486110000
H           -0.58245369680000       -2.15545604380000       -0.87284846190000
H           -1.50197099210000       -2.16078814160000       -2.09692402540000
O           -1.89936774960000       -0.54529712650000       -2.94450336240000
H           -2.41194535860000       -0.58618498950000       -3.75289354140000
H           -2.25032480930000        0.22851050650000       -2.44438918990000
O           -2.82854193350000        1.74369853300000       -1.92446962620000
H           -2.51273560900000        2.21698545810000       -1.14250360550000
H           -2.40284713000000        2.20673492730000       -2.67961495190000
O            2.37675598750000       -1.69829882640000       -3.35756367020000
H            2.03838877200000       -2.40028428450000       -2.71528586210000
H            2.48614636710000       -2.14992099090000       -4.19542782570000
O           -1.35861319300000       -3.33925641910000        3.04564181380000
H           -1.77470739930000       -3.54437228190000        2.16762528580000
H           -1.49573024580000       -4.11280438540000        3.59354043630000
O            3.95641734900000        0.94118054830000        1.70776723660000
H            3.30724166180000        0.67190694310000        2.42659785930000
H            4.72030175150000        1.28259200890000        2.17474501900000
O            0.09014580480000        1.95962878090000        3.09967365630000
H            0.21819162740000        1.98198658550000        2.13870616190000
H           -0.82931282990000        1.69101513590000        3.26822923650000
O           -1.55793198300000        3.40586090560000        0.07806723440000
H           -1.06606209250000        3.47134182700000        0.90060359030000
H           -0.96947192650000        3.75845651130000       -0.61009317880000
O           -4.51430819490000       -1.64910099260000        1.08315518590000
H           -4.58648822840000       -0.79658522180000        0.58044829590000
H           -5.41284574830000       -1.96204955570000        1.19174360060000
O            4.56939695750000       -1.49843702080000        0.51178697160000
H            4.63953168410000       -1.27599466690000       -0.42943945850000
H            4.38572271330000       -0.66111260460000        0.97383376910000
O           -2.58972119710000       -3.64684410540000        0.71992927270000
H           -3.28255086430000       -2.96727378330000        0.76681161830000
H           -2.07817164920000       -3.45268135450000       -0.08616092740000
O            2.56798498590000       -3.21367373700000        0.77990559730000
H            3.30789066560000       -2.56034207900000        0.69361160160000
H            2.97618430210000       -4.03546597350000        1.05627749970000
O            0.33773720950000        4.23587064320000       -1.81273819270000
H            1.08599250980000        3.66879908630000       -2.16740315620000
H            0.53207659430000        5.13272922120000       -2.08560882790000
O           -3.18592535540000       -1.27803643980000        3.49114873190000
H           -3.69379913700000       -1.40554033080000        2.66869469470000
H           -2.46460098610000       -1.92955169180000        3.45254802170000
O            4.04247568880000        1.73466962300000       -1.06674857130000
H            4.30076942460000        0.90399644640000       -1.49526529190000
H            3.99051749980000        1.53426950340000       -0.12306504070000
O            1.35759538270000       -2.28368859550000        3.14121469600000
H            0.44551450360000       -2.59889572670000        3.19210659150000
H            1.69465039030000       -2.57926586720000        2.27858237550000
O            2.17128379060000        2.69976956090000       -2.82388218080000
H            2.85445302520000        2.40873991090000       -2.19008926830000
H            1.70654861340000        1.89597873100000       -3.11066122000000
O            2.24956299870000        0.28204198170000        3.54571949150000
H            1.46880007450000        0.86638167240000        3.54264650680000
H            1.92512021990000       -0.63856769690000        3.48670160730000
O           -1.15227410370000        2.80433631530000       -3.71886808450000
H           -0.51609961430000        2.11120960420000       -3.93509272700000
H           -0.68455849610000        3.41115824580000       -3.12185165580000
O           -2.55001554940000        1.27819531610000        3.64268414600000
H           -2.78997595690000        1.58140315360000        4.51912589980000
H           -2.76346298720000        0.30788291900000        3.62204071580000
O           -4.83355962960000        0.65420165840000       -0.17234601600000
H           -4.30237105050000        0.91797825550000       -0.93369589870000
H           -4.65922070760000        1.34331393820000        0.50229037510000
O            0.61487464260000        0.46739867770000       -3.58289999810000
H           -0.22001986840000        0.06113942870000       -3.28745257540000
H            1.26826187120000       -0.24825844900000       -3.53715114580000
O            4.59111381690000       -0.75515704820000       -2.17971303040000
H            5.31596643260000       -0.89688270080000       -2.78905298930000
H            3.77355918540000       -1.08159836540000       -2.62024948010000
 
 Bond Distances (Angstroems)
 ---------------------------
C1-C4=1.4691         C1-H5=1.0948         C1-H9=1.0937         C1-O13=1.4402        C2-C3=1.5213         C2-H6=1.0885         
C2-H10=1.0916        C2-O13=1.4194        C3-C2=1.5213         C3-H7=1.0850         C3-H11=1.0812        C3-H12=1.0832        
C4-C1=1.4691         C4-H8=1.0711         C4-N14=1.3993        H5-C1=1.0948         H6-C2=1.0885         H7-C3=1.0850         
H8-C4=1.0711         H9-C1=1.0937         H10-C2=1.0916        H11-C3=1.0812        H12-C3=1.0832        O13-C1=1.4402        
O13-C2=1.4194        N14-C4=1.3993        N14-H15=1.0125       N14-H16=1.0146       H15-N14=1.0125       H16-N14=1.0146       
O17-H18=0.9738       O17-H19=0.9776       H18-O17=0.9738       H19-O17=0.9776       O20-H21=0.9728       O20-H22=0.9636       
H21-O20=0.9728       H22-O20=0.9636       O23-H24=0.9796       O23-H25=0.9685       H24-O23=0.9796       H25-O23=0.9685       
O26-H27=0.9581       O26-H28=0.9859       H27-O26=0.9581       H28-O26=0.9859       O29-H30=0.9671       O29-H31=0.9828       
H30-O29=0.9671       H31-O29=0.9828       O32-H33=1.0098       O32-H34=0.9581       H33-O32=1.0098       H34-O32=0.9581       
O35-H36=0.9930       O35-H37=0.9578       H36-O35=0.9930       H37-O35=0.9578       O38-H39=1.0053       O38-H40=0.9582       
H39-O38=1.0053       H40-O38=0.9582       O41-H42=0.9697       O41-H43=0.9726       H42-O41=0.9697       H43-O41=0.9726       
O44-H45=0.9606       O44-H46=0.9717       H45-O44=0.9606       H46-O44=0.9717       O47-H48=0.9923       O47-H49=0.9577       
H48-O47=0.9923       H49-O47=0.9577       O50-H51=0.9697       O50-H52=0.9738       H51-O50=0.9697       H52-O50=0.9738       
O53-H54=0.9716       O53-H55=0.9743       H54-O53=0.9716       H55-O53=0.9743       O56-H57=0.9908       O56-H58=0.9583       
H57-O56=0.9908       H58-O56=0.9583       O59-H60=1.0036       O59-H61=0.9574       H60-O59=1.0036       H61-O59=0.9574       
O62-H63=0.9750       O62-H64=0.9728       H63-O62=0.9750       H64-O62=0.9728       O65-H66=0.9697       O65-H67=0.9661       
H66-O65=0.9697       H67-O65=0.9661       O68-H69=0.9664       O68-H70=0.9722       H69-O68=0.9664       H70-O68=0.9722       
O71-H72=0.9763       O71-H73=0.9718       H72-O71=0.9763       H73-O71=0.9718       O74-H75=0.9752       O74-H76=0.9779       
H75-O74=0.9752       H76-O74=0.9779       O77-H78=0.9653       O77-H79=0.9713       H78-O77=0.9653       H79-O77=0.9713       
O80-H81=0.9579       O80-H82=0.9937       H81-O80=0.9579       H82-O80=0.9937       O83-H84=0.9651       O83-H85=0.9800       
H84-O83=0.9651       H85-O83=0.9800       O86-H87=0.9744       O86-H88=0.9701       H87-O86=0.9744       H88-O86=0.9701       
O89-H90=0.9575       O89-H91=0.9844       H90-O89=0.9575       H91-O89=0.9844       
 C  H  Rav=1.0862 sigma=0.0073  Rmin=1.0711  Rmax=1.0948     8
 C  C  Rav=1.4952 sigma=0.0261  Rmin=1.4691  Rmax=1.5213     2
 N  H  Rav=1.0136 sigma=0.0011  Rmin=1.0125  Rmax=1.0146     2
 N  C  Rav=1.3993 sigma=0.0000  Rmin=1.3993  Rmax=1.3993     1
 O  H  Rav=0.9736 sigma=0.0127  Rmin=0.9574  Rmax=1.0098    50
 O  C  Rav=1.4298 sigma=0.0104  Rmin=1.4194  Rmax=1.4402     2
 
 selected bond angles (degree)
 --------------------
H5-C1-C4=111.46                H9-C1-C4=109.78                H9-C1-H5=109.53                O13-C1-C4=115.61               
O13-C1-H5=102.20               O13-C1-H9=107.92               H6-C2-C3=109.70                H10-C2-C3=111.07               
H10-C2-H6=108.48               O13-C2-C3=112.61               O13-C2-H6=105.08               O13-C2-H10=109.66              
H7-C3-C2=109.95                H11-C3-C2=109.53               H11-C3-H7=108.71               H12-C3-C2=110.43               
H12-C3-H7=109.00               H12-C3-H11=109.18              H8-C4-C1=121.03                N14-C4-C1=120.54               
N14-C4-H8=117.29               
 
 selected dihedral angles (degree)
 ---------------------------------
H7-C3-C2-H6=297.77            H7-C3-C2-H10=177.86           H7-C3-C2-O13= 54.42           H11-C3-C2-H6= 57.18           
H11-C3-C2-H10=297.26          H11-C3-C2-O13=173.82          H12-C3-C2-H6=177.45           H12-C3-C2-H10= 57.53          
H12-C3-C2-O13=294.10          H8-C4-C1-H5= 59.19            H8-C4-C1-H9=180.73            H8-C4-C1-O13=303.07           
N14-C4-C1-H5=226.63           N14-C4-C1-H9=348.17           N14-C4-C1-O13=110.51          
 
 CMA Distance (Angstroems)
 ---------------------------
R(CMA):  0.5668
           -------------------------------------------------
          |                Final Singlepoint                |
           -------------------------------------------------

          ...................................................
          :                      SETUP                      :
          :.................................................:
          :  # basis functions                 184          :
          :  # atomic orbitals                 184          :
          :  # shells                          122          :
          :  # electrons                       237          :
          :  max. iterations                   250          :
          :  Hamiltonian                  GFN2-xTB          :
          :  restarted?                      false          :
          :  GBSA solvation                  false          :
          :  PC potential                    false          :
          :  electronic temp.          300.0000000     K    :
          :  accuracy                    1.0000000          :
          :  -> integral cutoff          0.2500000E+02      :
          :  -> integral neglect         0.1000000E-07      :
          :  -> SCF convergence          0.1000000E-05 Eh   :
          :  -> wf. convergence          0.1000000E-03 e    :
          :  Broyden damping             0.4000000          :
          ...................................................

 iter      E             dE          RMSdq      gap      omega  full diag
   1   -148.7454226 -0.148745E+03  0.226E-06    6.17       0.0  T
   2   -148.7454226 -0.284217E-13  0.135E-06    6.17    7758.9  T
   3   -148.7454226  0.198952E-12  0.419E-07    6.17   25026.1  T

   *** convergence criteria satisfied after 3 iterations ***

         #    Occupation            Energy/Eh            Energy/eV
      -------------------------------------------------------------
         1        2.0000           -0.6937772             -18.8786
       ...           ...                  ...                  ...
       113        2.0000           -0.4229185             -11.5082
       114        2.0000           -0.4215139             -11.4700
       115        2.0000           -0.4201668             -11.4333
       116        2.0000           -0.4143648             -11.2754
       117        2.0000           -0.4109949             -11.1837
       118        2.0000           -0.3863170             -10.5122
       119        1.0000           -0.2672223              -7.2715 (HOMO)
       120                         -0.0404622              -1.1010 (LUMO)
       121                         -0.0178357              -0.4853
       122                         -0.0073549              -0.2001
       123                         -0.0063204              -0.1720
       124                          0.0167140               0.4548
       ...                                ...                  ...
       184                          0.4016974              10.9307
      -------------------------------------------------------------
                  HL-Gap            0.2267601 Eh            6.1705 eV
             Fermi-level           -0.2403059 Eh           -6.5391 eV

 SCC (total)                   0 d,  0 h,  0 min,  0.045 sec
 SCC setup                      ...        0 min,  0.000 sec (  0.879%)
 Dispersion                     ...        0 min,  0.001 sec (  1.728%)
 classical contributions        ...        0 min,  0.000 sec (  0.217%)
 integral evaluation            ...        0 min,  0.005 sec ( 11.271%)
 iterations                     ...        0 min,  0.018 sec ( 39.363%)
 molecular gradient             ...        0 min,  0.020 sec ( 45.337%)
 printout                       ...        0 min,  0.000 sec (  1.070%)

         :::::::::::::::::::::::::::::::::::::::::::::::::::::
         ::                     SUMMARY                     ::
         :::::::::::::::::::::::::::::::::::::::::::::::::::::
         :: total energy            -147.740883980479 Eh    ::
         :: gradient norm              0.000215230122 Eh/a0 ::
         :: HOMO-LUMO gap              6.170456623540 eV    ::
         ::.................................................::
         :: SCC energy              -148.745422590040 Eh    ::
         :: -> isotropic ES            0.790558060286 Eh    ::
         :: -> anisotropic ES         -0.140081869596 Eh    ::
         :: -> anisotropic XC         -0.008497861055 Eh    ::
         :: -> dispersion             -0.072585322537 Eh    ::
         :: repulsion energy           0.997985645077 Eh    ::
         :: add. restraining           0.000000000000 Eh    ::
         :: total charge              -0.000000000000 e     ::
         :::::::::::::::::::::::::::::::::::::::::::::::::::::

           ------------------------------------------------- 
          |                Numerical Hessian                |
           ------------------------------------------------- 
step length          :   0.00500
SCC accuracy         :   0.30000
Hessian scale factor :   1.00000
frozen atoms in %    :   0.00000    0
RMS gradient         :   0.00022
estimated CPU  time     15.64 min
estimated wall time      1.58 min

writing file <hessian>.

 projected vibrational frequencies (cm⁻¹)
eigval :       -0.00    -0.00    -0.00     0.00     0.00     0.00
eigval :       27.99    32.98    36.16    41.05    43.61    47.32
eigval :       48.46    50.98    53.42    55.40    57.38    59.94
eigval :       62.13    63.71    66.52    69.14    69.42    72.14
eigval :       72.96    74.20    74.95    79.65    81.25    84.78
eigval :       85.46    88.38    90.11    92.26    96.09    99.81
eigval :      103.57   105.13   106.04   110.19   114.11   120.30
eigval :      123.53   126.00   130.72   136.33   140.13   149.50
eigval :      151.31   153.87   157.18   160.37   165.58   167.24
eigval :      176.10   182.46   186.42   191.07   192.43   193.72
eigval :      197.28   199.11   205.47   210.27   213.50   217.30
eigval :      222.77   228.38   234.00   237.08   242.49   244.83
eigval :      248.29   252.68   258.03   263.39   268.36   275.53
eigval :      284.26   288.66   292.07   295.64   304.23   307.41
eigval :      317.85   322.72   324.13   333.57   334.88   344.47
eigval :      353.14   354.97   357.83   371.79   383.35   386.81
eigval :      398.28   406.77   412.39   415.50   422.95   436.31
eigval :      443.07   445.87   450.67   451.46   463.41   470.77
eigval :      475.24   481.17   483.01   491.21   493.10   499.15
eigval :      506.27   509.22   513.60   518.36   524.74   530.66
eigval :      535.79   540.38   541.18   546.35   552.65   557.59
eigval :      562.16   565.91   574.85   578.15   590.20   598.70
eigval :      600.42   606.55   611.89   613.15   618.40   621.32
eigval :      626.15   628.97   632.19   645.20   654.61   660.91
eigval :      682.39   692.72   694.93   700.44   705.34   721.89
eigval :      730.08   738.27   750.87   766.88   774.96   785.63
eigval :      825.96   836.15   847.84   853.12   855.98   863.61
eigval :      886.12   895.73   902.48   922.37   935.95   950.21
eigval :      960.60   970.67   983.61  1001.25  1087.78  1095.48
eigval :     1132.85  1164.05  1226.31  1242.79  1270.90  1307.57
eigval :     1327.20  1388.09  1396.34  1431.86  1458.77  1472.79
eigval :     1481.67  1485.19  1511.83  1515.36  1516.16  1518.90
eigval :     1520.78  1523.73  1526.78  1526.97  1531.14  1532.13
eigval :     1533.71  1534.31  1536.09  1540.23  1544.50  1546.16
eigval :     1550.13  1551.90  1555.26  1556.29  1566.20  1568.56
eigval :     1572.04  1574.96  1580.39  2714.11  2793.27  2822.02
eigval :     2921.85  2954.49  2968.20  2976.95  3002.31  3014.59
eigval :     3034.91  3036.73  3069.45  3092.40  3106.61  3118.63
eigval :     3160.27  3168.77  3210.32  3245.19  3253.40  3262.70
eigval :     3281.53  3305.13  3320.36  3340.07  3341.20  3342.76
eigval :     3347.37  3357.93  3366.23  3384.75  3393.37  3396.81
eigval :     3398.48  3402.43  3410.61  3414.21  3421.56  3427.64
eigval :     3430.61  3432.51  3450.50  3463.29  3488.10  3506.92
eigval :     3507.99  3517.79  3544.83  3548.61  3570.82  3624.72
eigval :     3666.97  3667.82  3670.12  3670.48  3671.69  3672.45
eigval :     3673.94  3676.88  3680.36
           -------------------------------------------------
          |                Property Printout                |
           -------------------------------------------------

    * Orbital Energies and Occupations

         #    Occupation            Energy/Eh            Energy/eV
      -------------------------------------------------------------
         1        2.0000           -0.6937772             -18.8786
       ...           ...                  ...                  ...
       107        2.0000           -0.4297954             -11.6953
       108        2.0000           -0.4295067             -11.6875
       109        2.0000           -0.4291769             -11.6785
       110        2.0000           -0.4266263             -11.6091
       111        2.0000           -0.4253836             -11.5753
       112        2.0000           -0.4237602             -11.5311
       113        2.0000           -0.4229185             -11.5082
       114        2.0000           -0.4215139             -11.4700
       115        2.0000           -0.4201668             -11.4333
       116        2.0000           -0.4143648             -11.2754
       117        2.0000           -0.4109949             -11.1837
       118        2.0000           -0.3863170             -10.5122
       119        1.0000           -0.2672223              -7.2715 (HOMO)
       120                         -0.0404622              -1.1010 (LUMO)
       121                         -0.0178357              -0.4853
       122                         -0.0073549              -0.2001
       123                         -0.0063204              -0.1720
       124                          0.0167140               0.4548
       125                          0.0323210               0.8795
       126                          0.0358723               0.9761
       127                          0.0471664               1.2835
       128                          0.0523964               1.4258
       129                          0.0590002               1.6055
       130                          0.0744364               2.0255
       ...                                ...                  ...
       184                          0.4016974              10.9307
      -------------------------------------------------------------
                  HL-Gap            0.2267601 Eh            6.1705 eV
             Fermi-level           -0.2403059 Eh           -6.5391 eV

     #   Z          covCN         q      C6AA      α(0)
     1   6 C        3.687     0.045    20.003     6.402
     2   6 C        3.686     0.046    19.991     6.401
     3   6 C        3.751    -0.167    23.800     6.957
     4   6 C        2.814    -0.073    29.808     8.945
     5   1 H        0.924     0.070     2.083     2.257
     6   1 H        0.925     0.070     2.088     2.260
     7   1 H        0.925     0.062     2.171     2.304
     8   1 H        0.926     0.054     2.268     2.355
     9   1 H        0.924     0.058     2.222     2.331
    10   1 H        0.924     0.049     2.329     2.387
    11   1 H        0.926     0.071     2.076     2.253
    12   1 H        0.925     0.063     2.166     2.302
    13   8 O        1.696    -0.359    20.052     6.046
    14   7 N        2.631    -0.296    27.634     7.807
    15   1 H        0.860     0.176     1.238     1.743
    16   1 H        0.860     0.189     1.162     1.689
    17   8 O        1.611    -0.634    26.013     6.884
    18   1 H        0.804     0.324     0.653     1.270
    19   1 H        0.803     0.328     0.642     1.259
    20   8 O        1.609    -0.623    25.755     6.849
    21   1 H        0.804     0.317     0.673     1.289
    22   1 H        0.805     0.307     0.700     1.315
    23   8 O        1.607    -0.649    26.381     6.932
    24   1 H        0.803     0.337     0.619     1.236
    25   1 H        0.804     0.313     0.683     1.298
    26   8 O        1.607    -0.622    25.723     6.845
    27   1 H        0.806     0.285     0.767     1.375
    28   1 H        0.802     0.341     0.610     1.227
    29   8 O        1.607    -0.648    26.355     6.929
    30   1 H        0.805     0.320     0.663     1.279
    31   1 H        0.802     0.328     0.643     1.260
    32   8 O        1.602    -0.640    26.166     6.904
    33   1 H        0.801     0.350     0.590     1.207
    34   1 H        0.806     0.282     0.777     1.384
    35   8 O        1.606    -0.629    25.904     6.869
    36   1 H        0.801     0.339     0.616     1.233
    37   1 H        0.806     0.280     0.786     1.392
    38   8 O        1.603    -0.645    26.295     6.921
    39   1 H        0.801     0.346     0.599     1.216
    40   1 H        0.806     0.280     0.786     1.392
    41   8 O        1.608    -0.639    26.150     6.902
    42   1 H        0.804     0.300     0.721     1.334
    43   1 H        0.804     0.316     0.674     1.290
    44   8 O        1.609    -0.623    25.753     6.849
    45   1 H        0.805     0.298     0.728     1.340
    46   1 H        0.804     0.327     0.646     1.263
    47   8 O        1.606    -0.627    25.846     6.861
    48   1 H        0.801     0.344     0.603     1.220
    49   1 H        0.806     0.282     0.778     1.386
    50   8 O        1.608    -0.632    25.976     6.879
    51   1 H        0.804     0.315     0.678     1.294
    52   1 H        0.804     0.317     0.672     1.288
    53   8 O        1.608    -0.636    26.054     6.889
    54   1 H        0.804     0.317     0.672     1.287
    55   1 H        0.804     0.321     0.662     1.278
    56   8 O        1.607    -0.619    25.640     6.834
    57   1 H        0.801     0.340     0.614     1.231
    58   1 H        0.806     0.284     0.770     1.378
    59   8 O        1.604    -0.645    26.302     6.922
    60   1 H        0.801     0.346     0.599     1.216
    61   1 H        0.806     0.279     0.788     1.394
    62   8 O        1.608    -0.638    26.126     6.899
    63   1 H        0.804     0.321     0.662     1.278
    64   1 H        0.804     0.317     0.672     1.288
    65   8 O        1.609    -0.634    26.018     6.884
    66   1 H        0.804     0.312     0.685     1.300
    67   1 H        0.805     0.310     0.691     1.306
    68   8 O        1.609    -0.633    25.992     6.881
    69   1 H        0.805     0.307     0.701     1.315
    70   1 H        0.804     0.315     0.679     1.294
    71   8 O        1.610    -0.633    25.996     6.881
    72   1 H        0.803     0.327     0.644     1.261
    73   1 H        0.804     0.323     0.655     1.271
    74   8 O        1.610    -0.637    26.093     6.894
    75   1 H        0.804     0.320     0.665     1.281
    76   1 H        0.803     0.329     0.641     1.258
    77   8 O        1.609    -0.624    25.758     6.850
    78   1 H        0.805     0.317     0.672     1.288
    79   1 H        0.804     0.314     0.679     1.295
    80   8 O        1.606    -0.627    25.833     6.860
    81   1 H        0.806     0.284     0.770     1.378
    82   1 H        0.801     0.341     0.609     1.226
    83   8 O        1.608    -0.632    25.972     6.878
    84   1 H        0.805     0.310     0.690     1.305
    85   1 H        0.803     0.327     0.646     1.263
    86   8 O        1.608    -0.655    26.535     6.952
    87   1 H        0.804     0.319     0.667     1.283
    88   1 H        0.804     0.310     0.691     1.306
    89   8 O        1.608    -0.619    25.653     6.836
    90   1 H        0.806     0.286     0.766     1.374
    91   1 H        0.802     0.336     0.623     1.240

 Mol. C6AA /au·bohr⁶  :      44478.146399
 Mol. C8AA /au·bohr⁸  :     828181.681568
 Mol. α(0) /au        :        301.165239


Wiberg/Mayer (AO) data.
largest (>0.10) Wiberg bond orders for each atom

 ---------------------------------------------------------------------------
     #   Z sym  total        # sym  WBO       # sym  WBO       # sym  WBO
 ---------------------------------------------------------------------------
     1   6 C    3.940 --     4 C    1.062     9 H    0.954     5 H    0.940
                            13 O    0.921
     2   6 C    3.940 --     3 C    1.012    13 O    0.967    10 H    0.961
                             6 H    0.955
     3   6 C    3.985 --     2 C    1.012     7 H    0.978    11 H    0.969
                            12 H    0.968
     4   6 C    3.217 --    14 N    1.145     1 C    1.062     8 H    0.961
     5   1 H    0.969 --     1 C    0.940
     6   1 H    0.993 --     2 C    0.955
     7   1 H    0.996 --     3 C    0.978
     8   1 H    0.997 --     4 C    0.961
     9   1 H    0.997 --     1 C    0.954
    10   1 H    0.997 --     2 C    0.961
    11   1 H    0.994 --     3 C    0.969
    12   1 H    0.996 --     3 C    0.968
    13   8 O    2.052 --     2 C    0.967     1 C    0.921
    14   7 N    3.108 --     4 C    1.145    15 H    0.938    16 H    0.927
    15   1 H    0.959 --    14 N    0.938
    16   1 H    0.956 --    14 N    0.927
    17   8 O    1.903 --    18 H    0.850    19 H    0.840    33 H    0.115
    18   1 H    0.895 --    17 O    0.850
    19   1 H    0.892 --    17 O    0.840
    20   8 O    1.859 --    22 H    0.887    21 H    0.855
    21   1 H    0.900 --    20 O    0.855
    22   1 H    0.906 --    20 O    0.887
    23   8 O    1.864 --    25 H    0.865    24 H    0.825
    24   1 H    0.886 --    23 O    0.825
    25   1 H    0.902 --    23 O    0.865
    26   8 O    1.870 --    27 H    0.915    28 H    0.811
    27   1 H    0.919 --    26 O    0.915
    28   1 H    0.884 --    26 O    0.811
    29   8 O    1.860 --    30 H    0.866    31 H    0.824
    30   1 H    0.898 --    29 O    0.866
    31   1 H    0.892 --    29 O    0.824
    32   8 O    1.878 --    34 H    0.915    33 H    0.758
    33   1 H    0.878 --    32 O    0.758    17 O    0.115
    34   1 H    0.920 --    32 O    0.915
    35   8 O    1.855 --    37 H    0.916    36 H    0.800
    36   1 H    0.885 --    35 O    0.800
    37   1 H    0.922 --    35 O    0.916
    38   8 O    1.850 --    40 H    0.917    39 H    0.767
    39   1 H    0.880 --    38 O    0.767    74 O    0.104
    40   1 H    0.921 --    38 O    0.917
    41   8 O    1.836 --    42 H    0.868    43 H    0.853
    42   1 H    0.909 --    41 O    0.868
    43   1 H    0.900 --    41 O    0.853
    44   8 O    1.833 --    45 H    0.900    46 H    0.852
    45   1 H    0.911 --    44 O    0.900
    46   1 H    0.893 --    44 O    0.852
    47   8 O    1.867 --    49 H    0.917    48 H    0.795
    48   1 H    0.882 --    47 O    0.795
    49   1 H    0.921 --    47 O    0.917
    50   8 O    1.875 --    51 H    0.862    52 H    0.850
    51   1 H    0.901 --    50 O    0.862
    52   1 H    0.899 --    50 O    0.850
    53   8 O    1.872 --    54 H    0.861    55 H    0.850
    54   1 H    0.899 --    53 O    0.861
    55   1 H    0.897 --    53 O    0.850
    56   8 O    1.887 --    58 H    0.917    57 H    0.802
    57   1 H    0.885 --    56 O    0.802
    58   1 H    0.919 --    56 O    0.917
    59   8 O    1.846 --    61 H    0.917    60 H    0.770
    60   1 H    0.881 --    59 O    0.770    71 O    0.103
    61   1 H    0.922 --    59 O    0.917
    62   8 O    1.872 --    64 H    0.854    63 H    0.848
    63   1 H    0.897 --    62 O    0.848
    64   1 H    0.900 --    62 O    0.854
    65   8 O    1.838 --    67 H    0.870    66 H    0.862
    66   1 H    0.902 --    65 O    0.862
    67   1 H    0.904 --    65 O    0.870
    68   8 O    1.840 --    69 H    0.876    70 H    0.859
    69   1 H    0.906 --    68 O    0.876
    70   1 H    0.901 --    68 O    0.859
    71   8 O    1.892 --    73 H    0.857    72 H    0.841    60 H    0.103
    72   1 H    0.893 --    71 O    0.841
    73   1 H    0.895 --    71 O    0.857
    74   8 O    1.889 --    75 H    0.849    76 H    0.840    39 H    0.104
    75   1 H    0.898 --    74 O    0.849
    76   1 H    0.892 --    74 O    0.840
    77   8 O    1.866 --    78 H    0.881    79 H    0.860
    78   1 H    0.900 --    77 O    0.881
    79   1 H    0.901 --    77 O    0.860
    80   8 O    1.874 --    81 H    0.915    82 H    0.794
    81   1 H    0.919 --    80 O    0.915
    82   1 H    0.883 --    80 O    0.794
    83   8 O    1.870 --    84 H    0.878    85 H    0.836
    84   1 H    0.904 --    83 O    0.878
    85   1 H    0.893 --    83 O    0.836
    86   8 O    1.819 --    88 H    0.859    87 H    0.847
    87   1 H    0.898 --    86 O    0.847
    88   1 H    0.904 --    86 O    0.859
    89   8 O    1.868 --    90 H    0.912    91 H    0.815
    90   1 H    0.918 --    89 O    0.912
    91   1 H    0.887 --    89 O    0.815
 ---------------------------------------------------------------------------

Topologies differ in total number of bonds
Writing topology from bond orders to xtbtopo.mol

molecular dipole:
                 x           y           z       tot (Debye)
 q only:        0.657      -0.108      -0.727
   full:        1.162      -0.237      -1.092       4.097
molecular quadrupole (traceless):
                xx          xy          yy          xz          yz          zz
 q only:       -2.102       3.388       3.538     -11.427       7.639      -1.436
  q+dip:       -3.813       5.899       4.995     -15.216       9.270      -1.183
   full:       -3.683       6.451       4.570     -15.983       9.493      -0.887

           -------------------------------------------------
          |                Geometry Summary                 |
           -------------------------------------------------

      molecular mass/u    :      538.5106197
   center of mass at/Å    :        0.0181944      -0.0103020       0.0325508
  moments of inertia/u·Å² :        0.5018181E+04   0.6034080E+04   0.7010534E+04
rotational constants/cm⁻¹ :        0.3359311E-02   0.2793737E-02   0.2404615E-02

 * 62 selected distances

     #   Z          #   Z                                           value/Å
     2   6 C        3   6 C                                       1.5212920 (max)
     1   6 C        4   6 C                                       1.4691497
     1   6 C        5   1 H                                       1.0948120
     2   6 C        6   1 H                                       1.0885372
     3   6 C        7   1 H                                       1.0850391
     4   6 C        8   1 H                                       1.0711462
     1   6 C        9   1 H                                       1.0936562
     2   6 C       10   1 H                                       1.0915918
     3   6 C       11   1 H                                       1.0812084
     3   6 C       12   1 H                                       1.0832384
     1   6 C       13   8 O                                       1.4401922
     2   6 C       13   8 O                                       1.4193891
     4   6 C       14   7 N                                       1.3993204
    14   7 N       15   1 H                                       1.0124630
    14   7 N       16   1 H                                       1.0146482
    17   8 O       18   1 H                                       0.9737942
    17   8 O       19   1 H                                       0.9775674
    20   8 O       21   1 H                                       0.9727532
    20   8 O       22   1 H                                       0.9636390
    23   8 O       24   1 H                                       0.9796076
    23   8 O       25   1 H                                       0.9685202
    26   8 O       27   1 H                                       0.9580723
    26   8 O       28   1 H                                       0.9859328
    29   8 O       30   1 H                                       0.9670601
    29   8 O       31   1 H                                       0.9827835
    32   8 O       34   1 H                                       0.9580946
    35   8 O       36   1 H                                       0.9930358
    35   8 O       37   1 H                                       0.9577947
    38   8 O       40   1 H                                       0.9582012
    41   8 O       42   1 H                                       0.9697187
    41   8 O       43   1 H                                       0.9726092
    44   8 O       45   1 H                                       0.9606196
    44   8 O       46   1 H                                       0.9716861
    47   8 O       48   1 H                                       0.9923243
    47   8 O       49   1 H                                       0.9576524
    50   8 O       51   1 H                                       0.9696942
    50   8 O       52   1 H                                       0.9738254
    53   8 O       54   1 H                                       0.9716105
    53   8 O       55   1 H                                       0.9742503
    56   8 O       57   1 H                                       0.9908327
    56   8 O       58   1 H                                       0.9583062
    59   8 O       61   1 H                                       0.9573827 (min)
    62   8 O       63   1 H                                       0.9749994
    62   8 O       64   1 H                                       0.9727647
    65   8 O       66   1 H                                       0.9697218
    65   8 O       67   1 H                                       0.9661256
    68   8 O       69   1 H                                       0.9663525
    68   8 O       70   1 H                                       0.9721660
    71   8 O       72   1 H                                       0.9762746
    71   8 O       73   1 H                                       0.9717514
    74   8 O       75   1 H                                       0.9752196
    74   8 O       76   1 H                                       0.9778899
    77   8 O       78   1 H                                       0.9653475
    77   8 O       79   1 H                                       0.9712979
    80   8 O       81   1 H                                       0.9579490
    80   8 O       82   1 H                                       0.9937265
    83   8 O       84   1 H                                       0.9650872
    83   8 O       85   1 H                                       0.9800022
    86   8 O       87   1 H                                       0.9743638
    86   8 O       88   1 H                                       0.9701408
    89   8 O       90   1 H                                       0.9574930
    89   8 O       91   1 H                                       0.9843943

 * 6 distinct bonds (by element types)

   Z      Z             #   av. dist./Å        max./Å        min./Å
   1 H    6 C           8     1.0861537     1.0948120     1.0711462
   6 C    6 C           2     1.4952208     1.5212920     1.4691497
   1 H    7 N           2     1.0135556     1.0146482     1.0124630
   6 C    7 N           1     1.3993204     1.3993204     1.3993204
   1 H    8 O          47     0.9714986     0.9937265     0.9573827
   6 C    8 O           2     1.4297906     1.4401922     1.4193891

           -------------------------------------------------
          |               Frequency Printout                |
           -------------------------------------------------
 projected vibrational frequencies (cm⁻¹)
eigval :       -0.00    -0.00    -0.00     0.00     0.00     0.00
eigval :       27.99    32.98    36.16    41.05    43.61    47.32
eigval :       48.46    50.98    53.42    55.40    57.38    59.94
eigval :       62.13    63.71    66.52    69.14    69.42    72.14
eigval :       72.96    74.20    74.95    79.65    81.25    84.78
eigval :       85.46    88.38    90.11    92.26    96.09    99.81
eigval :      103.57   105.13   106.04   110.19   114.11   120.30
eigval :      123.53   126.00   130.72   136.33   140.13   149.50
eigval :      151.31   153.87   157.18   160.37   165.58   167.24
eigval :      176.10   182.46   186.42   191.07   192.43   193.72
eigval :      197.28   199.11   205.47   210.27   213.50   217.30
eigval :      222.77   228.38   234.00   237.08   242.49   244.83
eigval :      248.29   252.68   258.03   263.39   268.36   275.53
eigval :      284.26   288.66   292.07   295.64   304.23   307.41
eigval :      317.85   322.72   324.13   333.57   334.88   344.47
eigval :      353.14   354.97   357.83   371.79   383.35   386.81
eigval :      398.28   406.77   412.39   415.50   422.95   436.31
eigval :      443.07   445.87   450.67   451.46   463.41   470.77
eigval :      475.24   481.17   483.01   491.21   493.10   499.15
eigval :      506.27   509.22   513.60   518.36   524.74   530.66
eigval :      535.79   540.38   541.18   546.35   552.65   557.59
eigval :      562.16   565.91   574.85   578.15   590.20   598.70
eigval :      600.42   606.55   611.89   613.15   618.40   621.32
eigval :      626.15   628.97   632.19   645.20   654.61   660.91
eigval :      682.39   692.72   694.93   700.44   705.34   721.89
eigval :      730.08   738.27   750.87   766.88   774.96   785.63
eigval :      825.96   836.15   847.84   853.12   855.98   863.61
eigval :      886.12   895.73   902.48   922.37   935.95   950.21
eigval :      960.60   970.67   983.61  1001.25  1087.78  1095.48
eigval :     1132.85  1164.05  1226.31  1242.79  1270.90  1307.57
eigval :     1327.20  1388.09  1396.34  1431.86  1458.77  1472.79
eigval :     1481.67  1485.19  1511.83  1515.36  1516.16  1518.90
eigval :     1520.78  1523.73  1526.78  1526.97  1531.14  1532.13
eigval :     1533.71  1534.31  1536.09  1540.23  1544.50  1546.16
eigval :     1550.13  1551.90  1555.26  1556.29  1566.20  1568.56
eigval :     1572.04  1574.96  1580.39  2714.11  2793.27  2822.02
eigval :     2921.85  2954.49  2968.20  2976.95  3002.31  3014.59
eigval :     3034.91  3036.73  3069.45  3092.40  3106.61  3118.63
eigval :     3160.27  3168.77  3210.32  3245.19  3253.40  3262.70
eigval :     3281.53  3305.13  3320.36  3340.07  3341.20  3342.76
eigval :     3347.37  3357.93  3366.23  3384.75  3393.37  3396.81
eigval :     3398.48  3402.43  3410.61  3414.21  3421.56  3427.64
eigval :     3430.61  3432.51  3450.50  3463.29  3488.10  3506.92
eigval :     3507.99  3517.79  3544.83  3548.61  3570.82  3624.72
eigval :     3666.97  3667.82  3670.12  3670.48  3671.69  3672.45
eigval :     3673.94  3676.88  3680.36
 reduced masses (amu)
   1: 14.12   2: 13.99   3: 14.06   4: 13.93   5: 14.00   6: 14.15   7: 14.28   8: 14.18
   9: 13.16  10: 13.78  11: 14.13  12: 14.22  13: 14.18  14: 14.32  15: 13.96  16: 14.12
  17: 14.09  18: 14.25  19: 14.13  20: 14.25  21: 14.37  22: 14.36  23: 14.13  24: 13.87
  25: 14.03  26: 14.05  27: 14.18  28: 14.25  29: 14.26  30: 14.07  31: 13.96  32: 14.00
  33: 14.23  34: 13.93  35: 13.61  36: 13.52  37: 14.56  38: 13.81  39: 13.75  40: 14.32
  41: 13.84  42: 14.23  43: 12.46  44: 13.10  45: 13.57  46: 13.50  47: 12.25  48: 12.64
  49: 10.07  50: 11.50  51: 13.24  52: 12.92  53: 11.23  54: 12.27  55: 12.66  56: 11.82
  57:  9.44  58: 11.64  59: 12.58  60: 13.26  61: 12.21  62: 12.72  63: 12.88  64: 13.04
  65: 12.47  66: 13.08  67: 11.70  68: 12.55  69: 12.54  70: 10.88  71: 12.38  72:  8.94
  73: 12.84  74:  9.09  75:  9.70  76: 12.28  77:  9.26  78:  7.63  79: 10.14  80:  4.26
  81:  9.41  82:  6.03  83:  9.44  84:  6.44  85: 11.55  86:  8.80  87: 11.48  88: 10.54
  89:  4.96  90: 11.33  91: 11.36  92:  8.95  93: 12.94  94:  8.79  95: 12.79  96:  9.66
  97: 11.53  98:  3.93  99:  6.95 100:  6.02 101:  4.08 102:  1.77 103:  1.63 104:  1.79
 105:  1.63 106:  1.74 107:  1.79 108:  2.07 109:  1.92 110:  1.76 111:  1.94 112:  1.92
 113:  1.92 114:  1.75 115:  1.89 116:  1.78 117:  1.79 118:  1.74 119:  1.88 120:  2.27
 121:  3.70 122:  7.49 123:  2.07 124:  1.61 125:  1.69 126:  1.63 127:  1.80 128:  1.73
 129:  1.81 130:  1.79 131:  1.66 132:  1.75 133:  1.81 134:  1.84 135:  1.71 136:  1.83
 137:  1.91 138:  1.85 139:  1.74 140:  1.73 141:  1.89 142:  1.93 143:  1.88 144:  1.87
 145:  2.00 146:  1.71 147:  1.68 148:  1.76 149:  2.00 150:  2.30 151:  2.06 152:  2.30
 153:  2.27 154:  2.58 155:  2.42 156:  2.38 157:  3.76 158:  2.28 159:  2.35 160:  4.92
 161:  1.92 162:  3.69 163:  2.00 164:  2.58 165:  2.30 166:  2.72 167:  4.52 168:  3.97
 169:  6.30 170:  5.27 171:  2.01 172:  6.15 173:  9.56 174:  7.97 175:  4.68 176:  5.98
 177:  4.28 178:  4.69 179:  2.69 180:  2.95 181:  3.26 182:  6.74 183:  3.08 184:  3.21
 185:  1.84 186:  1.58 187:  3.10 188:  2.32 189:  2.02 190:  2.00 191:  2.02 192:  2.03
 193:  2.07 194:  2.02 195:  2.06 196:  1.99 197:  2.07 198:  2.00 199:  2.04 200:  1.98
 201:  2.02 202:  2.06 203:  2.08 204:  2.05 205:  2.08 206:  2.06 207:  2.08 208:  2.05
 209:  2.04 210:  2.07 211:  2.02 212:  1.99 213:  2.11 214:  1.89 215:  1.88 216:  1.89
 217:  1.71 218:  1.70 219:  1.88 220:  1.74 221:  1.88 222:  1.89 223:  1.75 224:  1.83
 225:  1.70 226:  1.69 227:  1.89 228:  1.75 229:  1.87 230:  1.81 231:  1.91 232:  2.01
 233:  1.92 234:  2.08 235:  2.06 236:  2.03 237:  2.10 238:  1.98 239:  1.81 240:  1.86
 241:  1.94 242:  1.77 243:  1.78 244:  1.76 245:  1.90 246:  1.89 247:  1.95 248:  1.71
 249:  1.72 250:  2.06 251:  1.63 252:  1.90 253:  1.66 254:  1.87 255:  1.68 256:  1.82
 257:  1.74 258:  1.79 259:  1.76 260:  1.69 261:  1.79 262:  1.77 263:  1.81 264:  1.81
 265:  1.84 266:  1.84 267:  1.83 268:  1.84 269:  1.83 270:  1.84 271:  1.84 272:  1.83
 273:  1.84
 IR intensities (km·mol⁻¹)
   1:  0.08   2:  0.02   3:  0.05   4:  0.02   5:  0.05   6:  0.06   7:  0.88   8:  1.16
   9:  0.53  10:  0.16  11:  0.56  12:  1.81  13:  0.03  14:  0.75  15:  0.06  16:  0.74
  17:  0.08  18:  0.65  19:  0.53  20:  1.63  21:  0.81  22:  0.36  23:  1.78  24:  1.19
  25:  2.33  26:  3.03  27:  0.85  28:  0.02  29:  0.36  30:  0.58  31:  6.34  32:  0.36
  33:  0.17  34:  4.16  35:  4.32  36:  1.22  37:  5.31  38:  1.19  39:  1.99  40:  1.68
  41:  0.58  42:  2.90  43:  4.73  44:  0.24  45:  2.11  46:  3.53  47:  5.20  48:  2.59
  49:  4.13  50: 12.95  51:  5.97  52:  2.66  53:  5.38  54:  1.50  55:  4.18  56:  2.71
  57: 12.05  58:  6.89  59:  2.91  60: 10.50  61:  4.27  62:  3.36  63:  4.88  64:  2.54
  65:  2.86  66: 15.12  67: 36.20  68: 24.93  69:  3.30  70: 25.11  71: 19.26  72: 31.11
  73: 11.33  74: 54.58  75:  8.15  76:  5.85  77:  3.09  78: 37.63  79: 14.26  80: 67.93
  81: 30.89  82: 92.77  83: 69.39  84:135.19  85: 25.57  86: 88.43  87: 48.25  88: 19.56
  89:119.18  90: 17.53  91: 65.65  92: 54.47  93:  5.24  94:  2.37  95: 22.51  96: 79.33
  97: 12.71  98: 12.77  99: 26.93 100:  4.88 101: 15.25 102: 17.89 103: 48.89 104: 29.74
 105: 42.20 106:  7.54 107: 28.57 108:121.45 109: 31.44 110: 51.11 111:  2.57 112: 71.58
 113: 17.20 114: 32.94 115: 18.78 116: 14.44 117:112.77 118: 18.19 119: 19.12 120: 35.01
 121:  9.31 122: 34.29 123:  4.21 124: 22.31 125: 93.79 126: 46.38 127: 70.39 128: 35.86
 129: 22.55 130: 58.26 131:120.48 132: 33.98 133: 24.50 134:103.12 135: 32.91 136: 27.42
 137:  7.80 138: 97.07 139: 50.57 140:122.93 141:154.46 142:132.73 143:159.67 144: 44.11
 145:588.52 146:191.32 147:112.77 148: 74.26 149:174.62 150:137.68 151:299.87 152:278.39
 153:413.00 154:930.29 155:****** 156:****** 157: 57.80 158:432.77 159:115.10 160: 39.35
 161:237.99 162: 28.21 163:226.20 164:112.10 165:195.33 166:220.85 167:134.96 168:111.02
 169:111.70 170:110.82 171:216.12 172: 45.20 173: 83.65 174:  7.98 175:  9.32 176:  6.29
 177:  2.57 178:  9.02 179:  9.33 180:  8.36 181:  8.04 182: 11.73 183: 17.42 184: 15.67
 185:  1.20 186:  7.70 187: 19.52 188: 21.63 189: 63.91 190: 62.66 191: 70.22 192:421.97
 193:  0.87 194:122.44 195: 38.41 196:175.13 197:490.31 198: 56.22 199:449.49 200:106.76
 201:329.98 202:527.57 203:189.98 204:247.88 205:288.61 206:150.73 207:134.05 208:434.69
 209:167.64 210:151.69 211:103.81 212:  7.96 213: 15.80 214:****** 215:****** 216:******
 217: 12.51 218:  8.07 219:542.70 220: 18.42 221:608.06 222:****** 223:411.89 224:******
 225: 23.44 226:  5.71 227:754.14 228: 10.23 229:881.88 230: 34.96 231:791.51 232:106.19
 233:281.79 234:****** 235:511.91 236:633.68 237:****** 238:373.64 239:832.12 240:290.71
 241:358.67 242:217.06 243: 66.95 244:313.70 245:290.42 246:****** 247:159.21 248: 92.02
 249:333.19 250:121.50 251:100.52 252:345.76 253:231.97 254:375.94 255:167.18 256:457.13
 257:130.55 258:139.25 259:184.19 260:110.87 261:117.26 262: 94.78 263:111.76 264: 21.22
 265: 11.85 266:  7.54 267: 21.42 268:  5.05 269: 10.05 270:  7.57 271: 12.88 272: 12.60
 273: 12.16
 Raman intensities (amu)
   1:  0.00   2:  0.00   3:  0.00   4:  0.00   5:  0.00   6:  0.00   7:  0.00   8:  0.00
   9:  0.00  10:  0.00  11:  0.00  12:  0.00  13:  0.00  14:  0.00  15:  0.00  16:  0.00
  17:  0.00  18:  0.00  19:  0.00  20:  0.00  21:  0.00  22:  0.00  23:  0.00  24:  0.00
  25:  0.00  26:  0.00  27:  0.00  28:  0.00  29:  0.00  30:  0.00  31:  0.00  32:  0.00
  33:  0.00  34:  0.00  35:  0.00  36:  0.00  37:  0.00  38:  0.00  39:  0.00  40:  0.00
  41:  0.00  42:  0.00  43:  0.00  44:  0.00  45:  0.00  46:  0.00  47:  0.00  48:  0.00
  49:  0.00  50:  0.00  51:  0.00  52:  0.00  53:  0.00  54:  0.00  55:  0.00  56:  0.00
  57:  0.00  58:  0.00  59:  0.00  60:  0.00  61:  0.00  62:  0.00  63:  0.00  64:  0.00
  65:  0.00  66:  0.00  67:  0.00  68:  0.00  69:  0.00  70:  0.00  71:  0.00  72:  0.00
  73:  0.00  74:  0.00  75:  0.00  76:  0.00  77:  0.00  78:  0.00  79:  0.00  80:  0.00
  81:  0.00  82:  0.00  83:  0.00  84:  0.00  85:  0.00  86:  0.00  87:  0.00  88:  0.00
  89:  0.00  90:  0.00  91:  0.00  92:  0.00  93:  0.00  94:  0.00  95:  0.00  96:  0.00
  97:  0.00  98:  0.00  99:  0.00 100:  0.00 101:  0.00 102:  0.00 103:  0.00 104:  0.00
 105:  0.00 106:  0.00 107:  0.00 108:  0.00 109:  0.00 110:  0.00 111:  0.00 112:  0.00
 113:  0.00 114:  0.00 115:  0.00 116:  0.00 117:  0.00 118:  0.00 119:  0.00 120:  0.00
 121:  0.00 122:  0.00 123:  0.00 124:  0.00 125:  0.00 126:  0.00 127:  0.00 128:  0.00
 129:  0.00 130:  0.00 131:  0.00 132:  0.00 133:  0.00 134:  0.00 135:  0.00 136:  0.00
 137:  0.00 138:  0.00 139:  0.00 140:  0.00 141:  0.00 142:  0.00 143:  0.00 144:  0.00
 145:  0.00 146:  0.00 147:  0.00 148:  0.00 149:  0.00 150:  0.00 151:  0.00 152:  0.00
 153:  0.00 154:  0.00 155:  0.00 156:  0.00 157:  0.00 158:  0.00 159:  0.00 160:  0.00
 161:  0.00 162:  0.00 163:  0.00 164:  0.00 165:  0.00 166:  0.00 167:  0.00 168:  0.00
 169:  0.00 170:  0.00 171:  0.00 172:  0.00 173:  0.00 174:  0.00 175:  0.00 176:  0.00
 177:  0.00 178:  0.00 179:  0.00 180:  0.00 181:  0.00 182:  0.00 183:  0.00 184:  0.00
 185:  0.00 186:  0.00 187:  0.00 188:  0.00 189:  0.00 190:  0.00 191:  0.00 192:  0.00
 193:  0.00 194:  0.00 195:  0.00 196:  0.00 197:  0.00 198:  0.00 199:  0.00 200:  0.00
 201:  0.00 202:  0.00 203:  0.00 204:  0.00 205:  0.00 206:  0.00 207:  0.00 208:  0.00
 209:  0.00 210:  0.00 211:  0.00 212:  0.00 213:  0.00 214:  0.00 215:  0.00 216:  0.00
 217:  0.00 218:  0.00 219:  0.00 220:  0.00 221:  0.00 222:  0.00 223:  0.00 224:  0.00
 225:  0.00 226:  0.00 227:  0.00 228:  0.00 229:  0.00 230:  0.00 231:  0.00 232:  0.00
 233:  0.00 234:  0.00 235:  0.00 236:  0.00 237:  0.00 238:  0.00 239:  0.00 240:  0.00
 241:  0.00 242:  0.00 243:  0.00 244:  0.00 245:  0.00 246:  0.00 247:  0.00 248:  0.00
 249:  0.00 250:  0.00 251:  0.00 252:  0.00 253:  0.00 254:  0.00 255:  0.00 256:  0.00
 257:  0.00 258:  0.00 259:  0.00 260:  0.00 261:  0.00 262:  0.00 263:  0.00 264:  0.00
 265:  0.00 266:  0.00 267:  0.00 268:  0.00 269:  0.00 270:  0.00 271:  0.00 272:  0.00
 273:  0.00
 output can be read by thermo (or use thermo option).
 writing <g98.out> molden fake output.
 recommended (thermochemical) frequency scaling factor: 1.0
           -------------------------------------------------
          |             Thermodynamic Functions             |
           -------------------------------------------------

Molecule has no symmetry elements
It seems to be the C1 point group
c1  symmetry found (for desy threshold:  0.10E+00) used in thermo

          ...................................................
          :                      SETUP                      :
          :.................................................:
          :  # frequencies                         267      :
          :  # imaginary freq.                       0      :
          :  linear?                             false      :
          :  only rotor calc.                    false      :
          :  symmetry                               c1      :
          :  rotational number                       1      :
          :  scaling factor                  1.0000000      :
          :  rotor cutoff                   50.0000000 cm⁻¹ :
          :  imag. cutoff                  -20.0000000 cm⁻¹ :
          :.................................................:

    mode    ω/cm⁻¹     T·S(HO)/kcal·mol⁻¹    T·S(FR)/kcal·mol⁻¹   T·S(vib)
   ------------------------------------------------------------------------
       1     27.99    -1.77903 (  8.94%)    -1.22838 ( 91.06%)    -1.27763
       2     32.98    -1.68203 ( 15.92%)    -1.17980 ( 84.08%)    -1.25973
       3     36.16    -1.62769 ( 21.47%)    -1.15256 ( 78.53%)    -1.25458
       4     41.05    -1.55262 ( 31.25%)    -1.11492 ( 68.75%)    -1.25170
       5     43.61    -1.51691 ( 36.67%)    -1.09700 ( 63.33%)    -1.25097
       6     47.32    -1.46878 ( 44.51%)    -1.07285 ( 55.49%)    -1.24910
       7     48.46    -1.45469 ( 46.89%)    -1.06577 ( 53.11%)    -1.24812
       8     50.98    -1.42489 ( 51.93%)    -1.05080 ( 48.07%)    -1.24508
       9     53.42    -1.39733 ( 56.57%)    -1.03695 ( 43.43%)    -1.24083
      10     55.40    -1.37589 ( 60.11%)    -1.02617 ( 39.89%)    -1.23639
      11     57.38    -1.35521 ( 63.43%)    -1.01576 ( 36.57%)    -1.23106
      12     59.94    -1.32945 ( 67.38%)    -1.00280 ( 32.62%)    -1.22291
      13     62.13    -1.30840 ( 70.45%)    -0.99220 ( 29.55%)    -1.21496
      14     63.71    -1.29359 ( 72.50%)    -0.98473 ( 27.50%)    -1.20866
      15     66.52    -1.26830 ( 75.80%)    -0.97199 ( 24.20%)    -1.19659
      16     69.14    -1.24558 ( 78.52%)    -0.96052 ( 21.48%)    -1.18436
      17     69.42    -1.24318 ( 78.80%)    -0.95931 ( 21.20%)    -1.18299
      18     72.14    -1.22069 ( 81.25%)    -0.94796 ( 18.75%)    -1.16954
      19     72.96    -1.21405 ( 81.93%)    -0.94461 ( 18.07%)    -1.16535
      20     74.20    -1.20413 ( 82.91%)    -0.93959 ( 17.09%)    -1.15891
      21     74.95    -1.19824 ( 83.47%)    -0.93662 ( 16.53%)    -1.15499
      22     79.65    -1.16262 ( 86.56%)    -0.91860 ( 13.44%)    -1.12982
      23     81.25    -1.15102 ( 87.46%)    -0.91273 ( 12.54%)    -1.12113
      24     84.78    -1.12610 ( 89.21%)    -0.90010 ( 10.79%)    -1.10171
      25     85.46    -1.12145 ( 89.51%)    -0.89774 ( 10.49%)    -1.09799
      26     88.38    -1.10187 ( 90.71%)    -0.88781 (  9.29%)    -1.08198
      27     90.11    -1.09050 ( 91.34%)    -0.88204 (  8.66%)    -1.07246
      28     92.26    -1.07677 ( 92.06%)    -0.87506 (  7.94%)    -1.06075
      29     96.09    -1.05309 ( 93.17%)    -0.86301 (  6.83%)    -1.04011
      30     99.81    -1.03103 ( 94.07%)    -0.85178 (  5.93%)    -1.02041
      31    103.57    -1.00951 ( 94.85%)    -0.84080 (  5.15%)    -1.00082
      32    105.13    -1.00086 ( 95.13%)    -0.83638 (  4.87%)    -0.99285
      33    106.04    -0.99588 ( 95.29%)    -0.83384 (  4.71%)    -0.98825
      34    110.19    -0.97362 ( 95.93%)    -0.82245 (  4.07%)    -0.96747
      35    114.11    -0.95343 ( 96.44%)    -0.81211 (  3.56%)    -0.94841
      36    120.30    -0.92292 ( 97.10%)    -0.79644 (  2.90%)    -0.91925
      37    123.53    -0.90768 ( 97.39%)    -0.78860 (  2.61%)    -0.90457
      38    126.00    -0.89631 ( 97.58%)    -0.78274 (  2.42%)    -0.89356
      39    130.72    -0.87520 ( 97.90%)    -0.77185 (  2.10%)    -0.87304
      40    136.33    -0.85115 ( 98.22%)    -0.75940 (  1.78%)    -0.84952
      41    140.13    -0.83543 ( 98.41%)    -0.75125 (  1.59%)    -0.83409
      42    149.50    -0.79862 ( 98.76%)    -0.73208 (  1.24%)    -0.79780
      43    151.31    -0.79181 ( 98.82%)    -0.72852 (  1.18%)    -0.79106
      44    153.87    -0.78228 ( 98.90%)    -0.72354 (  1.10%)    -0.78163
      45    157.18    -0.77026 ( 98.99%)    -0.71724 (  1.01%)    -0.76973
      46    160.37    -0.75892 ( 99.06%)    -0.71129 (  0.94%)    -0.75848
      47    165.58    -0.74091 ( 99.18%)    -0.70181 (  0.82%)    -0.74059
      48    167.24    -0.73531 ( 99.21%)    -0.69886 (  0.79%)    -0.73502
      49    176.10    -0.70641 ( 99.35%)    -0.68356 (  0.65%)    -0.70627
      50    182.46    -0.68667 ( 99.44%)    -0.67306 (  0.56%)    -0.68659
      51    186.42    -0.67475 ( 99.49%)    -0.66670 (  0.51%)    -0.67471
      52    191.07    -0.66111 ( 99.53%)    -0.65939 (  0.47%)    -0.66110
      53    192.43    -0.65722 ( 99.55%)    -0.65730 (  0.45%)    -0.65722
      54    193.72    -0.65352 ( 99.56%)    -0.65531 (  0.44%)    -0.65352
      55    197.28    -0.64350 ( 99.59%)    -0.64992 (  0.41%)    -0.64352
      56    199.11    -0.63842 ( 99.60%)    -0.64718 (  0.40%)    -0.63845
      57    205.47    -0.62121 ( 99.65%)    -0.63787 (  0.35%)    -0.62126
      58    210.27    -0.60863 ( 99.68%)    -0.63104 (  0.32%)    -0.60870
      59    213.50    -0.60034 ( 99.70%)    -0.62652 (  0.30%)    -0.60042
      60    217.30    -0.59077 ( 99.72%)    -0.62129 (  0.28%)    -0.59086
      61    222.77    -0.57737 ( 99.75%)    -0.61393 (  0.25%)    -0.57746
      62    228.38    -0.56400 ( 99.77%)    -0.60656 (  0.23%)    -0.56410
      63    234.00    -0.55100 ( 99.79%)    -0.59936 (  0.21%)    -0.55110
      64    237.08    -0.54403 ( 99.80%)    -0.59548 (  0.20%)    -0.54413
      65    242.49    -0.53207 ( 99.82%)    -0.58880 (  0.18%)    -0.53217
      66    244.83    -0.52697 ( 99.83%)    -0.58595 (  0.17%)    -0.52707
      67    248.29    -0.51958 ( 99.84%)    -0.58179 (  0.16%)    -0.51968
      68    252.68    -0.51038 ( 99.85%)    -0.57661 (  0.15%)    -0.51048
      69    258.03    -0.49942 ( 99.86%)    -0.57040 (  0.14%)    -0.49952
      70    263.39    -0.48873 ( 99.87%)    -0.56431 (  0.13%)    -0.48882
      71    268.36    -0.47906 ( 99.88%)    -0.55877 (  0.12%)    -0.47915
      72    275.53    -0.46549 ( 99.89%)    -0.55096 (  0.11%)    -0.46558
      73    284.26    -0.44958 ( 99.90%)    -0.54172 (  0.10%)    -0.44967
      74    288.66    -0.44180 ( 99.91%)    -0.53717 (  0.09%)    -0.44189
      75    292.07    -0.43587 ( 99.91%)    -0.53368 (  0.09%)    -0.43595
      76    295.64    -0.42977 ( 99.92%)    -0.53009 (  0.08%)    -0.42985
   ------------------------------------------------------------------------

   temp. (K)  partition function   enthalpy   heat capacity  entropy
                                   cal/mol     cal/K/mol   cal/K/mol   J/K/mol
 298.15  VIB  0.554E+32            42725.697    234.025    275.826
         ROT  0.352E+08              888.752      2.981     37.512
         INT  0.195E+40            43614.450    237.006    313.338
         TR   0.121E+29             1481.254      4.968     44.716
         TOT                       45095.7036   241.9737   358.0542  1498.0989

       T/K    H(0)-H(T)+PV         H(T)/Eh          T*S/Eh         G(T)/Eh
   ------------------------------------------------------------------------
    298.15    0.718646E-01    0.809220E+00    0.170123E+00    0.639097E+00
   ------------------------------------------------------------------------

         :::::::::::::::::::::::::::::::::::::::::::::::::::::
         ::                  THERMODYNAMIC                  ::
         :::::::::::::::::::::::::::::::::::::::::::::::::::::
         :: total free energy        -147.101787182339 Eh   ::
         ::.................................................::
         :: total energy             -147.740883980479 Eh   ::
         :: zero point energy           0.737355338581 Eh   ::
         :: G(RRHO) w/o ZPVE           -0.098258540442 Eh   ::
         :: G(RRHO) contrib.            0.639096798139 Eh   ::
         :::::::::::::::::::::::::::::::::::::::::::::::::::::

optimized geometry written to: xtbopt.xyz


           -------------------------------------------------
          | TOTAL ENERGY             -147.740883980479 Eh   |
          | TOTAL ENTHALPY           -146.931664063798 Eh   |
          | TOTAL FREE ENERGY        -147.101787182339 Eh   |
          | GRADIENT NORM               0.000215230813 Eh/α |
          | HOMO-LUMO GAP               6.170456561387 eV   |
           -------------------------------------------------

------------------------------------------------------------------------
 * finished run on 2022/10/12 at 03:16:08.934     
------------------------------------------------------------------------
 total:
 * wall-time:     0 d,  0 h,  0 min, 10.418 sec
 *  cpu-time:     0 d,  0 h,  1 min, 41.561 sec
 * ratio c/w:     9.748 speedup
 SCF:
 * wall-time:     0 d,  0 h,  0 min,  0.101 sec
 *  cpu-time:     0 d,  0 h,  0 min,  0.985 sec
 * ratio c/w:     9.760 speedup
 ANC optimizer:
 * wall-time:     0 d,  0 h,  0 min,  0.325 sec
 *  cpu-time:     0 d,  0 h,  0 min,  3.089 sec
 * ratio c/w:     9.490 speedup
 analytical hessian:
 * wall-time:     0 d,  0 h,  0 min,  9.806 sec
 *  cpu-time:     0 d,  0 h,  1 min, 35.764 sec
 * ratio c/w:     9.766 speedup

