91
 energy: -147.740883980478 gnorm: 0.000215232233 xtb: 6.5.1 (579679a)
C            1.43189739240000       -0.16210141830000       -0.19927013670000
C           -0.50473898020000       -0.77568203380000        1.11884438260000
C           -1.69319353480000        0.05323169660000        0.65537197170000
C            1.00030462670000        1.22147198530000       -0.43979597180000
H            1.91650735450000       -0.58990540900000       -1.08287079800000
H           -0.85291146400000       -1.73108621990000        1.50729216310000
H           -2.20693362620000       -0.45597667370000       -0.15338484310000
H            0.30942385590000        1.45594647500000       -1.22405322230000
H            2.12338476270000       -0.19227869420000        0.64749915330000
H            0.04815008300000       -0.26220442800000        1.90765801690000
H           -2.38409263920000        0.18524907710000        1.47649391880000
H           -1.36396102560000        1.02487280030000        0.30762952930000
O            0.37633829580000       -1.10782976020000        0.05674945390000
N            1.26917828780000        2.22352018750000        0.49919477410000
H            1.27974654830000        3.14862108530000        0.08790691670000
H            2.11965940420000        2.04406343170000        1.02263336870000
O            1.53009942960000       -3.53611260460000       -1.75586132110000
H            0.56023590140000       -3.45867730790000       -1.71532181870000
H            1.84131432500000       -3.39141876900000       -0.84052160310000
O           -3.92908000350000        2.53460643940000        1.56121512250000
H           -3.47136611950000        2.12204632680000        2.31390414850000
H           -3.24978571540000        2.97690344040000        1.04012729270000
O           -1.09817172130000       -2.75682151790000       -1.44906486110000
H           -0.58245369680000       -2.15545604380000       -0.87284846190000
H           -1.50197099210000       -2.16078814160000       -2.09692402540000
O           -1.89936774960000       -0.54529712650000       -2.94450336240000
H           -2.41194535860000       -0.58618498950000       -3.75289354140000
H           -2.25032480930000        0.22851050650000       -2.44438918990000
O           -2.82854193350000        1.74369853300000       -1.92446962620000
H           -2.51273560900000        2.21698545810000       -1.14250360550000
H           -2.40284713000000        2.20673492730000       -2.67961495190000
O            2.37675598750000       -1.69829882640000       -3.35756367020000
H            2.03838877200000       -2.40028428450000       -2.71528586210000
H            2.48614636710000       -2.14992099090000       -4.19542782570000
O           -1.35861319300000       -3.33925641910000        3.04564181380000
H           -1.77470739930000       -3.54437228190000        2.16762528580000
H           -1.49573024580000       -4.11280438540000        3.59354043630000
O            3.95641734900000        0.94118054830000        1.70776723660000
H            3.30724166180000        0.67190694310000        2.42659785930000
H            4.72030175150000        1.28259200890000        2.17474501900000
O            0.09014580480000        1.95962878090000        3.09967365630000
H            0.21819162740000        1.98198658550000        2.13870616190000
H           -0.82931282990000        1.69101513590000        3.26822923650000
O           -1.55793198300000        3.40586090560000        0.07806723440000
H           -1.06606209250000        3.47134182700000        0.90060359030000
H           -0.96947192650000        3.75845651130000       -0.61009317880000
O           -4.51430819490000       -1.64910099260000        1.08315518590000
H           -4.58648822840000       -0.79658522180000        0.58044829590000
H           -5.41284574830000       -1.96204955570000        1.19174360060000
O            4.56939695750000       -1.49843702080000        0.51178697160000
H            4.63953168410000       -1.27599466690000       -0.42943945850000
H            4.38572271330000       -0.66111260460000        0.97383376910000
O           -2.58972119710000       -3.64684410540000        0.71992927270000
H           -3.28255086430000       -2.96727378330000        0.76681161830000
H           -2.07817164920000       -3.45268135450000       -0.08616092740000
O            2.56798498590000       -3.21367373700000        0.77990559730000
H            3.30789066560000       -2.56034207900000        0.69361160160000
H            2.97618430210000       -4.03546597350000        1.05627749970000
O            0.33773720950000        4.23587064320000       -1.81273819270000
H            1.08599250980000        3.66879908630000       -2.16740315620000
H            0.53207659430000        5.13272922120000       -2.08560882790000
O           -3.18592535540000       -1.27803643980000        3.49114873190000
H           -3.69379913700000       -1.40554033080000        2.66869469470000
H           -2.46460098610000       -1.92955169180000        3.45254802170000
O            4.04247568880000        1.73466962300000       -1.06674857130000
H            4.30076942460000        0.90399644640000       -1.49526529190000
H            3.99051749980000        1.53426950340000       -0.12306504070000
O            1.35759538270000       -2.28368859550000        3.14121469600000
H            0.44551450360000       -2.59889572670000        3.19210659150000
H            1.69465039030000       -2.57926586720000        2.27858237550000
O            2.17128379060000        2.69976956090000       -2.82388218080000
H            2.85445302520000        2.40873991090000       -2.19008926830000
H            1.70654861340000        1.89597873100000       -3.11066122000000
O            2.24956299870000        0.28204198170000        3.54571949150000
H            1.46880007450000        0.86638167240000        3.54264650680000
H            1.92512021990000       -0.63856769690000        3.48670160730000
O           -1.15227410370000        2.80433631530000       -3.71886808450000
H           -0.51609961430000        2.11120960420000       -3.93509272700000
H           -0.68455849610000        3.41115824580000       -3.12185165580000
O           -2.55001554940000        1.27819531610000        3.64268414600000
H           -2.78997595690000        1.58140315360000        4.51912589980000
H           -2.76346298720000        0.30788291900000        3.62204071580000
O           -4.83355962960000        0.65420165840000       -0.17234601600000
H           -4.30237105050000        0.91797825550000       -0.93369589870000
H           -4.65922070760000        1.34331393820000        0.50229037510000
O            0.61487464260000        0.46739867770000       -3.58289999810000
H           -0.22001986840000        0.06113942870000       -3.28745257540000
H            1.26826187120000       -0.24825844900000       -3.53715114580000
O            4.59111381690000       -0.75515704820000       -2.17971303040000
H            5.31596643260000       -0.89688270080000       -2.78905298930000
H            3.77355918540000       -1.08159836540000       -2.62024948010000
