      -----------------------------------------------------------      
     |                   =====================                   |     
     |                           x T B                           |     
     |                   =====================                   |     
     |                         S. Grimme                         |     
     |          Mulliken Center for Theoretical Chemistry        |     
     |                    University of Bonn                     |     
      -----------------------------------------------------------      

   * xtb version 6.5.1 (579679a) compiled by 'ehlert@majestix' on 2022-07-11

   xtb is free software: you can redistribute it and/or modify it under
   the terms of the GNU Lesser General Public License as published by
   the Free Software Foundation, either version 3 of the License, or
   (at your option) any later version.
   
   xtb is distributed in the hope that it will be useful,
   but WITHOUT ANY WARRANTY; without even the implied warranty of
   MERCHANTABILITY or FITNESS FOR A PARTICULAR PURPOSE.  See the
   GNU Lesser General Public License for more details.
   
   Cite this work as:
   * C. Bannwarth, E. Caldeweyher, S. Ehlert, A. Hansen, P. Pracht,
     J. Seibert, S. Spicher, S. Grimme, WIREs Comput. Mol. Sci., 2020, 11,
     e01493. DOI: 10.1002/wcms.1493
   
   for GFN2-xTB:
   * C. Bannwarth, S. Ehlert and S. Grimme., J. Chem. Theory Comput., 2019,
     15, 1652-1671. DOI: 10.1021/acs.jctc.8b01176
   for GFN1-xTB:
   * S. Grimme, C. Bannwarth, P. Shushkov, J. Chem. Theory Comput., 2017,
     13, 1989-2009. DOI: 10.1021/acs.jctc.7b00118
   for GFN0-xTB:
   * P. Pracht, E. Caldeweyher, S. Ehlert, S. Grimme, ChemRxiv, 2019, preprint.
     DOI: 10.26434/chemrxiv.8326202.v1
   for GFN-FF:
   * S. Spicher and S. Grimme, Angew. Chem. Int. Ed., 2020, 59, 15665-15673.
     DOI: 10.1002/anie.202004239
   
   for ALPB and GBSA implicit solvation:
   * S. Ehlert, M. Stahn, S. Spicher, S. Grimme, J. Chem. Theory Comput.,
     2021, 17, 4250-4261. DOI: 10.1021/acs.jctc.1c00471
   
   for DFT-D4:
   * E. Caldeweyher, C. Bannwarth and S. Grimme, J. Chem. Phys., 2017,
     147, 034112. DOI: 10.1063/1.4993215
   * E. Caldeweyher, S. Ehlert, A. Hansen, H. Neugebauer, S. Spicher,
     C. Bannwarth and S. Grimme, J. Chem. Phys., 2019, 150, 154122.
     DOI: 10.1063/1.5090222
   * E. Caldeweyher, J.-M. Mewes, S. Ehlert and S. Grimme, Phys. Chem. Chem. Phys.
     2020, 22, 8499-8512. DOI: 10.1039/D0CP00502A
   
   for sTDA-xTB:
   * S. Grimme and C. Bannwarth, J. Chem. Phys., 2016, 145, 054103.
     DOI: 10.1063/1.4959605
   
   in the mass-spec context:
   * V. Asgeirsson, C. Bauer and S. Grimme, Chem. Sci., 2017, 8, 4879.
     DOI: 10.1039/c7sc00601b
   * J. Koopman and S. Grimme, ACS Omega 2019, 4, 12, 15120-15133.
     DOI: 10.1021/acsomega.9b02011
   
   for metadynamics refer to:
   * S. Grimme, J. Chem. Theory Comput., 2019, 155, 2847-2862
     DOI: 10.1021/acs.jctc.9b00143
   
   for SPH calculations refer to:
   * S. Spicher and S. Grimme, J. Chem. Theory Comput., 2021, 17, 1701-1714
     DOI: 10.1021/acs.jctc.0c01306
   
   with help from (in alphabetical order)
   P. Atkinson, C. Bannwarth, F. Bohle, G. Brandenburg, E. Caldeweyher
   M. Checinski, S. Dohm, S. Ehlert, S. Ehrlich, I. Gerasimov, C. Hölzer
   A. Katbashev, J. Koopman, C. Lavigne, S. Lehtola, F. März, M. Müller,
   F. Musil, H. Neugebauer, J. Pisarek, C. Plett, P. Pracht, F. Pultar,
   J. Seibert, P. Shushkov, S. Spicher, M. Stahn, M. Steiner, T. Strunk,
   J. Stückrath, T. Rose, and J. Unsleber
   
 * started run on 2022/11/24 at 09:07:52.367     

           -------------------------------------------------
          |                Calculation Setup                |
           -------------------------------------------------

          program call               : xtb solvent_cluster.coord --gfn2 --input xcontrol --opt 1
          hostname                   : cn0341
          coordinate file            : solvent_cluster.coord
          omp threads                :                     2

   ID    Z sym.   atoms
    1    8 o      1, 4, 7, 10, 13, 16, 19, 22, 25, 28, 31, 34, 37, 40, 43,
                  46, 49, 52, 55, 58, 61, 64, 67, 70, 73, 76, 79, 82, 85, 88,
                  91, 94, 97, 100, 103, 106, 109, 112, 115, 118, 121, 124,
                  127, 130, 133, 136, 139, 142, 145, 148, 151, 154, 157, 160,
                  163, 166, 169, 172, 175, 178, 181, 184, 187, 190, 193, 196,
                  199, 202, 205, 208, 211, 214, 217, 220, 223, 226, 229, 232,
                  235, 238, 241, 244, 247, 250, 253, 256, 259, 262, 265, 268,
                  271, 274, 277, 280, 283, 286, 289, 292, 295, 298, 301, 304,
                  307, 310, 313, 316, 319, 322, 325, 328, 331, 334, 337, 340,
                  343, 346, 349, 352, 355, 358, 361, 364, 367, 370, 373, 376,
                  379, 382, 385, 388, 391, 394, 397, 400, 403, 406, 409, 412,
                  415, 418, 421, 424, 427, 430, 433, 436, 439, 442, 445, 448,
                  451, 454, 457, 460, 463, 466, 469, 472, 475, 478, 481, 484,
                  487, 490, 493, 496, 499, 502, 505, 508, 511, 514, 517, 520,
                  523, 526, 529, 532, 535, 538, 541, 544, 547, 550, 553, 556,
                  559, 562, 565, 568, 571, 574, 577, 580, 583, 586, 589, 592,
                  595, 598, 601, 604, 607, 610, 613, 616, 619, 622, 625, 628,
                  631, 634, 637, 640, 643, 646, 649, 652, 655, 658, 661, 664,
                  667, 670, 673, 676, 679, 682, 685, 688, 691, 694, 697, 700,
                  703, 706, 709, 712, 715, 718, 721, 724, 727, 730, 733, 736,
                  739, 742, 745, 748, 751, 754
    2    1 h      2, 3, 5, 6, 8, 9, 11, 12, 14, 15, 17, 18, 20, 21, 23, 24,
                  26, 27, 29, 30, 32, 33, 35, 36, 38, 39, 41, 42, 44, 45, 47,
                  48, 50, 51, 53, 54, 56, 57, 59, 60, 62, 63, 65, 66, 68, 69,
                  71, 72, 74, 75, 77, 78, 80, 81, 83, 84, 86, 87, 89, 90, 92,
                  93, 95, 96, 98, 99, 101, 102, 104, 105, 107, 108, 110, 111,
                  113, 114, 116, 117, 119, 120, 122, 123, 125, 126, 128, 129,
                  131, 132, 134, 135, 137, 138, 140, 141, 143, 144, 146, 147,
                  149, 150, 152, 153, 155, 156, 158, 159, 161, 162, 164, 165,
                  167, 168, 170, 171, 173, 174, 176, 177, 179, 180, 182, 183,
                  185, 186, 188, 189, 191, 192, 194, 195, 197, 198, 200, 201,
                  203, 204, 206, 207, 209, 210, 212, 213, 215, 216, 218, 219,
                  221, 222, 224, 225, 227, 228, 230, 231, 233, 234, 236, 237,
                  239, 240, 242, 243, 245, 246, 248, 249, 251, 252, 254, 255,
                  257, 258, 260, 261, 263, 264, 266, 267, 269, 270, 272, 273,
                  275, 276, 278, 279, 281, 282, 284, 285, 287, 288, 290, 291,
                  293, 294, 296, 297, 299, 300, 302, 303, 305, 306, 308, 309,
                  311, 312, 314, 315, 317, 318, 320, 321, 323, 324, 326, 327,
                  329, 330, 332, 333, 335, 336, 338, 339, 341, 342, 344, 345,
                  347, 348, 350, 351, 353, 354, 356, 357, 359, 360, 362, 363,
                  365, 366, 368, 369, 371, 372, 374, 375, 377, 378, 380, 381,
                  383, 384, 386, 387, 389, 390, 392, 393, 395, 396, 398, 399,
                  401, 402, 404, 405, 407, 408, 410, 411, 413, 414, 416, 417,
                  419, 420, 422, 423, 425, 426, 428, 429, 431, 432, 434, 435,
                  437, 438, 440, 441, 443, 444, 446, 447, 449, 450, 452, 453,
                  455, 456, 458, 459, 461, 462, 464, 465, 467, 468, 470, 471,
                  473, 474, 476, 477, 479, 480, 482, 483, 485, 486, 488, 489,
                  491, 492, 494, 495, 497, 498, 500, 501, 503, 504, 506, 507,
                  509, 510, 512, 513, 515, 516, 518, 519, 521, 522, 524, 525,
                  527, 528, 530, 531, 533, 534, 536, 537, 539, 540, 542, 543,
                  545, 546, 548, 549, 551, 552, 554, 555, 557, 558, 560, 561,
                  563, 564, 566, 567, 569, 570, 572, 573, 575, 576, 578, 579,
                  581, 582, 584, 585, 587, 588, 590, 591, 593, 594, 596, 597,
                  599, 600, 602, 603, 605, 606, 608, 609, 611, 612, 614, 615,
                  617, 618, 620, 621, 623, 624, 626, 627, 629, 630, 632, 633,
                  635, 636, 638, 639, 641, 642, 644, 645, 647, 648, 650, 651,
                  653, 654, 656, 657, 659, 660, 662, 663, 665, 666, 668, 669,
                  671, 672, 674, 675, 677, 678, 680, 681, 683, 684, 686, 687,
                  689, 690, 692, 693, 695, 696, 698, 699, 701, 702, 704, 705,
                  707, 708, 710, 711, 713, 714, 716, 717, 719, 720, 722, 723,
                  725, 726, 728, 729, 731, 732, 734, 735, 737, 738, 740, 741,
                  743, 744, 746, 747, 749, 750, 752, 753, 755, 756

molecular fragmentation (1/2 indicates fragments):
111222222222222222222222222222222222222222222222222222222222222222222222
222222222222222222222222222222222222222222222222222222222222222222222222
222222222222222222222222222222222222222222222222222222222222222222222222
222222222222222222222222222222222222222222222222222222222222222222222222
222222222222222222222222222222222222222222222222222222222222222222222222
222222222222222222222222222222222222222222222222222222222222222222222222
222222222222222222222222222222222222222222222222222222222222222222222222
222222222222222222222222222222222222222222222222222222222222222222222222
222222222222222222222222222222222222222222222222222222222222222222222222
222222222222222222222222222222222222222222222222222222222222222222222222
222222222222222222222222222222222222
# atoms in fragment 1/2:     3   753
 fragment masses (1/2) :       18.02     4521.84
CMA distance (Bohr)    :  15.843
constraining FC (au)   :  0.0500

           -------------------------------------------------
          |                 G F N 2 - x T B                 |
           -------------------------------------------------

        Reference                      10.1021/acs.jctc.8b01176
      * Hamiltonian:
        H0-scaling (s, p, d)           1.850000    2.230000    2.230000
        zeta-weighting                 0.500000
      * Dispersion:
        s8                             2.700000
        a1                             0.520000
        a2                             5.000000
        s9                             5.000000
      * Repulsion:
        kExp                           1.500000    1.000000
        rExp                           1.000000
      * Coulomb:
        alpha                          2.000000
        third order                    shell-resolved
        anisotropic                    true
        a3                             3.000000
        a5                             4.000000
        cn-shift                       1.200000
        cn-exp                         4.000000
        max-rad                        5.000000


          ...................................................
          :                      SETUP                      :
          :.................................................:
          :  # basis functions                1512          :
          :  # atomic orbitals                1512          :
          :  # shells                         1008          :
          :  # electrons                      2016          :
          :  max. iterations                   250          :
          :  Hamiltonian                  GFN2-xTB          :
          :  restarted?                      false          :
          :  GBSA solvation                  false          :
          :  PC potential                    false          :
          :  electronic temp.          300.0000000     K    :
          :  accuracy                    1.0000000          :
          :  -> integral cutoff          0.2500000E+02      :
          :  -> integral neglect         0.1000000E-07      :
          :  -> SCF convergence          0.1000000E-05 Eh   :
          :  -> wf. convergence          0.1000000E-03 e    :
          :  Broyden damping             0.4000000          :
          ...................................................

 iter      E             dE          RMSdq      gap      omega  full diag
   1  -1291.0201582 -0.129102E+04  0.407E+00    8.42       0.0  T
   2  -1291.0908365 -0.706783E-01  0.241E+00    8.22       1.0  T
   3  -1291.1213338 -0.304973E-01  0.208E-01    7.93       1.0  T
   4  -1291.1263335 -0.499963E-02  0.450E-02    8.06       1.0  T
   5  -1291.1264081 -0.746566E-04  0.305E-02    8.04       1.0  T
   6  -1291.1264461 -0.379596E-04  0.420E-03    8.05       1.0  T
   7  -1291.1264483 -0.227424E-05  0.784E-04    8.05       4.6  T
   8  -1291.1264484 -0.355660E-07  0.410E-04    8.05       8.9  T
   9  -1291.1264484 -0.165142E-07  0.645E-05    8.05      56.4  T

   *** convergence criteria satisfied after 9 iterations ***

         #    Occupation            Energy/Eh            Energy/eV
      -------------------------------------------------------------
         1        2.0000           -0.6879497             -18.7201
       ...           ...                  ...                  ...
      1002        2.0000           -0.4113534             -11.1935
      1003        2.0000           -0.4109879             -11.1836
      1004        2.0000           -0.4105249             -11.1710
      1005        2.0000           -0.4101794             -11.1615
      1006        2.0000           -0.4079082             -11.0997
      1007        2.0000           -0.4065194             -11.0620
      1008        2.0000           -0.4028622             -10.9624 (HOMO)
      1009                         -0.1070200              -2.9122 (LUMO)
      1010                         -0.0974353              -2.6513
      1011                         -0.0851847              -2.3180
      1012                         -0.0814378              -2.2160
      1013                         -0.0756398              -2.0583
       ...                                ...                  ...
      1512                          0.4276429              11.6368
      -------------------------------------------------------------
                  HL-Gap            0.2958423 Eh            8.0503 eV
             Fermi-level           -0.2549411 Eh           -6.9373 eV

 SCC (total)                   0 d,  0 h,  0 min, 20.252 sec
 SCC setup                      ...        0 min,  0.043 sec (  0.210%)
 Dispersion                     ...        0 min,  0.110 sec (  0.544%)
 classical contributions        ...        0 min,  0.023 sec (  0.114%)
 integral evaluation            ...        0 min,  0.614 sec (  3.033%)
 iterations                     ...        0 min,  6.828 sec ( 33.718%)
 molecular gradient             ...        0 min, 12.569 sec ( 62.064%)
 printout                       ...        0 min,  0.064 sec (  0.315%)

         :::::::::::::::::::::::::::::::::::::::::::::::::::::
         ::                     SUMMARY                     ::
         :::::::::::::::::::::::::::::::::::::::::::::::::::::
         :: total energy           -1283.350113845341 Eh    ::
         :: gradient norm              0.042305574525 Eh/a0 ::
         :: HOMO-LUMO gap              8.050277441115 eV    ::
         ::.................................................::
         :: SCC energy             -1291.126448395533 Eh    ::
         :: -> isotropic ES            7.158399465950 Eh    ::
         :: -> anisotropic ES         -1.624229083397 Eh    ::
         :: -> anisotropic XC         -0.125965800092 Eh    ::
         :: -> dispersion             -0.798560933729 Eh    ::
         :: repulsion energy           7.618159181952 Eh    ::
         :: add. restraining           0.000000000000 Eh    ::
         :: total charge              -0.000000000000 e     ::
         :::::::::::::::::::::::::::::::::::::::::::::::::::::

      ----------------------------------------------------------- 
     |                       L-ANC optimizer                     |
      ----------------------------------------------------------- 
          low memory version by Sebastian Ehlert

          ...................................................
          :                      SETUP                      :
          :.................................................:
          :   energy convergence        0.1000000E-05 Eh    :
          :   grad. convergence         0.8000000E-03 Eh/a0 :
          :   optimization log               true           :
          :   writing optlog all                1     steps :
          :   Hessian reset                    20     steps :
          :   maximium step len.        1.0000000     a0    :
          :   LBFGS images                     20           :
          ...................................................
 * calculating model hessian...
Using Lindh-Hessian (1995)
 Shifting diagonal of input Hessian by   1.000004794416597E-002
 Lowest  eigenvalues of input Hessian
    0.010000   -0.000000   -0.000000   -0.000000   -0.000000   -0.000000
   -0.000000   -0.000000   -0.000000   -0.000000   -0.000000   -0.000000
   -0.000000   -0.000000   -0.000000   -0.000000   -0.000000   -0.000000
 Highest eigenvalues
    0.315448    0.318339    1.198254    1.226460    1.442171    1.448338
 

........................................................................
.............................. CYCLE    1 ..............................
........................................................................
   1  -1291.1222174 -0.129112E+04  0.391E-02    7.96       0.0  T
   2  -1291.1222467 -0.292230E-04  0.238E-02    7.94       1.0  T
   3  -1291.1222563 -0.968915E-05  0.298E-03    7.92       1.2  T
   4  -1291.1222572 -0.861869E-06  0.722E-04    7.92       5.0  T
   5  -1291.1222572 -0.128800E-07  0.103E-04    7.92      35.4  T
     SCC iter.                  ...        0 min,  3.163 sec
     gradient                   ...        0 min, 12.622 sec
 * total energy  : -1283.3531149 Eh     change       -0.3001037E-02 Eh
   gradient norm :     0.0299751 Eh/a0  converged?    E=F G=F D=F
   step length   :     0.4714640 a0

........................................................................
.............................. CYCLE    2 ..............................
........................................................................
   1  -1291.1275326 -0.129113E+04  0.206E-02    7.99       0.0  T
   2  -1291.1275403 -0.771097E-05  0.125E-02    7.99       1.0  T
   3  -1291.1275430 -0.266852E-05  0.153E-03    7.99       2.4  T
   4  -1291.1275432 -0.213609E-06  0.407E-04    7.99       8.9  T
   5  -1291.1275432 -0.484897E-08  0.675E-05    7.99      53.9  T
     SCC iter.                  ...        0 min,  3.073 sec
     gradient                   ...        0 min, 12.607 sec
 * total energy  : -1283.3549582 Eh     change       -0.1843359E-02 Eh
   gradient norm :     0.0147501 Eh/a0  converged?    E=F G=F D=F
   step length   :     0.4276654 a0

........................................................................
.............................. CYCLE    3 ..............................
........................................................................
   1  -1291.1291211 -0.129113E+04  0.175E-02    7.97       0.0  T
   2  -1291.1291285 -0.739733E-05  0.106E-02    7.95       1.0  T
   3  -1291.1291303 -0.178894E-05  0.150E-03    7.94       2.4  T
   4  -1291.1291305 -0.233496E-06  0.323E-04    7.94      11.3  T
   5  -1291.1291305 -0.322689E-08  0.568E-05    7.94      64.1  T
     SCC iter.                  ...        0 min,  3.042 sec
     gradient                   ...        0 min, 12.605 sec
 * total energy  : -1283.3559671 Eh     change       -0.1008822E-02 Eh
   gradient norm :     0.0115998 Eh/a0  converged?    E=F G=F D=F
   step length   :     0.4930269 a0

........................................................................
.............................. CYCLE    4 ..............................
........................................................................
   1  -1291.1300333 -0.129113E+04  0.110E-02    7.93       0.0  T
   2  -1291.1300391 -0.579502E-05  0.648E-03    7.92       1.0  T
   3  -1291.1300401 -0.100227E-05  0.134E-03    7.91       2.7  T
   4  -1291.1300402 -0.144510E-06  0.233E-04    7.91      15.6  T
   5  -1291.1300402 -0.219825E-08  0.457E-05    7.91      79.6  T
     SCC iter.                  ...        0 min,  3.051 sec
     gradient                   ...        0 min, 12.628 sec
 * total energy  : -1283.3563124 Eh     change       -0.3453842E-03 Eh
   gradient norm :     0.0113191 Eh/a0  converged?    E=F G=F D=F
   step length   :     0.3291029 a0

........................................................................
.............................. CYCLE    5 ..............................
........................................................................
   1  -1291.1289606 -0.129113E+04  0.627E-03    7.90       0.0  T
   2  -1291.1289615 -0.974504E-06  0.389E-03    7.90       1.0  T
   3  -1291.1289618 -0.290964E-06  0.519E-04    7.91       7.0  T
   4  -1291.1289619 -0.331468E-07  0.150E-04    7.90      24.3  T
     SCC iter.                  ...        0 min,  2.427 sec
     gradient                   ...        0 min, 12.711 sec
 * total energy  : -1283.3565127 Eh     change       -0.2002495E-03 Eh
   gradient norm :     0.0087498 Eh/a0  converged?    E=F G=F D=F
   step length   :     0.0928657 a0

........................................................................
.............................. CYCLE    6 ..............................
........................................................................
   1  -1291.1302904 -0.129113E+04  0.415E-03    7.90       0.0  T
   2  -1291.1302919 -0.149613E-05  0.247E-03    7.91       1.5  T
   3  -1291.1302921 -0.281254E-06  0.726E-04    7.91       5.0  T
   4  -1291.1302922 -0.308380E-07  0.128E-04    7.91      28.4  T
     SCC iter.                  ...        0 min,  2.399 sec
     gradient                   ...        0 min, 12.723 sec
 * total energy  : -1283.3566078 Eh     change       -0.9514035E-04 Eh
   gradient norm :     0.0057436 Eh/a0  converged?    E=F G=F D=F
   step length   :     0.1210154 a0

........................................................................
.............................. CYCLE    7 ..............................
........................................................................
   1  -1291.1291584 -0.129113E+04  0.439E-03    7.91       0.0  T
   2  -1291.1291590 -0.611286E-06  0.267E-03    7.91       1.4  T
   3  -1291.1291591 -0.120935E-06  0.450E-04    7.91       8.1  T
   4  -1291.1291591 -0.212508E-07  0.850E-05    7.91      42.8  T
     SCC iter.                  ...        0 min,  2.363 sec
     gradient                   ...        0 min, 12.746 sec
 * total energy  : -1283.3566848 Eh     change       -0.7693021E-04 Eh
   gradient norm :     0.0064648 Eh/a0  converged?    E=F G=F D=F
   step length   :     0.1007358 a0

........................................................................
.............................. CYCLE    8 ..............................
........................................................................
   1  -1291.1286008 -0.129113E+04  0.636E-03    7.91       0.0  T
   2  -1291.1286019 -0.116705E-05  0.386E-03    7.92       1.0  T
   3  -1291.1286021 -0.220187E-06  0.617E-04    7.92       5.9  T
   4  -1291.1286022 -0.405130E-07  0.109E-04    7.92      33.5  T
     SCC iter.                  ...        0 min,  2.336 sec
     gradient                   ...        0 min, 12.798 sec
 * total energy  : -1283.3567851 Eh     change       -0.1003820E-03 Eh
   gradient norm :     0.0069049 Eh/a0  converged?    E=F G=F D=F
   step length   :     0.1683292 a0

........................................................................
.............................. CYCLE    9 ..............................
........................................................................
   1  -1291.1291310 -0.129113E+04  0.447E-03    7.92       0.0  T
   2  -1291.1291315 -0.559657E-06  0.272E-03    7.92       1.3  T
   3  -1291.1291316 -0.100506E-06  0.404E-04    7.92       9.0  T
   4  -1291.1291317 -0.193550E-07  0.718E-05    7.92      50.7  T
     SCC iter.                  ...        0 min,  2.331 sec
     gradient                   ...        0 min, 12.762 sec
 * total energy  : -1283.3568528 Eh     change       -0.6768384E-04 Eh
   gradient norm :     0.0052008 Eh/a0  converged?    E=F G=F D=F
   step length   :     0.1326680 a0

........................................................................
.............................. CYCLE   10 ..............................
........................................................................
   1  -1291.1300965 -0.129113E+04  0.198E-03    7.92       0.0  T
   2  -1291.1300966 -0.132312E-06  0.119E-03    7.92       3.1  T
   3  -1291.1300966 -0.271807E-07  0.193E-04    7.92      18.8  T
   4  -1291.1300967 -0.384534E-08  0.445E-05    7.92      81.8  T
     SCC iter.                  ...        0 min,  2.345 sec
     gradient                   ...        0 min, 12.790 sec
 * total energy  : -1283.3568781 Eh     change       -0.2523123E-04 Eh
   gradient norm :     0.0013264 Eh/a0  converged?    E=F G=F D=F
   step length   :     0.0424307 a0

........................................................................
.............................. CYCLE   11 ..............................
........................................................................
   1  -1291.1302439 -0.129113E+04  0.388E-03    7.92       0.0  T
   2  -1291.1302441 -0.159639E-06  0.239E-03    7.92       1.5  T
   3  -1291.1302441 -0.767516E-07  0.209E-04    7.92      17.4  T
   4  -1291.1302441 -0.346813E-08  0.715E-05    7.92      50.9  T
     SCC iter.                  ...        0 min,  2.327 sec
     gradient                   ...        0 min, 12.763 sec
 * total energy  : -1283.3568869 Eh     change       -0.8809166E-05 Eh
   gradient norm :     0.0041890 Eh/a0  converged?    E=F G=F D=F
   step length   :     0.0546749 a0

........................................................................
.............................. CYCLE   12 ..............................
........................................................................
   1  -1291.1303837 -0.129113E+04  0.112E-03    7.92       0.0  T
   2  -1291.1303838 -0.417792E-07  0.668E-04    7.92       5.4  T
   3  -1291.1303838 -0.894670E-08  0.116E-04    7.92      31.4  T
     SCC iter.                  ...        0 min,  1.756 sec
     gradient                   ...        0 min, 12.752 sec
 * total energy  : -1283.3569024 Eh     change       -0.1550461E-04 Eh
   gradient norm :     0.0017623 Eh/a0  converged?    E=F G=F D=F
   step length   :     0.0361561 a0

........................................................................
.............................. CYCLE   13 ..............................
........................................................................
   1  -1291.1301782 -0.129113E+04  0.166E-03    7.92       0.0  T
   2  -1291.1301783 -0.155449E-06  0.997E-04    7.93       3.6  T
   3  -1291.1301784 -0.264222E-07  0.223E-04    7.93      16.3  T
     SCC iter.                  ...        0 min,  1.761 sec
     gradient                   ...        0 min, 12.696 sec
 * total energy  : -1283.3569099 Eh     change       -0.7536913E-05 Eh
   gradient norm :     0.0009534 Eh/a0  converged?    E=F G=F D=F
   step length   :     0.0525893 a0

........................................................................
.............................. CYCLE   14 ..............................
........................................................................
   1  -1291.1302017 -0.129113E+04  0.633E-04    7.93       0.0  T
   2  -1291.1302017 -0.707882E-08  0.381E-04    7.93       9.5  T
   3  -1291.1302017 -0.175169E-08  0.467E-05    7.93      77.9  T
     SCC iter.                  ...        0 min,  1.766 sec
     gradient                   ...        0 min, 12.641 sec
 * total energy  : -1283.3569122 Eh     change       -0.2259403E-05 Eh
   gradient norm :     0.0003329 Eh/a0  converged?    E=F G=T D=F
   step length   :     0.0125092 a0

........................................................................
.............................. CYCLE   15 ..............................
........................................................................
   1  -1291.1301935 -0.129113E+04  0.687E-04    7.93       0.0  T
   2  -1291.1301935 -0.124517E-07  0.413E-04    7.93       8.8  T
   3  -1291.1301935 -0.236832E-08  0.624E-05    7.93      58.2  T
     SCC iter.                  ...        0 min,  1.772 sec
     gradient                   ...        0 min, 12.575 sec
 * total energy  : -1283.3569129 Eh     change       -0.7530502E-06 Eh
   gradient norm :     0.0002324 Eh/a0  converged?    E=T G=T D=F
   step length   :     0.0159313 a0

   *** GEOMETRY OPTIMIZATION CONVERGED AFTER 15 CYCLES ***

------------------------------------------------------------------------
 total energy gain   :        -0.0067991 Eh       -4.2665 kcal/mol
 total RMSD          :         0.0559794 a0        0.0296 Å
 total power (kW/mol):        -1.1900660 (step)   -0.0718 (real)
------------------------------------------------------------------------

 L-ANCopt (total)              0 d,  0 h,  4 min,  8.712 sec
 setup                          ...        0 min,  0.030 sec (  0.012%)
 model hessian                  ...        0 min,  7.559 sec (  3.039%)
 ANC generation                 ...        0 min,  2.409 sec (  0.969%)
 coordinate transformation      ...        0 min,  0.001 sec (  0.000%)
 Rational function              ...        0 min,  0.000 sec (  0.000%)
 singlepoint calculation        ...        3 min, 58.602 sec ( 95.935%)
 optimization log               ...        0 min,  0.105 sec (  0.042%)
 hessian update                 ...        0 min,  0.000 sec (  0.000%)

================
 final structure:
================
$coord
       -6.17235838063000      -10.99086614492800       -9.59997998062100      o
       -4.70882743638700      -11.89517096936500      -10.18596426384600      h
       -5.70394888472700       -9.19897227386500       -9.68484010216200      h
        5.52578480961200       -2.69482455765400        4.89041763642700      o
        6.25706968285100       -3.14715542274100        3.25514225120000      h
        6.85673253967900       -2.01329432183100        5.93390707869800      h
        4.94229239291200        1.60919181334400       -4.98282946247500      o
        4.23926336441600        3.20144962219300       -4.41419795684300      h
        6.62626543306100        1.97043931838600       -5.62078507908700      h
        6.02991980494400        0.12530198576600       -0.10968042334200      o
        5.91870891447600        0.49041204397200       -1.90525904514500      h
        4.30380828382500        0.21587131578600        0.49222300689900      h
        4.20269828431400       -3.38657084584500       -4.32474192315100      o
        5.99502434798500       -3.38417393786000       -4.77054516590500      h
        3.65976729404400       -1.70949481805000       -4.79923785311600      h
       -3.37971768306900      -12.10859478428800        0.74552374964100      o
       -1.82984652496200      -11.41196448199600        0.00771330574600      h
       -2.79923664671500      -13.08316718843900        2.21121381784200      h
        9.61796772011700        0.88168519656300        3.45114905391100      o
        9.01101692654000        2.10894741036300        4.66556782315200      h
        8.29767494506500        0.67230525438700        2.16091889077000      h
        0.91402968638500       -5.53240659113000       -1.34936068152300      o
        2.44980933345500       -4.68536849599300       -1.90644066602600      h
        1.30192191648600       -7.32632144945200       -1.44270013189900      h
        2.90248130371300       -8.09375112963100        3.30044870994600      o
        2.37225509595800       -6.32373720783100        3.40937735268500      h
        4.73194038194300       -8.15019458224600        3.62015052253000      h
        0.62975599178200        5.77836339263700        1.98097793393500      o
        0.28375669563000        5.92338911218500        3.78840637785500      h
       -1.01853191253900        6.09579309095800        1.18509445398300      h
       -0.46237518690800        6.66929233977300        6.80115129191300      o
       -1.42496082541400        5.50825305626300        7.84637328954800      h
       -1.19883168940400        8.33605964738500        7.03185883630000      h
       -1.63739134671100        1.37838404431800        6.01203526905100      o
       -1.56863273452100        0.97167862126200        7.80146421484600      h
        0.11481208243900        1.64922979286800        5.49340556565100      h
        2.23272799477400       -7.62141001523800       -6.26774320480100      o
        1.37345940696700       -7.04316546916600       -7.78624093730000      h
        3.03052919734300       -6.11811231193100       -5.53467182206600      h
       -5.71959755545800        4.23456998095500        4.71395228245400      o
       -6.75726358895300        3.28246635465800        3.52343186855800      h
       -4.24418019625400        3.24037026893400        5.16983821262500      h
        9.74856876427400        3.88804653661800       -1.35680805312800      o
        8.21739187923500        4.07907477373500       -0.33898538346100      h
       11.15278775452300        4.50313716315000       -0.35924409412500      h
        0.84394673138400       -1.75731689604300       -8.21830020379200      o
       -0.51570675485900       -1.66362482375000       -9.45128303680300      h
        2.20308899724800       -2.83755693999400       -8.86076419761500      h
       -3.69584894842200       -1.03322571665300      -10.17467745401600      o
       -4.47507687197300        0.12547057124100       -8.94610545774400      h
       -4.48081177165500       -2.66221068891000       -9.87822093678000      h
      -12.85130066775700       -1.77194053104200       -0.21894437395100      o
      -11.63085525065800       -2.02595559302800        1.12724954545500      h
      -13.38294782338200       -3.41682159206900       -0.80716384695000      h
       -8.36834024273800       -5.40239360833500       -0.68844535515400      o
       -7.90983786094700       -7.04261045911200        0.04957110874300      h
       -8.51915375955500       -4.25779485875900        0.75017441962600      h
      -10.85863231235600        2.92824706564300        6.09851407995100      o
      -11.15640404351500        1.67702963294400        4.81735142870700      h
       -9.36941947845600        2.30104076448800        7.02978284837900      h
       -3.14942780496700        6.54103043751400       -5.26862857504500      o
       -3.75503590573800        4.83179059035900       -5.53129992056000      h
       -1.46089377744600        6.58076878775900       -5.98077622968900      h
        9.79088525723900        2.71763295743300       -6.24715708135300      o
       10.20968433072900        4.18277691278700       -7.28177439597500      h
        9.97324681223100        3.29017828147000       -4.50744682358400      h
       -3.36146777697900       -5.56346317338000        1.14741205961900      o
       -1.68331482441300       -5.64531078092800        0.39733616709100      h
       -4.07163779637800       -3.93349767165000        0.50887205243900      h
       -7.88435494280300       -4.56975532395300       -5.75920095565000      o
       -9.04769077322000       -5.83923131901000       -6.44274051968900      h
       -7.90925043037600       -4.71836523096200       -3.93317221019700      h
       -4.77518299841500       -2.43958820509400        5.56832767700600      o
       -3.93201804231000       -3.84720257896200        6.37560636732600      h
       -3.47264161993700       -1.14211353413000        5.35414559631700      h
       -9.94795031914300        0.14275743046900       -3.93002492794200      o
      -10.75398546283000        1.79457598820500       -3.89714368999900      h
      -10.55102891552800       -0.62908756963600       -2.37950165451200      h
        5.29457383694100       -6.76761302535900      -14.29729652347500      o
        7.00249230872100       -6.10650195135000      -14.35784384177800      h
        5.45319181856000       -8.57762256753100      -13.91602240239900      h
       10.41565025262000      -11.89336065933700       -2.11482784199800      o
       10.27749369804700      -10.04817170582900       -2.33274885375800      h
        9.94659871533400      -12.58259226426300       -3.76440471157100      h
      -12.91714150755500       -6.76789099611000       -1.73716159666400      o
      -11.11043555613100       -6.33062635495700       -1.68662542642100      h
      -13.09134251233700       -8.23609448316100       -2.83743277498400      h
        9.30823138753200        8.30019122061300        3.62723836545800      o
       10.46214233393200        8.33413108832400        2.19186730227200      h
       10.37777940363500        7.59231327646200        4.95687037402200      h
      -19.24877314040300       -3.59163787007800       -8.01218980195800      o
      -18.49647607438800       -2.60216284596200       -6.65506653838500      h
      -18.43628087854700       -5.23428100255100       -7.91681081930800      h
       -6.25653251596600       -6.84715469255000        9.72302150625300      o
       -7.18234389285700       -6.69618427783500        8.13525373992800      h
       -6.54832596756000       -8.57502646731300       10.29874469794900      h
        3.39354271988200        5.82858564444000       -2.61600640454600      o
        3.77101977908100        5.25534613052000       -0.90902076121000      h
        2.02691062934200        7.05087983693800       -2.48754341050100      h
        8.97275268536700       -5.05060116377600        8.63109550588000      o
        9.83331337896100       -6.04581204377500        9.91299091348000      h
        8.43094556406300       -3.48537401248100        9.41965515921800      h
       11.81811862985200       -3.42384151786900        4.92117449548000      o
       11.05233200345800       -1.85171002605100        4.32044096679400      h
       10.75216880030000       -4.04154660803100        6.30468427347000      h
       -7.85644264211200       -9.84861843458700        1.44436836684900      o
       -6.22918164983100      -10.67384821864800        1.16991413255400      h
       -9.17456849204000      -10.91908897748200        0.73314914590200      h
       -1.00439756160300       11.30025571733800        2.79609328772000      o
       -1.81035074655300       12.80803588083100        2.10609706018000      h
        0.29055879574300       11.91242787284500        3.94666163187000      h
        0.65648205593700       -3.46603702396400        4.01477732074100      o
       -1.00473470817700       -4.05526848678300        3.54240288481000      h
        1.02092430899200       -2.05123759777600        2.91120072544300      h
       -8.78020312494200        2.70590652742700        0.86529457482700      o
       -8.43401928136500        3.93414546346900       -0.44351331839200      h
      -10.57753373094700        2.84140832053100        1.16524067285100      h
       10.91989259591400       -1.07036066118900       -1.64458698300800      o
       12.62294416732900       -1.32189081084100       -0.99866959986100      h
       10.47234131716100        0.71397537244900       -1.47513493644800      h
        9.08524928716700      -13.22124579087200       -6.83670838444600      o
       10.21957960703000      -12.61656500621400       -8.11476541395600      h
        7.42512491863300      -12.55088342552700       -7.28538646974400      h
        4.70762836615500        4.04862491955900       -9.97750804957100      o
        5.47169031035100        5.42094197585100       -9.04196083860400      h
        4.38000286331300        4.71171021766900      -11.67769954362700      h
       -5.74567243686900        1.97833967166300       -6.64690077536600      o
       -6.89522105163800        3.12165875570700       -7.51860216574700      h
       -6.86489230376200        0.97316583652900       -5.59655856942900      h
       -7.12775733825000        2.43000428684300      -12.72378085558700      o
       -8.94014655486100        2.01977652214300      -12.65023718895300      h
       -6.51982713618500        1.63895681666300      -14.23568813576800      h
       12.33212677128300       -4.98313598509500       -8.55892050539000      o
       13.49839735403600       -6.37915204916400       -8.30665101652300      h
       13.20964400794500       -3.40377405786500       -8.16096137010900      h
       14.38224728666500        4.34058809405400       -4.64526358407800      o
       13.37126274851600        5.85227394673000       -4.31288582147300      h
       15.52392862062900        4.77602045503600       -6.02544936700400      h
        7.93820813785500       -4.49705092184000        0.77525470973600      o
        8.76514613534200       -3.12934831836900       -0.14055389322700      h
        6.98448065871200       -5.47817547753300       -0.45997527104600      h
      -17.49181300685500       -4.27392862233000       -2.51918141645000      o
      -19.23543718242900       -3.88735861665700       -2.96167003945000      h
      -17.32551700426400       -3.71455256977600       -0.76461065900700      h
       -5.27361727316100       11.36638342792700       -0.11694745934500      o
       -4.94868456025500       11.88840240281700       -1.84213309260500      h
       -6.93019625295300       11.99990600484200        0.33494175675700      h
       -5.78229979988200        9.55751138304800       -8.40284897389600      o
       -6.50095216865500        8.62690514951500       -9.82237162118400      h
       -4.87557026260000        8.31577929425800       -7.36034625070600      h
        7.57868748422800       -7.78541788303600       -7.25990908415100      o
        8.69428019488200       -8.40636616433600       -8.57144679591900      h
        6.53869833919200       -6.46757936253700       -8.03929392978800      h
        0.29868082993600        3.22974244773900       -7.46234907769800      o
        0.41469962749300        1.40776261436500       -7.29562372067900      h
        1.92844202602400        3.73037404063800       -8.15412657811500      h
       14.27668560285500       12.43520223299100        4.60872278619800      o
       12.74434758647800       13.37442126934900        4.27547703769400      h
       14.11362313679200       11.80665504674200        6.33927381819100      h
        8.00899258804100        4.40957641396000        7.20282430314600      o
        6.59445029194900        5.59950011325100        7.01039267031200      h
        9.11585487913800        5.13136975632700        8.44183263354900      h
        6.54204228144600        7.11917865291500       11.71719359369300      o
        5.70245211103700        8.06559144056900       13.01057117288100      h
        5.24859242969000        5.94984993157100       11.02590104419800      h
       13.78495498729500       -0.41302066986000       -7.19899822282600      o
       15.08357507482500       -0.43450202924400       -5.90413096284600      h
       12.44344066693300        0.75559927423900       -6.66143636009600      h
       -8.16982968372500        6.77125722295800        8.98376276788600      o
       -8.19846607014100        5.50916080823300       10.32829966068500      h
       -7.17026888570400        6.09123182371800        7.60006766844100      h
       -7.08799355966300        0.90628837263300        8.69699164907400      o
       -6.42212841326600       -0.52001132115900        7.73548981904500      h
       -5.64736035426000        2.01544512456900        9.01487434040500      h
      -13.56666671315400       -3.19247763235300       -5.96632354232300      o
      -12.11890339241000       -2.23263356516900       -5.35876106581000      h
      -14.81612008422300       -3.20809432646400       -4.62287199661600      h
      -24.77033039685000        2.17303115406000        0.43725978588000      o
      -24.78237327148200        1.28412417816300        2.02042070931000      h
      -24.42685434026400        3.93098895632800        0.82375401240800      h
        7.83901322063600       -7.99385824666800        4.34286126561800      o
        8.18270294645700       -7.14041602675800        5.91720846564700      h
        8.20059021073600       -6.78722035863700        3.00366016691600      h
      -13.20826962235700        2.15630591174700       -7.88857261062200      o
      -11.95149059145100        0.91342951377000       -8.45812518625600      h
      -14.25378162376100        1.34806087415800       -6.61758577418800      h
       -8.02565336953400        7.49895528485100      -12.56843581241600      o
       -9.76481161208600        7.49170131876000      -13.09795964834200      h
       -7.51169511535700        5.73249703700400      -12.65718049071100      h
        2.84079349895000       -4.68497741626300       12.67319885552100      o
        3.02019372374400       -5.69607137956000       11.12381263359700      h
        1.21986339133300       -5.11262693166400       13.42991513391900      h
      -11.53550290653100       -1.61712218567400       11.83743058819300      o
      -11.44896434098500       -2.21926215536900       10.08448295189400      h
      -12.07956111284900        0.14501494376400       11.67153072582900      h
      -19.69791380453500        1.02021115571000       -0.45831399746800      o
      -21.50366360376100        1.30456357894100       -0.63379980934900      h
      -18.97112470214600        2.68952503401200       -0.15293971135500      h
        7.09878207124800        9.05958009817000       -1.78662390670400      o
        8.80217434494400        8.59713325871200       -2.37714317145800      h
        5.96076725575800        7.77384373546200       -2.48279291574200      h
       -4.26530448266000       -8.71180381466100        5.06018871351400      o
       -2.57481114305600       -9.17551558035600        5.55230674008900      h
       -4.08988198491400       -7.58543997223200        3.61921245255300      h
      -17.40279807374900        0.49197629202700       -5.08292232474200      o
      -18.11198695971900        0.53012949082500       -3.38337013706900      h
      -18.63998062690800        1.25772219161500       -6.18980897875300      h
       -3.71544134266100       -1.45313860444400      -15.16811563218000      o
       -2.38602713672900       -2.67568418113800      -15.44661195040800      h
       -3.69456758383800       -1.13157440967900      -13.33392227152800      h
       -0.34998554397400       -6.84913915065100      -10.51663737081200      o
        0.05676321219800       -5.99832133716400      -12.11627399257500      h
       -0.47526364946200       -8.66759945693800      -10.82935969792100      h
       -2.26759239975700       -4.40039271774500       -5.14936694067300      o
       -1.23565074035900       -3.39553814538400       -6.28989550854800      h
       -1.10039167518300       -4.86247877507100       -3.79330391048900      h
       -0.05957500290200        9.66916811561400       -1.95453889760900      o
       -1.51207740257000        8.92648104020900       -2.77280698040600      h
       -0.50763664787900        9.98039172129200       -0.18388064218800      h
        2.41356874084100       -1.23912841303900        8.92158363267500      o
        1.83952924583300       -2.24011227617800        7.50363101052400      h
        2.36030539331900       -2.30166270277800       10.41615896665700      h
      -12.72267728227800        4.40093834455400       -3.16093934365200      o
      -14.13241674821800        4.72914786701200       -4.27257976826100      h
      -12.39499867360100        5.93945532561200       -2.22751969708600      h
       -1.20176020016400      -11.19855121665700       -5.23693008104700      o
       -2.60728430035000      -10.33261432416800       -4.39310107902200      h
        0.15954062973200       -9.94629313398700       -5.25633299265400      h
       -5.21091996715800        9.42648999486500        5.12934337560200      o
       -3.71758872990900        9.97794261132800        4.20773818172000      h
       -5.73916111795900       10.86287923332200        6.12783722131200      h
       -3.33960620076500        4.17323058515400       10.31507149853700      o
       -3.07169141338400        3.18360314783700       11.83300383259100      h
       -3.78407704575200        5.86277165972700       10.90722717412300      h
       -9.44665045792000       -7.45181972388600        5.69352397455600      o
       -8.47699947178400       -8.33033657814400        4.39853673719800      h
      -10.13961035627300       -8.73032541005300        6.83579556763300      h
      -21.96092121154300        5.89516009833800       -3.83244351920900      o
      -20.29988117403200        6.02740733624900       -4.60441847690100      h
      -22.66991022497800        4.27840809712800       -4.31989073037600      h
      -11.27638440227000        9.81720886173400       -8.62616185321300      o
      -10.50583402072100        8.11596679041000       -8.24451203232000      h
      -10.17153332533600       10.55619451259100       -9.86093022648000      h
      -22.47220957983000       -3.43246391464400       -3.31095259989100      o
      -23.27564108707200       -3.62378790256400       -1.61253460437800      h
      -23.18443530415500       -4.69499017361400       -4.39167617104300      h
      -13.68244996563200       -7.00239039334400        3.12128897413300      o
      -12.07844707518200       -6.96323993627400        4.06334066584800      h
      -13.28342738801700       -6.99218830756300        1.29738709615000      h
        6.49105797516700        8.23804825211100       -7.45341124692300      o
        8.20073301694800        7.87511505653100       -8.02616784251100      h
        6.50698211124900        9.97329222593600       -6.87762923637300      h
        3.99599853742800        9.72102208964900        2.08398331288800      o
        2.67359098272700        8.45574528051300        1.80778523022700      h
        5.34240713933900        9.32795976096900        0.88556952522900      h
        2.96371800689200       -0.03465864840800      -13.14227861624300      o
        1.71259608755700        1.08404834856300      -13.95158535402700      h
        3.02323607461900        0.43609662403100      -11.38422211396600      h
       -0.63982972397600        2.72552118282600      -15.18907499294300      o
       -1.79487410324500        1.41504763753500      -15.75059568035900      h
       -1.47215238916400        3.51898335975400      -13.71431270364900      h
       18.78034110082500       -5.64220771882800       -7.68464474002500      o
       19.53048607587600       -4.12598277749100       -8.41918662472400      h
       17.60326680628700       -5.06165139843700       -6.38260883168000      h
       16.08562254356900        1.59790956002200      -11.16758872178300      o
       15.26943128527500        0.74142203332800       -9.72632373696500      h
       14.66551073736600        2.10160136170600      -12.20954673619200      h
       -1.52943766007600       11.50031659674900        8.31825608681700      o
        0.19306227142100       11.68798520197200        8.96210898839500      h
       -1.98172938138000       13.11381268556400        7.56774475040700      h
       13.56144333186200        3.72456188423500        1.98522343760600      o
       12.52677169045400        2.26893962185800        2.44575664702600      h
       15.10626294202400        3.21916892441700        1.15978802320400      h
       16.07730505407600       -5.81905986115100        6.61122180590300      o
       16.97561423765600       -6.17707869363100        5.02481182486900      h
       14.62042021892600       -4.80498914409100        6.10995584334100      h
        5.95609266127600        4.85924800056600        1.82405408048000      o
        6.97665840535200        6.10713668025000        2.70678800445800      h
        4.98972888857700        3.92338798723100        3.08208600309100      h
       -9.62406215206600       -1.11536676708300       -9.23093648865400      o
       -8.96937518668100       -2.17197355003500       -7.88283142420000      h
       -9.29398396843400       -1.96858905936400      -10.81329406274900      h
      -17.44467691998000       -3.78774159116400        2.49505786907800      o
      -18.89846203387500       -4.91553023593600        2.65407335568400      h
      -15.99073429194600       -4.85221083630800        2.92829527425300      h
       -9.23349079380300       -2.40522815606200        3.28768323510300      o
      -10.25154887494600       -2.91674806283200        4.74749997968500      h
       -7.50377663148300       -2.36356152000900        3.91660445140800      h
        6.00761262606000       12.78306922296700       -4.85306796365400      o
        4.61065117575200       13.73544959207100       -4.17606429195400      h
        6.44332759631400       11.55154800075900       -3.50890822689500      h
       -4.09230866345200        1.92611087143100       15.03161381802400      o
       -4.56941118690500        0.17384185083800       15.10176209518100      h
       -5.65931361808700        2.84570962214100       14.82519611500300      h
       13.14463201253200        6.21161941104600        6.24095354097400      o
       12.90930884728500        4.78204881177200        7.36858385373600      h
       13.47428356294100        5.45476501654700        4.57744640727800      h
        3.35670934763900        2.17132544943400        5.27625997610000      o
        3.35944711834400        2.69544460243800        7.04030161178900      h
        3.96931927536000        0.43853084163100        5.20094050110900      h
       18.15180735317300       -0.67966605027600       -4.52661017179800      o
       18.21791738934500        0.88239038710800       -3.55501128808900      h
       18.91714768185600       -1.97549247184200       -3.44467733307400      h
       17.64607317158700        5.44570298353300       -8.40571864501500      o
       17.22923776392100        4.09605947485300       -9.62477406001900      h
       17.01453616147500        7.02050755469000       -9.06246063105600      h
        8.80304868977200       -2.55071231764600       -5.87488289500600      o
        9.92775092281900       -3.70699408663200       -6.73956235156400      h
        9.68547797424300       -1.94269177798800       -4.36849116872500      h
      -24.11304059267400        1.18606119166900       -4.64880081506100      o
      -25.17679020674500        1.57125986007000       -3.21979783485000      h
      -23.37859562540500       -0.46643198556900       -4.24477291125500      h
      -22.53745888381500        6.81158137445300        1.06135545941600      o
      -22.24238370031200        6.55690229886300       -0.76776622487500      h
      -22.43423118994200        8.60639710481900        1.28042238908800      h
       -9.99402416536200       13.33628265942500        0.80991481058700      o
      -10.45951954681500       13.43118446057200        2.56577194341300      h
      -10.87431110872000       11.86650013721300        0.11906787245500      h
       -7.94332534943000        6.56341821226400       -2.68787394057700      o
       -6.20148683373100        6.52074028785700       -2.09811087290500      h
       -8.37429662113600        8.33389186564800       -2.83689678275300      h
        7.79648451673800       -0.15949762504900      -10.15670290991000      o
        6.72344936534100        1.32758962960700       -9.99369856104600      h
        8.30648689684800       -0.60935414477200       -8.43149104177300      h
      -11.45011762655900       11.72074982984000        5.75153542595500      o
      -10.69346818002000       10.21114589013100        4.93509296903600      h
      -12.13709683802400       10.99068259112300        7.33924756101600      h
        0.43924799622000       13.88568001202500       -7.66900202419900      o
        1.89244994068700       14.56998793542300       -8.50096785338100      h
       -0.85159296735500       13.58654507773100       -9.04399455184400      h
        9.86316815654600       -4.54528978116000      -12.99087359271600      o
        9.40235849174600       -2.80619859893500      -13.23722907254200      h
       10.73983409529000       -4.57207671036400      -11.36133514580700      h
      -12.04256061154300        1.82405363507100      -13.33864835291700      o
      -12.66200402866900        3.52933572051100      -13.11526058187000      h
      -13.18884106112200        0.68684960158700      -12.48697018122100      h
       -2.41457014725100       -1.03989753036600       10.67904228840100      o
       -4.00330447570600       -1.44783740253700       11.50893011275700      h
       -1.85201951043800       -2.61958377463200        9.91250067982900      h
      -10.47983755594500       -8.00493431917300       -8.35997187029500      o
       -9.34133998482900       -9.26592077822800       -9.00050113510200      h
      -11.23398921563600       -7.19843180846400       -9.84636628962500      h
       -4.67742649410100       -8.30122882396700       -3.09218111564400      o
       -4.24722764825500       -6.85168264014200       -4.13840219891500      h
       -4.35069052305800       -7.71552236806200       -1.37511121906500      h
      -17.41123148885900        5.56556224883900       -0.40328028211200      o
      -18.19076772592200        7.21404579913400       -0.12216554108900      h
      -17.17030197348200        5.47951335191500       -2.21560623391100      h
      -13.21360075487700      -10.81592529656300       -4.80892637828000      o
      -14.00614300111800       -9.90053232786300       -6.19780778561800      h
      -11.43380837736700      -10.99944613417400       -5.26533360995100      h
       19.65593127565600        2.63107168834100        3.71557479472900      o
       18.09867020778600        1.65369982886300        3.99454791311300      h
       20.11537672839500        3.20486001836100        5.42244773934500      h
       -2.77561230522300        4.60841717934000      -11.10015479860200      o
       -4.37329557755400        3.72355637182900      -11.15678076038300      h
       -1.80267698275600        3.99112940624100       -9.62741065649700      h
       11.61423296685100        8.44098160321600       -3.63220675771300      o
       11.58813842567600        9.95791059672500       -4.68961740759600      h
       12.59287064413900        8.86519749525900       -2.12443491411600      h
      -24.37505451405800       -4.03887501874100        1.18945851773800      o
      -23.47822906241300       -5.55176811206900        1.71801723679500      h
      -23.72934259760100       -2.70973980798000        2.28851912400800      h
        4.40899771713500        7.88797495323200        6.69978370442400      o
        2.72173636524000        7.14710779352100        6.85604526411400      h
        4.42858905615100        8.71815824285400        5.03969432851300      h
        1.09573782875700        0.89714734850900       13.76179523455000      o
        0.05791739482500        1.78300766306500       14.95643716455200      h
       -0.10134420288600        0.01265527944300       12.64724114619000      h
       -1.85111490127100       -6.07636771258800       14.12781053989400      o
       -3.44383782288800       -5.20927078858200       14.03646919314000      h
       -2.07727022661600       -7.73809291502800       13.38755179105800      h
        7.67432694254500       -4.60768854636700       14.04106366891100      o
        8.15402637123900       -6.32820471858500       14.32837165395200      h
        5.87486000399900       -4.64047710345700       13.57998575883600      h
        1.30873998724000        8.71335396347200       -7.18061869589800      o
        1.16428535969200       10.51877205551100       -6.90900629290100      h
        3.06135616863100        8.26417919186500       -6.93308905885300      h
        9.47157563856800        3.26933691916400       13.32083470593600      o
        8.49093864823300        4.72744105803000       12.77261150942100      h
        8.26319100163100        2.28991829751000       14.32985193940500      h
       -5.72657279282900      -15.56674913563000       -2.00475331196200      o
       -6.77403275095400      -14.61571607385400       -3.17227926196200      h
       -4.84610335542400      -14.25610100876200       -1.02335678426500      h
       -4.32556091374800       13.09245288714800       -4.91161199708400      o
       -5.19759157545800       11.92340357293500       -6.02468599784500      h
       -2.73635009656300       13.46466852865100       -5.70511044994600      h
       -2.88551913417400       16.01740774310700        6.08170470760600      o
       -4.61794193046000       15.64063500423300        6.52037250920400      h
       -2.83299050284200       16.19343230678500        4.25545170705200      h
       23.70757981947300        1.81413666585000       -5.42662543794900      o
       22.98532563795400        0.74413199747100       -6.71890132939600      h
       23.50523229872000        0.97829487854400       -3.80446490614500      h
       15.54771009793600       -1.73850666107600        0.23310209399400      o
       16.54075945062300       -0.32227164976800       -0.33440649981800      h
       15.52765493154400       -1.63079199246000        2.07438173873900      h
      -13.25434634662900        3.02142229165300       10.71189847972700      o
      -15.07734950194200        2.84949164671200       10.54977496557600      h
      -12.59925795734300        3.17914815614000        8.99601878319600      h
        4.15943644743900      -11.88255548622800       -8.00956655922800      o
        3.74487921249700      -10.15160881913200       -7.45964098022700      h
        3.90075590965500      -12.91679363867600       -6.51124241865600      h
      -12.87019313660600        8.88066975156900        9.48032920518900      o
      -11.25236435934500        8.00276198470800        9.48862618151800      h
      -14.04038962180700        7.74616946200600        8.64605498940000      h
        1.13762501434800      -10.56620112115200       -0.65733011033000      o
        1.92910097384000       -9.91319834076000        0.88995677270800      h
        2.31859384585000      -11.70229661456000       -1.43725445382900      h
      -18.88495632181900       10.46377448664400       -0.63467359217200      o
      -17.86953593697500       10.89498618024500        0.83053330428400      h
      -17.94223026628200       10.97625475346400       -2.10238810847600      h
      -16.06177412196400       -0.03324022407900        5.45124135133800      o
      -16.85317309647800       -1.42426514567200        4.51735878559900      h
      -15.39564868112400        1.11059725053200        4.15449116672200      h
       17.56883374637100        8.28419494896700        7.18361840019400      o
       17.33183119320000        9.76174551850500        8.20605632543600      h
       15.84348478201800        7.56718637550700        6.98265843434000      h
      -15.15298878508100       -1.85576519803600      -10.69469215873000      o
      -16.91235944114500       -2.26255292546000      -10.39902691944900      h
      -14.33689545748800       -2.15233479817300       -9.05710186771800      h
       12.83854290205100       14.43237520391600       -1.52193880572300      o
       11.69401889964100       14.08808292272400       -0.12050207958700      h
       14.52264700263200       14.08264173842200       -0.93698610745300      h
       14.84056578659500        9.85920000077100       -8.13412924281700      o
       13.75165078654400       11.31927027325400       -8.03455691822400      h
       15.55930117462000        9.70865509527000       -6.43295022352200      h
       12.64214473728500      -11.52589746883700        2.74726114213600      o
       11.89715761576800      -12.22392232349500        1.23377760185700      h
       12.59890443534900       -9.68459772799000        2.42615099201400      h
        0.35138571714100      -10.44228374684900        6.78901851961700      o
        1.48420303586000      -11.32302950036100        7.98104861440900      h
        1.45051352036600       -9.54804396848000        5.55670535294700      h
       -6.28131140215700      -13.28028370096600        6.05860376105400      o
       -5.82328505253600      -11.59659749646100        5.43635126290200      h
       -7.24783285094300      -14.12835687950800        4.73551231509800      h
      -12.38754812461100       -2.99609906026600        7.09684702589100      o
      -13.72862740001300       -1.79596050348000        6.63515402532600      h
      -13.23778452592600       -4.60751478474300        7.36327693181700      h
       12.76823778633300       -6.73070003423800        1.33624545412200      o
       11.63378639475200       -6.54321205884800       -0.09151104225500      h
       12.25567498762100       -5.45250789725900        2.58235191568900      h
       19.01499021688900       -2.27683715396200        8.54744790620800      o
       20.49155858435800       -2.21366847282900        7.44953472282600      h
       18.18431994829100       -3.89369918446600        8.20691770315300      h
       11.41010091835800       -8.40212015743100       11.65717613338100      o
       12.38238537687700       -9.24191333656300       10.29263829118400      h
       12.64090211624000       -7.71965509855800       12.79353529155800      h
      -20.86599704095400       -7.52535771378400        2.37481577685300      o
      -20.32243430641700       -8.41828747856600        3.91117423545400      h
      -20.18415078890600       -8.42888186994300        0.94248235137700      h
       -4.47036244868100        9.07215125816300       11.54674949259900      o
       -6.04395825512200        8.65930271531300       10.67902754872700      h
       -3.51310201065700       10.12001640943500       10.35489342550400      h
       -6.80104554303800      -11.81061536166500       10.86886936392500      o
       -6.62938449717200      -12.58669570438500        9.19658781671800      h
       -5.12104323511600      -11.83921133723700       11.59494232027300      h
       -8.70256412832300      -15.80212164086600        2.30428862154800      o
       -9.90933466415400      -14.81828886411300        1.31938038323900      h
       -7.47917188164900      -16.34232521575100        1.04690234364900      h
      -15.81527554736600      -11.38078226112700        2.50131944407400      o
      -15.03715601876000       -9.75871890545700        3.04687368538900      h
      -16.80681006625300      -10.89199442772700        1.02434918443000      h
       10.80705396297600       -9.71806253787200      -11.00015064347200      o
       12.49583753013100       -9.73233671341100      -10.27833993924800      h
       10.76034159234300       -8.28423899318700      -12.12388366310400      h
       13.52472113484200       10.74536256546600        9.46302677065100      o
       13.65996254487600        9.11365943823800       10.28060950124700      h
       11.70486441254100       11.01710997936700        9.27648053905400      h
        8.55192497538500       10.81588156792700        8.54182250253900      o
        7.82077233118400        9.58009582101100        9.68604429808600      h
        8.23475009111300       10.20933207636300        6.85559341665600      h
      -18.86753613505600       -9.66546195843700        6.45517571219900      o
      -18.02611648712900      -11.01470990004400        5.56034905354800      h
      -17.49593998615900       -8.67033261633400        7.20577999005500      h
       13.78093739213200        5.73169779763400       11.61227445242100      o
       12.32194176749000        4.99955188437200       12.44157436980600      h
       15.14984545632200        4.59190397013700       11.96506339104600      h
        4.34268332467600      -14.53301029167400       -3.68255182582900      o
        5.69526353872400      -15.69312342106300       -3.99323203098300      h
        2.78143081129400      -15.48577480105600       -3.57487201415300      h
      -13.97763963402400        2.66727592584000        1.79948668334700      o
      -13.92438494106900        1.20493748446400        0.68095908788700      h
      -15.06897888412700        3.90166875632600        0.96942350300500      h
      -11.50980696166000      -10.71348407847300        8.98418569781300      o
      -11.98133128642000      -12.20212333028100        7.98286805332500      h
      -10.17890863715500      -11.23863497687000       10.11731537859400      h
       -1.57078321676200      -14.56222623870900        4.74681838558200      o
       -3.21242555112800      -14.73528478056700        5.55710427428400      h
       -0.77572315031100      -13.09337145666500        5.56740500867300      h
        4.60546884119700      -16.34423405401100        6.66374970515600      o
        6.16308983704300      -15.43239173353700        6.33581529013500      h
        3.83295954459600      -16.61553082099600        5.04178138437000      h
       10.59005585444100       -7.01226369194300       -3.31007429438700      o
       12.16096330745600       -6.24424257535200       -3.87217558932900      h
        9.46144993777700       -7.08213272883300       -4.77289116845300      h
       12.54436047988900        1.50456626443100        8.18599109795500      o
       11.09905207566900        0.56909432446100        8.78462141173600      h
       13.80241556713900        1.41637106175000        9.53218016737900      h
       -6.60194221138700       -2.93822484889100       12.94283379599500      o
       -8.33672286806100       -2.33275041221500       12.86196343168600      h
       -6.59115565283400       -4.38770226596700       11.79273411332900      h
       -2.83171728448800       12.73935367593100      -11.05286550578500      o
       -4.09107710580800       11.72082481662200      -10.15186066650000      h
       -1.81175339771800       11.48214005208800      -11.94345025804800      h
       17.76047357911800       -6.67872803453400        2.00337610123300      o
       18.73117952045000       -5.46915432836200        1.00438087910300      h
       15.99705064442900       -6.54856665004800        1.45144839595000      h
        3.23060578245600       11.48276560013200       10.06473454131400      o
        3.82448210246200       13.05560702343900        9.37926222604500      h
        3.87210331241400       10.19173443394000        8.88410528203700      h
       -9.39691182761700        5.47408378546000       -7.40678605822900      o
      -10.85442465177000        4.34069741148700       -7.46623316372300      h
       -8.96672814927800        5.73692100412600       -5.61840205510700      h
        6.09395290493000      -12.30852659163800        0.94765586053300      o
        4.85513402881300      -13.67408819381200        1.00439043185600      h
        7.49150486285100      -12.80873889894700       -0.12066476401500      h
      -12.36627111660100        8.83008529693800       -0.31975131452200      o
      -11.09319922061700        8.11702940938900        0.82313448181800      h
      -13.80279725266400        9.19212710274100        0.80028051772300      h
      -12.76118795845500      -14.44246521590900        5.82753403027900      o
      -11.43066524778500      -15.28110761297600        4.90758660774700      h
      -13.92627906724500      -13.76224560915600        4.60169836285100      h
      -16.54900263306900       -2.95798508556500       11.59885577282700      o
      -14.77522793156300       -2.61115429204200       11.98800931978800      h
      -17.33204934694300       -1.31220541903100       11.47993480445500      h
       -7.20350199836600       13.50460247611500        7.75531888728600      o
       -8.87167489812400       13.07749175786600        7.05399064521400      h
       -7.28252588253700       13.18790443187200        9.53596224032800      h
       -8.60035313100900        3.43037124951300       12.87786073725100      o
      -10.40864312990300        3.63463049413700       12.95740339371300      h
       -8.30034859585600        1.99429038107200       11.76764810245200      h
      -17.07858480993700        6.14757307485200       -5.54235691571500      o
      -16.47335378602600        7.89424761147100       -5.44426038620800      h
      -17.15176063574600        5.66362592527100       -7.33706020115100      h
      -18.12099428970200        1.78196053095700        9.66476150071200      o
      -17.51586138263000        1.06280441567000        8.06217073481200      h
      -19.35847806366400        3.01896015184000        9.19377889991000      h
       -2.31163890035600       15.91766242978800        0.91631913170300      o
       -3.87252431500900       16.35183629527100        0.02069192277800      h
       -1.00080608792600       15.80158086347100       -0.35920879215400      h
       20.79191685032000        5.71987294238600       -4.32210888578200      o
       19.80742894035200        5.74468732443300       -5.87671312255600      h
       22.11826656496900        4.46444592517100       -4.68557707808500      h
      -12.72387249406700       -5.96037021356500      -12.40271848132700      o
      -13.64444334153700       -4.39215796328800      -12.04591133470100      h
      -11.20709399795400       -5.41722561925700      -13.26830869527500      h
      -15.61232159333500       10.22328630599100        3.23848675130100      o
      -15.79031777574900        8.67449002986300        4.25298194975300      h
      -14.40964437096200       11.25453275732200        4.17353502000400      h
      -17.92458281257200       -9.25832911716600       -1.70023522269300      o
      -17.21524270222800      -10.16200215632800       -3.10255937490600      h
      -17.54828761954000       -7.45833947324200       -2.04697567238600      h
      -19.73429145216900       -3.94741833823300        7.33923238897300      o
      -20.22962853562500       -5.68802843361000        7.42060104718000      h
      -18.64742598595400       -3.63125634253400        8.77545113144100      h
      -20.21397919026200        4.28351316305600        5.07345185278700      o
      -20.94710481134400        5.27168482296500        3.71266532503700      h
      -20.80439957038200        2.55680277228800        4.82521294962700      h
      -15.73280999451900       -7.46714690026600       -7.89578389460700      o
      -14.68699532950500       -6.14776681144600       -7.13061567252500      h
      -15.17627385934900       -7.57432136823100       -9.62411814672500      h
      -17.13431618244500        4.28755451566500      -10.18024401955600      o
      -18.62125446187900        3.22384688242300      -10.15657022034500      h
      -15.69822167377300        3.22693993766900       -9.65789897075300      h
        7.35326863327400       -0.24120942536300        9.13834871324600      o
        7.47377603886500        1.52706555493300        8.64127478701600      h
        5.53744225309300       -0.55328192787400        9.31341256595200      h
       11.75466521123800       -1.43627001508000       12.65242525028400      o
       10.48522605884500       -2.61804161917300       13.22272523501900      h
       10.97396278498400        0.20808431923200       12.87143643303900      h
        0.77480209183600       -4.30084705246000      -14.66716923550300      o
        1.62692292314300       -2.75506184714000      -14.07635891175700      h
        2.14537168074800       -5.35098352865700      -15.26433283830100      h
        4.85070051649600       -4.34086637868800       -9.87977303654400      o
        4.78649654881200       -5.21080430988300      -11.50958913124900      h
        5.95895650429100       -2.87799146905900      -10.11229605028800      h
       -5.07597226721300       -6.01862304703000       -9.58809433874800      o
       -5.60202383583100       -5.54443769239100       -7.87655073859400      h
       -3.22363819507300       -6.24376411677300       -9.63516502485400      h
       20.20696464696900        4.15340452271100        8.44926363521400      o
       19.23732804599400        3.19611511235400        9.64858681701500      h
       19.34595077498200        5.77822553316100        8.24080670567700      h
       15.39149305093000       -5.31724330765800       -3.79316765576800      o
       15.62726649195000       -4.26251318565700       -2.31750131685600      h
       15.69345836478300       -7.06940580893400       -3.30610793045000      h
        6.01365348673500        0.35772434646900       15.58714662134200      o
        4.28764112256100        0.42174796135400       14.97060459117200      h
        6.57549484288100       -1.35708528669600       15.35110685085000      h
        6.99067800797000      -10.29404932063800        9.44074435851600      o
        8.45656322533600       -9.89961450063100       10.44067197199700      h
        7.59459417757300      -11.21472970777300        7.93739829655600      h
        2.21151738852100       14.35990443977100        5.79002906247300      o
        3.23854414964800       14.89542383019300        4.36548677469600      h
        0.88277537436100       15.58348206062400        5.99171004872700      h
       16.32850756644400        0.86742457414000       11.58135633190300      o
       15.13617020542400       -0.16180410076600       12.51670576245100      h
       17.43662203304000       -0.32019461852900       10.71492224212400      h
        0.61253336698600        7.77907616778500       12.70742269839800      o
       -1.15883859786400        8.18983516884300       12.82163281411600      h
        1.44824502889600        9.28529293927000       12.10384096399000      h
        2.83437479154000      -13.08046835591500       10.18126114395000      o
        3.27271780915200      -14.55096416028900        9.15316766087000      h
        4.40158646121700      -12.12012286336700       10.31236438485700      h
       15.90823609616200       -0.27811094717100        5.01117528009400      o
       16.99226248516400       -1.07531559009200        6.27692035595000      h
       14.44134187266500        0.36293305555100        5.95022132338000      h
       18.23746818429000        7.24607570854400        2.24095885658400      o
       18.68904145181900        5.46909688485100        2.51176930391900      h
       18.14157511416900        7.96487897476900        3.93113655885400      h
       -1.78797296410700      -10.71746921267900       11.60027303214000      o
       -0.38094807664300      -11.77997538235100       12.05648545328600      h
       -1.49793556302900      -10.33613826376400        9.83103177751800      h
       24.89171681867100        4.55592134061100        2.10957720632200      o
       24.38537200464700        4.71152651911000        3.84184314515000      h
       24.28170461009600        6.09020783262700        1.26075729860300      h
       14.04750865503900      -10.25257397757400        7.89053288004100      o
       14.95349456588500       -8.69116248041300        7.46769789484200      h
       13.51390969389000      -10.95849496235000        6.30113096564300      h
        3.66421514862500       -6.60042828635500        8.17816706560700      o
        4.99016766461200       -7.83754851616300        8.48779758884600      h
        4.36109870688700       -5.29285585193100        7.08727275034500      h
       21.78672610421700       -7.64813782776700       -4.11070356424600      o
[...]
   385   8 o      386   1 h                                       0.9708705
   385   8 o      387   1 h                                       0.9603912
   388   8 o      389   1 h                                       0.9664805
   388   8 o      390   1 h                                       0.9712881
   391   8 o      392   1 h                                       0.9666054
   391   8 o      393   1 h                                       0.9715817
   394   8 o      395   1 h                                       0.9633257
   394   8 o      396   1 h                                       0.9760868
   397   8 o      398   1 h                                       0.9727632
   397   8 o      399   1 h                                       0.9755051
   400   8 o      401   1 h                                       0.9858122
   400   8 o      402   1 h                                       0.9731021
   403   8 o      404   1 h                                       0.9740543
   403   8 o      405   1 h                                       0.9689096
   406   8 o      407   1 h                                       0.9824676
   406   8 o      408   1 h                                       0.9603776
   409   8 o      410   1 h                                       0.9705540
   409   8 o      411   1 h                                       0.9621069
   412   8 o      413   1 h                                       0.9805355
   412   8 o      414   1 h                                       0.9805711
   415   8 o      416   1 h                                       0.9590679
   415   8 o      417   1 h                                       0.9944190
   418   8 o      419   1 h                                       0.9683046
   418   8 o      420   1 h                                       0.9808588
   421   8 o      422   1 h                                       0.9746775
   421   8 o      423   1 h                                       0.9613987
   424   8 o      425   1 h                                       0.9652889
   424   8 o      426   1 h                                       0.9805148
   427   8 o      428   1 h                                       0.9660749
   427   8 o      429   1 h                                       0.9893444
   430   8 o      431   1 h                                       0.9871566
   430   8 o      432   1 h                                       0.9937186
   433   8 o      434   1 h                                       0.9803051
   433   8 o      435   1 h                                       0.9763231
   436   8 o      437   1 h                                       0.9831861
   436   8 o      438   1 h                                       0.9743973
   439   8 o      440   1 h                                       0.9700875
   439   8 o      441   1 h                                       0.9828002
   442   8 o      443   1 h                                       0.9742695
   442   8 o      444   1 h                                       0.9786513
   445   8 o      446   1 h                                       0.9917738
   445   8 o      447   1 h                                       0.9572029
   448   8 o      449   1 h                                       0.9833562
   448   8 o      450   1 h                                       0.9660709
   451   8 o      452   1 h                                       0.9756957
   451   8 o      453   1 h                                       0.9807483
   454   8 o      455   1 h                                       0.9798062
   454   8 o      456   1 h                                       0.9686123
   457   8 o      458   1 h                                       0.9749316
   457   8 o      459   1 h                                       0.9713724
   460   8 o      461   1 h                                       0.9948235
   460   8 o      462   1 h                                       0.9762561
   463   8 o      464   1 h                                       0.9719021
   463   8 o      465   1 h                                       0.9643242
   466   8 o      467   1 h                                       0.9684359
   466   8 o      468   1 h                                       0.9786954
   469   8 o      470   1 h                                       0.9715836
   469   8 o      471   1 h                                       0.9630257
   472   8 o      473   1 h                                       0.9655378
   472   8 o      474   1 h                                       0.9807591
   475   8 o      476   1 h                                       0.9689067
   475   8 o      477   1 h                                       0.9609339
   478   8 o      479   1 h                                       0.9571905
   478   8 o      480   1 h                                       0.9695452
   481   8 o      482   1 h                                       0.9746597
   481   8 o      483   1 h                                       0.9762929
   484   8 o      485   1 h                                       0.9816230
   484   8 o      486   1 h                                       0.9658111
   487   8 o      488   1 h                                       0.9730967
   487   8 o      489   1 h                                       0.9847557
   490   8 o      491   1 h                                       0.9707454
   490   8 o      492   1 h                                       0.9614663
   493   8 o      494   1 h                                       0.9719539
   493   8 o      495   1 h                                       0.9784008
   496   8 o      497   1 h                                       0.9645527
   496   8 o      498   1 h                                       0.9761429
   499   8 o      500   1 h                                       0.9732551
   499   8 o      501   1 h                                       0.9791682
   502   8 o      503   1 h                                       0.9807923
   502   8 o      504   1 h                                       0.9777692
   505   8 o      506   1 h                                       0.9762324
   505   8 o      507   1 h                                       0.9802252
   508   8 o      509   1 h                                       0.9607725
   508   8 o      510   1 h                                       0.9860556
   511   8 o      512   1 h                                       0.9775384
   511   8 o      513   1 h                                       0.9832533
   514   8 o      515   1 h                                       0.9761348
   514   8 o      516   1 h                                       0.9677830
   517   8 o      518   1 h                                       0.9808138
   517   8 o      519   1 h                                       0.9827825
   520   8 o      521   1 h                                       0.9641945
   520   8 o      522   1 h                                       0.9646147
   523   8 o      524   1 h                                       0.9783354
   523   8 o      525   1 h                                       0.9665123
   526   8 o      527   1 h                                       0.9839120
   526   8 o      528   1 h                                       0.9579765
   529   8 o      530   1 h                                       0.9639108
   529   8 o      531   1 h                                       0.9735859
   532   8 o      533   1 h                                       0.9795927
   532   8 o      534   1 h                                       0.9844005
   535   8 o      536   1 h                                       0.9831408
   535   8 o      537   1 h                                       0.9588714
   538   8 o      539   1 h                                       0.9796239
   538   8 o      540   1 h                                       0.9698145
   541   8 o      542   1 h                                       0.9738338
   541   8 o      543   1 h                                       0.9853800
   544   8 o      545   1 h                                       0.9806287
   544   8 o      546   1 h                                       0.9678115
   547   8 o      548   1 h                                       0.9842773
   547   8 o      549   1 h                                       0.9734873
   550   8 o      551   1 h                                       0.9593009
   550   8 o      552   1 h                                       0.9902531
   553   8 o      554   1 h                                       0.9586296
   553   8 o      555   1 h                                       0.9676798
   556   8 o      557   1 h                                       0.9708198
   556   8 o      558   1 h                                       0.9745698
   559   8 o      560   1 h                                       0.9786167
   559   8 o      561   1 h                                       0.9625148
   562   8 o      563   1 h                                       0.9675438
   562   8 o      564   1 h                                       0.9843430
   565   8 o      566   1 h                                       0.9740888
   565   8 o      567   1 h                                       0.9793729
   568   8 o      569   1 h                                       0.9661365
   568   8 o      570   1 h                                       0.9701947
   571   8 o      572   1 h                                       0.9849834
   571   8 o      573   1 h                                       0.9667957
   574   8 o      575   1 h                                       0.9782217
   574   8 o      576   1 h                                       0.9789495
   577   8 o      578   1 h                                       0.9801876
   577   8 o      579   1 h                                       0.9877410
   580   8 o      581   1 h                                       0.9605659
   580   8 o      582   1 h                                       0.9793129
   583   8 o      584   1 h                                       0.9679223
   583   8 o      585   1 h                                       0.9755370
   586   8 o      587   1 h                                       0.9704802
   586   8 o      588   1 h                                       0.9630376
   589   8 o      590   1 h                                       0.9619176
   589   8 o      591   1 h                                       0.9860912
   592   8 o      593   1 h                                       0.9715680
   592   8 o      594   1 h                                       0.9617894
   595   8 o      596   1 h                                       0.9694000
   595   8 o      597   1 h                                       0.9741843
   598   8 o      599   1 h                                       0.9641380
   598   8 o      600   1 h                                       0.9658629
   601   8 o      602   1 h                                       0.9774004
   601   8 o      603   1 h                                       0.9751236
   604   8 o      605   1 h                                       0.9775838
   604   8 o      606   1 h                                       0.9821227
   607   8 o      608   1 h                                       0.9807513
   607   8 o      609   1 h                                       0.9732510
   610   8 o      611   1 h                                       0.9637374
   610   8 o      612   1 h                                       0.9699618
   613   8 o      614   1 h                                       0.9585770
   613   8 o      615   1 h                                       0.9824251
   616   8 o      617   1 h                                       0.9811360
   616   8 o      618   1 h                                       0.9626447
   619   8 o      620   1 h                                       0.9735262
   619   8 o      621   1 h                                       0.9736635
   622   8 o      623   1 h                                       0.9823437
   622   8 o      624   1 h                                       0.9585433
   625   8 o      626   1 h                                       0.9769043
   625   8 o      627   1 h                                       0.9705358
   628   8 o      629   1 h                                       0.9832221
   628   8 o      630   1 h                                       0.9685084
   631   8 o      632   1 h                                       0.9676413
   631   8 o      633   1 h                                       0.9598500
   634   8 o      635   1 h                                       0.9788979
   634   8 o      636   1 h                                       0.9647473
   637   8 o      638   1 h                                       0.9663234
   637   8 o      639   1 h                                       0.9821006
   640   8 o      641   1 h                                       0.9726482
   640   8 o      642   1 h                                       0.9752871
   643   8 o      644   1 h                                       0.9688651
   643   8 o      645   1 h                                       0.9709652
   646   8 o      647   1 h                                       0.9637053
   646   8 o      648   1 h                                       0.9820407
   649   8 o      650   1 h                                       0.9665886
   649   8 o      651   1 h                                       0.9662462
   652   8 o      653   1 h                                       0.9737600
   652   8 o      654   1 h                                       0.9659238
   655   8 o      656   1 h                                       0.9557354 (min)
   655   8 o      657   1 h                                       0.9769689
   658   8 o      659   1 h                                       0.9804327
   658   8 o      660   1 h                                       0.9683794
   661   8 o      662   1 h                                       0.9592817
   661   8 o      663   1 h                                       0.9714282
   664   8 o      665   1 h                                       0.9681088
   664   8 o      666   1 h                                       0.9726597
   667   8 o      668   1 h                                       0.9771235
   667   8 o      669   1 h                                       0.9755287
   670   8 o      671   1 h                                       0.9565128
   670   8 o      672   1 h                                       0.9719713
   673   8 o      674   1 h                                       0.9669623
   673   8 o      675   1 h                                       0.9804054
   676   8 o      677   1 h                                       0.9752751
   679   8 o      680   1 h                                       0.9857260
   679   8 o      681   1 h                                       0.9712985
   682   8 o      683   1 h                                       0.9712708
   682   8 o      684   1 h                                       0.9667509
   685   8 o      686   1 h                                       0.9650183
   685   8 o      687   1 h                                       0.9723930
   688   8 o      689   1 h                                       0.9747955
   688   8 o      690   1 h                                       0.9720774
   691   8 o      692   1 h                                       0.9725666
   691   8 o      693   1 h                                       0.9700284
   694   8 o      695   1 h                                       0.9769129
   694   8 o      696   1 h                                       0.9763134
   697   8 o      698   1 h                                       0.9690535
   697   8 o      699   1 h                                       0.9608924
   700   8 o      701   1 h                                       0.9713138
   700   8 o      702   1 h                                       0.9734730
   703   8 o      704   1 h                                       0.9729502
   703   8 o      705   1 h                                       0.9854123
   706   8 o      707   1 h                                       0.9636105
   706   8 o      708   1 h                                       0.9709440
   709   8 o      710   1 h                                       0.9807373
   709   8 o      711   1 h                                       0.9689954
   712   8 o      713   1 h                                       0.9669027
   712   8 o      714   1 h                                       0.9721956
   715   8 o      716   1 h                                       0.9779561
   715   8 o      717   1 h                                       0.9805577
   718   8 o      719   1 h                                       0.9656575
   718   8 o      720   1 h                                       0.9886227
   721   8 o      722   1 h                                       0.9831463
   721   8 o      723   1 h                                       0.9673854
   724   8 o      725   1 h                                       0.9657696
   724   8 o      726   1 h                                       0.9780110
   727   8 o      728   1 h                                       0.9877558
   727   8 o      729   1 h                                       0.9717767
   730   8 o      731   1 h                                       0.9824788
   730   8 o      732   1 h                                       0.9632967
   733   8 o      734   1 h                                       0.9691446
   733   8 o      735   1 h                                       0.9674730
   736   8 o      737   1 h                                       0.9811052
   736   8 o      738   1 h                                       0.9646304
   739   8 o      740   1 h                                       0.9745630
   739   8 o      741   1 h                                       0.9790845
   742   8 o      743   1 h                                       0.9614258
   742   8 o      744   1 h                                       0.9865574
   745   8 o      746   1 h                                       0.9716470
   745   8 o      747   1 h                                       0.9647779
   748   8 o      749   1 h                                       0.9763951
   748   8 o      750   1 h                                       0.9762767
   751   8 o      752   1 h                                       0.9640504
   751   8 o      753   1 h                                       0.9758192
   754   8 o      755   1 h                                       0.9662767
   754   8 o      756   1 h                                       0.9618798

 * 1 distinct bonds (by element types)

   Z      Z             #   av. dist./Å        max./Å        min./Å
   1 H    8 O         501     0.9737126     0.9996917     0.9557354


optimized geometry written to: xtbopt.coord


           -------------------------------------------------
          | TOTAL ENERGY            -1283.356912928504 Eh   |
          | GRADIENT NORM               0.004137600659 Eh/α |
          | HOMO-LUMO GAP               7.926196712074 eV   |
           -------------------------------------------------

------------------------------------------------------------------------
 * finished run on 2022/11/24 at 09:12:37.491     
------------------------------------------------------------------------
 total:
 * wall-time:     0 d,  0 h,  4 min, 45.123 sec
 *  cpu-time:     0 d,  0 h,  7 min,  0.908 sec
 * ratio c/w:     1.476 speedup
 SCF:
 * wall-time:     0 d,  0 h,  0 min, 20.260 sec
 *  cpu-time:     0 d,  0 h,  0 min, 32.230 sec
 * ratio c/w:     1.591 speedup
 ANC optimizer:
 * wall-time:     0 d,  0 h,  4 min, 23.865 sec
 *  cpu-time:     0 d,  0 h,  6 min, 26.970 sec
 * ratio c/w:     1.467 speedup

