      -----------------------------------------------------------      
     |                   =====================                   |     
     |                           x T B                           |     
     |                   =====================                   |     
     |                         S. Grimme                         |     
     |          Mulliken Center for Theoretical Chemistry        |     
     |                    University of Bonn                     |     
      -----------------------------------------------------------      

   * xtb version 6.5.1 (579679a) compiled by 'ehlert@majestix' on 2022-07-11

   xtb is free software: you can redistribute it and/or modify it under
   the terms of the GNU Lesser General Public License as published by
   the Free Software Foundation, either version 3 of the License, or
   (at your option) any later version.
   
   xtb is distributed in the hope that it will be useful,
   but WITHOUT ANY WARRANTY; without even the implied warranty of
   MERCHANTABILITY or FITNESS FOR A PARTICULAR PURPOSE.  See the
   GNU Lesser General Public License for more details.
   
   Cite this work as:
   * C. Bannwarth, E. Caldeweyher, S. Ehlert, A. Hansen, P. Pracht,
     J. Seibert, S. Spicher, S. Grimme, WIREs Comput. Mol. Sci., 2020, 11,
     e01493. DOI: 10.1002/wcms.1493
   
   for GFN2-xTB:
   * C. Bannwarth, S. Ehlert and S. Grimme., J. Chem. Theory Comput., 2019,
     15, 1652-1671. DOI: 10.1021/acs.jctc.8b01176
   for GFN1-xTB:
   * S. Grimme, C. Bannwarth, P. Shushkov, J. Chem. Theory Comput., 2017,
     13, 1989-2009. DOI: 10.1021/acs.jctc.7b00118
   for GFN0-xTB:
   * P. Pracht, E. Caldeweyher, S. Ehlert, S. Grimme, ChemRxiv, 2019, preprint.
     DOI: 10.26434/chemrxiv.8326202.v1
   for GFN-FF:
   * S. Spicher and S. Grimme, Angew. Chem. Int. Ed., 2020, 59, 15665-15673.
     DOI: 10.1002/anie.202004239
   
   for ALPB and GBSA implicit solvation:
   * S. Ehlert, M. Stahn, S. Spicher, S. Grimme, J. Chem. Theory Comput.,
     2021, 17, 4250-4261. DOI: 10.1021/acs.jctc.1c00471
   
   for DFT-D4:
   * E. Caldeweyher, C. Bannwarth and S. Grimme, J. Chem. Phys., 2017,
     147, 034112. DOI: 10.1063/1.4993215
   * E. Caldeweyher, S. Ehlert, A. Hansen, H. Neugebauer, S. Spicher,
     C. Bannwarth and S. Grimme, J. Chem. Phys., 2019, 150, 154122.
     DOI: 10.1063/1.5090222
   * E. Caldeweyher, J.-M. Mewes, S. Ehlert and S. Grimme, Phys. Chem. Chem. Phys.
     2020, 22, 8499-8512. DOI: 10.1039/D0CP00502A
   
   for sTDA-xTB:
   * S. Grimme and C. Bannwarth, J. Chem. Phys., 2016, 145, 054103.
     DOI: 10.1063/1.4959605
   
   in the mass-spec context:
   * V. Asgeirsson, C. Bauer and S. Grimme, Chem. Sci., 2017, 8, 4879.
     DOI: 10.1039/c7sc00601b
   * J. Koopman and S. Grimme, ACS Omega 2019, 4, 12, 15120-15133.
     DOI: 10.1021/acsomega.9b02011
   
   for metadynamics refer to:
   * S. Grimme, J. Chem. Theory Comput., 2019, 155, 2847-2862
     DOI: 10.1021/acs.jctc.9b00143
   
   for SPH calculations refer to:
   * S. Spicher and S. Grimme, J. Chem. Theory Comput., 2021, 17, 1701-1714
     DOI: 10.1021/acs.jctc.0c01306
   
   with help from (in alphabetical order)
   P. Atkinson, C. Bannwarth, F. Bohle, G. Brandenburg, E. Caldeweyher
   M. Checinski, S. Dohm, S. Ehlert, S. Ehrlich, I. Gerasimov, C. Hölzer
   A. Katbashev, J. Koopman, C. Lavigne, S. Lehtola, F. März, M. Müller,
   F. Musil, H. Neugebauer, J. Pisarek, C. Plett, P. Pracht, F. Pultar,
   J. Seibert, P. Shushkov, S. Spicher, M. Stahn, M. Steiner, T. Strunk,
   J. Stückrath, T. Rose, and J. Unsleber
   
 * started run on 2022/11/24 at 09:27:46.526     

           -------------------------------------------------
          |                Calculation Setup                |
           -------------------------------------------------

          program call               : xtb xtbopt.coord --gfn2 --sp --gbsa water
          hostname                   : cn0341
          coordinate file            : xtbopt.coord
          omp threads                :                     2

   ID    Z sym.   atoms
    1    8 o      1, 4, 7, 10, 13, 16, 19, 22, 25, 28, 31, 34, 37, 40, 43,
                  46, 49, 52, 55, 58, 61, 64, 67, 70, 73, 76, 79, 82, 85, 88,
                  91, 94, 97, 100, 103, 106, 109, 112, 115, 118, 121, 124,
                  127, 130, 133, 136, 139, 142, 145, 148, 151, 154, 157, 160,
                  163, 166, 169, 172, 175, 178, 181, 184, 187, 190, 193, 196,
                  199, 202, 205, 208, 211, 214, 217, 220, 223, 226, 229, 232,
                  235, 238, 241, 244, 247, 250, 253, 256, 259, 262, 265, 268,
                  271, 274, 277, 280, 283, 286, 289, 292, 295, 298, 301, 304,
                  307, 310, 313, 316, 319, 322, 325, 328, 331, 334, 337, 340,
                  343, 346, 349, 352, 355, 358, 361, 364, 367, 370, 373, 376,
                  379, 382, 385, 388, 391, 394, 397, 400, 403, 406, 409, 412,
                  415, 418, 421, 424, 427, 430, 433, 436, 439, 442, 445, 448,
                  451, 454, 457, 460, 463, 466, 469, 472, 475, 478, 481, 484,
                  487, 490, 493, 496, 499, 502, 505, 508, 511, 514, 517, 520,
                  523, 526, 529, 532, 535, 538, 541, 544, 547, 550, 553, 556,
                  559, 562, 565, 568, 571, 574, 577, 580, 583, 586, 589, 592,
                  595, 598, 601, 604, 607, 610, 613, 616, 619, 622, 625, 628,
                  631, 634, 637, 640, 643, 646, 649, 652, 655, 658, 661, 664,
                  667, 670, 673, 676, 679, 682, 685, 688, 691, 694, 697, 700,
                  703, 706, 709, 712, 715, 718, 721, 724, 727, 730, 733, 736,
                  739, 742, 745, 748, 751, 754
    2    1 h      2, 3, 5, 6, 8, 9, 11, 12, 14, 15, 17, 18, 20, 21, 23, 24,
                  26, 27, 29, 30, 32, 33, 35, 36, 38, 39, 41, 42, 44, 45, 47,
                  48, 50, 51, 53, 54, 56, 57, 59, 60, 62, 63, 65, 66, 68, 69,
                  71, 72, 74, 75, 77, 78, 80, 81, 83, 84, 86, 87, 89, 90, 92,
                  93, 95, 96, 98, 99, 101, 102, 104, 105, 107, 108, 110, 111,
                  113, 114, 116, 117, 119, 120, 122, 123, 125, 126, 128, 129,
                  131, 132, 134, 135, 137, 138, 140, 141, 143, 144, 146, 147,
                  149, 150, 152, 153, 155, 156, 158, 159, 161, 162, 164, 165,
                  167, 168, 170, 171, 173, 174, 176, 177, 179, 180, 182, 183,
                  185, 186, 188, 189, 191, 192, 194, 195, 197, 198, 200, 201,
                  203, 204, 206, 207, 209, 210, 212, 213, 215, 216, 218, 219,
                  221, 222, 224, 225, 227, 228, 230, 231, 233, 234, 236, 237,
                  239, 240, 242, 243, 245, 246, 248, 249, 251, 252, 254, 255,
                  257, 258, 260, 261, 263, 264, 266, 267, 269, 270, 272, 273,
                  275, 276, 278, 279, 281, 282, 284, 285, 287, 288, 290, 291,
                  293, 294, 296, 297, 299, 300, 302, 303, 305, 306, 308, 309,
                  311, 312, 314, 315, 317, 318, 320, 321, 323, 324, 326, 327,
                  329, 330, 332, 333, 335, 336, 338, 339, 341, 342, 344, 345,
                  347, 348, 350, 351, 353, 354, 356, 357, 359, 360, 362, 363,
                  365, 366, 368, 369, 371, 372, 374, 375, 377, 378, 380, 381,
                  383, 384, 386, 387, 389, 390, 392, 393, 395, 396, 398, 399,
                  401, 402, 404, 405, 407, 408, 410, 411, 413, 414, 416, 417,
                  419, 420, 422, 423, 425, 426, 428, 429, 431, 432, 434, 435,
                  437, 438, 440, 441, 443, 444, 446, 447, 449, 450, 452, 453,
                  455, 456, 458, 459, 461, 462, 464, 465, 467, 468, 470, 471,
                  473, 474, 476, 477, 479, 480, 482, 483, 485, 486, 488, 489,
                  491, 492, 494, 495, 497, 498, 500, 501, 503, 504, 506, 507,
                  509, 510, 512, 513, 515, 516, 518, 519, 521, 522, 524, 525,
                  527, 528, 530, 531, 533, 534, 536, 537, 539, 540, 542, 543,
                  545, 546, 548, 549, 551, 552, 554, 555, 557, 558, 560, 561,
                  563, 564, 566, 567, 569, 570, 572, 573, 575, 576, 578, 579,
                  581, 582, 584, 585, 587, 588, 590, 591, 593, 594, 596, 597,
                  599, 600, 602, 603, 605, 606, 608, 609, 611, 612, 614, 615,
                  617, 618, 620, 621, 623, 624, 626, 627, 629, 630, 632, 633,
                  635, 636, 638, 639, 641, 642, 644, 645, 647, 648, 650, 651,
                  653, 654, 656, 657, 659, 660, 662, 663, 665, 666, 668, 669,
                  671, 672, 674, 675, 677, 678, 680, 681, 683, 684, 686, 687,
                  689, 690, 692, 693, 695, 696, 698, 699, 701, 702, 704, 705,
                  707, 708, 710, 711, 713, 714, 716, 717, 719, 720, 722, 723,
                  725, 726, 728, 729, 731, 732, 734, 735, 737, 738, 740, 741,
                  743, 744, 746, 747, 749, 750, 752, 753, 755, 756

molecular fragmentation (1/2 indicates fragments):
111222222222222222222222222222222222222222222222222222222222222222222222
222222222222222222222222222222222222222222222222222222222222222222222222
222222222222222222222222222222222222222222222222222222222222222222222222
222222222222222222222222222222222222222222222222222222222222222222222222
222222222222222222222222222222222222222222222222222222222222222222222222
222222222222222222222222222222222222222222222222222222222222222222222222
222222222222222222222222222222222222222222222222222222222222222222222222
222222222222222222222222222222222222222222222222222222222222222222222222
222222222222222222222222222222222222222222222222222222222222222222222222
222222222222222222222222222222222222222222222222222222222222222222222222
222222222222222222222222222222222222
# atoms in fragment 1/2:     3   753
 fragment masses (1/2) :       18.02     4521.84
CMA distance (Bohr)    :  15.846
constraining FC (au)   :  0.0500

           -------------------------------------------------
          |                 G F N 2 - x T B                 |
           -------------------------------------------------

        Reference                      10.1021/acs.jctc.8b01176
      * Hamiltonian:
        H0-scaling (s, p, d)           1.850000    2.230000    2.230000
        zeta-weighting                 0.500000
      * Dispersion:
        s8                             2.700000
        a1                             0.520000
        a2                             5.000000
        s9                             5.000000
      * Repulsion:
        kExp                           1.500000    1.000000
        rExp                           1.000000
      * Coulomb:
        alpha                          2.000000
        third order                    shell-resolved
        anisotropic                    true
        a3                             3.000000
        a5                             4.000000
        cn-shift                       1.200000
        cn-exp                         4.000000
        max-rad                        5.000000

      * Solvation model:               GBSA
        Solvent                        water
        Parameter file                 internal GFN2-xTB/GBSA
        Dielectric constant                8.0200E+01
        Reference state                gsolv [1 M gas/solution]
        Free energy shift                  1.8574E-03 Eh       1.1656E+00 kcal/mol
        Temperature                        2.9815E+02 K
        Density                            1.0000E+00 kg/L
        Solvent mass                       1.8000E+01 g/mol
        Interaction kernel             Still
        Born radius scaling (c1)           1.5524E+00
        Born radii integrator          GBOBC
        Born offset                        2.4628E-02 a0       4.6540E-02 AA
        H-bond correction              true
        Ion screening                  false
        Surface tension                    1.0000E-05 Eh       1.5569E+01 dyn/cm
        Grid points                               230 per atom

          ...................................................
          :                      SETUP                      :
          :.................................................:
          :  # basis functions                1512          :
          :  # atomic orbitals                1512          :
          :  # shells                         1008          :
          :  # electrons                      2016          :
          :  max. iterations                   250          :
          :  Hamiltonian                  GFN2-xTB          :
          :  restarted?                      false          :
          :  GBSA solvation                   true          :
          :  PC potential                    false          :
          :  electronic temp.          300.0000000     K    :
          :  accuracy                    1.0000000          :
          :  -> integral cutoff          0.2500000E+02      :
          :  -> integral neglect         0.1000000E-07      :
          :  -> SCF convergence          0.1000000E-05 Eh   :
          :  -> wf. convergence          0.1000000E-03 e    :
          :  Broyden damping             0.4000000          :
          ...................................................

 iter      E             dE          RMSdq      gap      omega  full diag
   1  -1291.2624486 -0.129126E+04  0.408E+00    8.26       0.0  T
   2  -1291.3446276 -0.821791E-01  0.242E+00    7.97       1.0  T
   3  -1291.3799537 -0.353260E-01  0.223E-01    7.50       1.0  T
   4  -1291.3853290 -0.537538E-02  0.481E-02    7.59       1.0  T
   5  -1291.3854878 -0.158735E-03  0.306E-02    7.57       1.0  T
   6  -1291.3855358 -0.480382E-04  0.375E-03    7.56       1.0  T
   7  -1291.3855375 -0.166948E-05  0.929E-04    7.56       3.9  T
   8  -1291.3855376 -0.109831E-06  0.459E-04    7.56       7.9  T
   9  -1291.3855376 -0.366642E-07  0.132E-04    7.55      27.6  T

   *** convergence criteria satisfied after 9 iterations ***

         #    Occupation            Energy/Eh            Energy/eV
      -------------------------------------------------------------
         1        2.0000           -0.6477711             -17.6267
       ...           ...                  ...                  ...
      1002        2.0000           -0.3539525              -9.6315
      1003        2.0000           -0.3533757              -9.6158
      1004        2.0000           -0.3525980              -9.5947
      1005        2.0000           -0.3515098              -9.5651
      1006        2.0000           -0.3504404              -9.5360
      1007        2.0000           -0.3482555              -9.4765
      1008        2.0000           -0.3352326              -9.1221 (HOMO)
      1009                         -0.0575963              -1.5673 (LUMO)
      1010                         -0.0502675              -1.3678
      1011                         -0.0392404              -1.0678
      1012                         -0.0364321              -0.9914
      1013                         -0.0321385              -0.8745
       ...                                ...                  ...
      1512                          0.4925066              13.4018
      -------------------------------------------------------------
                  HL-Gap            0.2776363 Eh            7.5549 eV
             Fermi-level           -0.1964144 Eh           -5.3447 eV

 SCC (total)                   0 d,  0 h,  0 min, 20.267 sec
 SCC setup                      ...        0 min,  0.115 sec (  0.568%)
 Dispersion                     ...        0 min,  0.109 sec (  0.539%)
 classical contributions        ...        0 min,  0.023 sec (  0.116%)
 integral evaluation            ...        0 min,  0.598 sec (  2.952%)
 iterations                     ...        0 min,  6.923 sec ( 34.158%)
 molecular gradient             ...        0 min, 12.430 sec ( 61.333%)
 printout                       ...        0 min,  0.068 sec (  0.334%)

         :::::::::::::::::::::::::::::::::::::::::::::::::::::
         ::                     SUMMARY                     ::
         :::::::::::::::::::::::::::::::::::::::::::::::::::::
         :: total energy           -1283.612257055976 Eh    ::
         :: total w/o Gsasa/hb     -1283.391752204913 Eh    ::
         :: gradient norm              0.100035145553 Eh/a0 ::
         :: HOMO-LUMO gap              7.554867502358 eV    ::
         ::.................................................::
         :: SCC energy             -1291.385537632192 Eh    ::
         :: -> isotropic ES            7.349066270325 Eh    ::
         :: -> anisotropic ES         -1.658665882059 Eh    ::
         :: -> anisotropic XC         -0.118996073720 Eh    ::
         :: -> dispersion             -0.799032393021 Eh    ::
         :: -> Gsolv                  -0.277457908233 Eh    ::
         ::    -> Gelec               -0.056953057170 Eh    ::
         ::    -> Gsasa                0.008522842868 Eh    ::
         ::    -> Ghb                 -0.230885137057 Eh    ::
         ::    -> Gshift               0.001857443127 Eh    ::
         :: repulsion energy           7.615131387282 Eh    ::
         :: add. restraining           0.000000000000 Eh    ::
         :: total charge               0.000000000000 e     ::
         :::::::::::::::::::::::::::::::::::::::::::::::::::::

           -------------------------------------------------
          |                Property Printout                |
           -------------------------------------------------

    * Orbital Energies and Occupations

         #    Occupation            Energy/Eh            Energy/eV
      -------------------------------------------------------------
         1        2.0000           -0.6477711             -17.6267
       ...           ...                  ...                  ...
       996        2.0000           -0.3573533              -9.7241
       997        2.0000           -0.3565700              -9.7028
       998        2.0000           -0.3564356              -9.6991
       999        2.0000           -0.3559407              -9.6856
      1000        2.0000           -0.3557813              -9.6813
      1001        2.0000           -0.3548037              -9.6547
      1002        2.0000           -0.3539525              -9.6315
      1003        2.0000           -0.3533757              -9.6158
      1004        2.0000           -0.3525980              -9.5947
      1005        2.0000           -0.3515098              -9.5651
      1006        2.0000           -0.3504404              -9.5360
      1007        2.0000           -0.3482555              -9.4765
      1008        2.0000           -0.3352326              -9.1221 (HOMO)
      1009                         -0.0575963              -1.5673 (LUMO)
      1010                         -0.0502675              -1.3678
      1011                         -0.0392404              -1.0678
      1012                         -0.0364321              -0.9914
      1013                         -0.0321385              -0.8745
      1014                         -0.0249178              -0.6780
      1015                         -0.0216553              -0.5893
      1016                         -0.0127221              -0.3462
      1017                         -0.0102336              -0.2785
      1018                         -0.0086455              -0.2353
      1019                         -0.0073750              -0.2007
       ...                                ...                  ...
      1512                          0.4925066              13.4018
      -------------------------------------------------------------
                  HL-Gap            0.2776363 Eh            7.5549 eV
             Fermi-level           -0.1964144 Eh           -5.3447 eV

     #   Z          covCN         q      C6AA      α(0)
     1   8 o        1.608    -0.692    27.505     7.078
     2   1 h        0.805     0.322     0.658     1.274
     3   1 h        0.803     0.352     0.583     1.199
     4   8 o        1.608    -0.688    27.400     7.065
     5   1 h        0.803     0.352     0.583     1.199
     6   1 h        0.805     0.329     0.639     1.255
     7   8 o        1.608    -0.687    27.368     7.061
     8   1 h        0.804     0.338     0.616     1.233
     9   1 h        0.804     0.336     0.622     1.239
    10   8 o        1.609    -0.676    27.078     7.023
    11   1 h        0.804     0.339     0.616     1.232
    12   1 h        0.804     0.334     0.627     1.244
    13   8 o        1.608    -0.678    27.130     7.030
    14   1 h        0.804     0.351     0.586     1.202
    15   1 h        0.805     0.343     0.605     1.222
    16   8 o        1.606    -0.694    27.558     7.085
    17   1 h        0.803     0.361     0.564     1.180
    18   1 h        0.803     0.331     0.634     1.251
    19   8 o        1.607    -0.691    27.482     7.075
    20   1 h        0.804     0.344     0.603     1.220
    21   1 h        0.802     0.372     0.540     1.154
    22   8 o        1.608    -0.691    27.474     7.074
    23   1 h        0.804     0.358     0.571     1.186
    24   1 h        0.804     0.348     0.593     1.209
    25   8 o        1.607    -0.687    27.374     7.061
    26   1 h        0.803     0.364     0.557     1.172
    27   1 h        0.803     0.351     0.586     1.203
    28   8 o        1.606    -0.703    27.782     7.114
    29   1 h        0.804     0.345     0.600     1.217
    30   1 h        0.803     0.341     0.609     1.226
    31   8 o        1.608    -0.668    26.873     6.996
    32   1 h        0.804     0.352     0.584     1.201
    33   1 h        0.804     0.342     0.608     1.225
    34   8 o        1.607    -0.684    27.293     7.051
    35   1 h        0.804     0.343     0.606     1.223
    36   1 h        0.803     0.359     0.567     1.183
    37   8 o        1.607    -0.698    27.655     7.097
    38   1 h        0.804     0.338     0.617     1.234
    39   1 h        0.803     0.369     0.546     1.161
    40   8 o        1.608    -0.691    27.482     7.075
    41   1 h        0.803     0.346     0.598     1.215
    42   1 h        0.804     0.345     0.601     1.217
    43   8 o        1.608    -0.692    27.499     7.077
    44   1 h        0.803     0.366     0.552     1.167
    45   1 h        0.805     0.338     0.616     1.233
    46   8 o        1.607    -0.688    27.391     7.064
    47   1 h        0.804     0.331     0.634     1.251
    48   1 h        0.803     0.351     0.587     1.203
    49   8 o        1.607    -0.690    27.448     7.071
    50   1 h        0.802     0.360     0.566     1.182
    51   1 h        0.804     0.336     0.621     1.238
    52   8 o        1.609    -0.683    27.259     7.047
    53   1 h        0.804     0.354     0.579     1.195
    54   1 h        0.805     0.347     0.595     1.211
    55   8 o        1.607    -0.702    27.754     7.110
    56   1 h        0.803     0.351     0.587     1.203
    57   1 h        0.804     0.353     0.582     1.198
    58   8 o        1.607    -0.689    27.419     7.067
    59   1 h        0.805     0.338     0.616     1.233
    60   1 h        0.802     0.357     0.573     1.189
    61   8 o        1.609    -0.664    26.778     6.984
    62   1 h        0.804     0.343     0.604     1.221
    63   1 h        0.804     0.344     0.602     1.219
    64   8 o        1.607    -0.683    27.269     7.048
    65   1 h        0.804     0.331     0.636     1.253
    66   1 h        0.804     0.358     0.570     1.186
    67   8 o        1.603    -0.694    27.566     7.086
    68   1 h        0.804     0.361     0.564     1.179
    69   1 h        0.799     0.350     0.588     1.205
    70   8 o        1.607    -0.686    27.334     7.056
    71   1 h        0.803     0.339     0.616     1.233
    72   1 h        0.804     0.352     0.584     1.200
    73   8 o        1.608    -0.693    27.533     7.082
    74   1 h        0.805     0.345     0.600     1.216
    75   1 h        0.803     0.359     0.567     1.183
    76   8 o        1.608    -0.694    27.565     7.086
    77   1 h        0.804     0.344     0.602     1.219
    78   1 h        0.804     0.338     0.616     1.233
    79   8 o        1.607    -0.677    27.111     7.027
    80   1 h        0.804     0.332     0.633     1.250
    81   1 h        0.803     0.335     0.626     1.243
    82   8 o        1.605    -0.709    27.958     7.136
    83   1 h        0.802     0.363     0.559     1.175
    84   1 h        0.803     0.324     0.653     1.270
    85   8 o        1.607    -0.704    27.812     7.118
    86   1 h        0.803     0.351     0.585     1.201
    87   1 h        0.804     0.326     0.647     1.264
    88   8 o        1.607    -0.688    27.386     7.063
    89   1 h        0.804     0.348     0.594     1.210
    90   1 h        0.803     0.348     0.593     1.210
    91   8 o        1.608    -0.698    27.646     7.096
    92   1 h        0.804     0.356     0.575     1.192
    93   1 h        0.804     0.328     0.643     1.260
    94   8 o        1.607    -0.678    27.126     7.029
    95   1 h        0.803     0.355     0.577     1.193
    96   1 h        0.803     0.322     0.658     1.275
    97   8 o        1.608    -0.683    27.264     7.047
    98   1 h        0.804     0.359     0.567     1.183
    99   1 h        0.804     0.343     0.604     1.221
   100   8 o        1.609    -0.661    26.686     6.972
   101   1 h        0.804     0.323     0.656     1.272
   102   1 h        0.804     0.350     0.587     1.204
   103   8 o        1.606    -0.708    27.924     7.132
   104   1 h        0.803     0.361     0.563     1.179
   105   1 h        0.804     0.338     0.618     1.235
   106   8 o        1.608    -0.677    27.114     7.028
   107   1 h        0.804     0.349     0.590     1.206
   108   1 h        0.804     0.334     0.628     1.245
   109   8 o        1.608    -0.656    26.561     6.956
   110   1 h        0.804     0.334     0.627     1.244
   111   1 h        0.804     0.337     0.620     1.237
   112   8 o        1.609    -0.675    27.051     7.020
   113   1 h        0.805     0.335     0.625     1.241
   114   1 h        0.804     0.345     0.600     1.217
   115   8 o        1.609    -0.681    27.208     7.040
   116   1 h        0.805     0.338     0.616     1.233
   117   1 h        0.805     0.339     0.615     1.232
   118   8 o        1.608    -0.697    27.620     7.093
   119   1 h        0.804     0.339     0.614     1.230
   120   1 h        0.803     0.354     0.580     1.196
   121   8 o        1.609    -0.670    26.937     7.005
   122   1 h        0.805     0.317     0.673     1.288
   123   1 h        0.803     0.350     0.589     1.206
   124   8 o        1.607    -0.664    26.767     6.983
   125   1 h        0.805     0.340     0.613     1.230
   126   1 h        0.803     0.330     0.637     1.254
   127   8 o        1.608    -0.667    26.846     6.993
   128   1 h        0.804     0.340     0.613     1.230
   129   1 h        0.804     0.346     0.597     1.214
   130   8 o        1.608    -0.646    26.328     6.925
   131   1 h        0.802     0.350     0.589     1.206
   132   1 h        0.806     0.310     0.693     1.307
   133   8 o        1.607    -0.683    27.259     7.047
   134   1 h        0.804     0.331     0.634     1.251
   135   1 h        0.803     0.347     0.594     1.211
   136   8 o        1.616    -0.669    26.884     6.998
   137   1 h        0.803     0.352     0.585     1.201
   138   1 h        0.804     0.325     0.649     1.266
   139   8 o        1.607    -0.694    27.549     7.084
   140   1 h        0.804     0.355     0.577     1.194
   141   1 h        0.804     0.345     0.600     1.216
   142   8 o        1.607    -0.676    27.090     7.025
   143   1 h        0.804     0.326     0.647     1.264
   144   1 h        0.803     0.350     0.588     1.204
   145   8 o        1.609    -0.667    26.851     6.994
   146   1 h        0.804     0.336     0.623     1.240
   147   1 h        0.804     0.326     0.649     1.265
   148   8 o        1.606    -0.698    27.660     7.098
   149   1 h        0.804     0.332     0.633     1.250
   150   1 h        0.802     0.359     0.569     1.185
   151   8 o        1.608    -0.678    27.145     7.032
   152   1 h        0.804     0.317     0.673     1.289
   153   1 h        0.803     0.351     0.586     1.203
   154   8 o        1.609    -0.674    27.017     7.015
   155   1 h        0.804     0.343     0.605     1.222
   156   1 h        0.804     0.335     0.625     1.242
   157   8 o        1.608    -0.668    26.871     6.996
   158   1 h        0.805     0.333     0.630     1.247
   159   1 h        0.803     0.342     0.607     1.224
   160   8 o        1.608    -0.661    26.688     6.972
   161   1 h        0.803     0.362     0.562     1.177
   162   1 h        0.806     0.310     0.691     1.306
   163   8 o        1.606    -0.671    26.940     7.005
   164   1 h        0.806     0.308     0.696     1.310
   165   1 h        0.801     0.372     0.539     1.154
   166   8 o        1.607    -0.683    27.269     7.048
   167   1 h        0.804     0.345     0.600     1.217
   168   1 h        0.802     0.366     0.553     1.168
   169   8 o        1.607    -0.686    27.352     7.059
   170   1 h        0.803     0.331     0.634     1.251
   171   1 h        0.804     0.371     0.542     1.156
   172   8 o        1.607    -0.694    27.554     7.084
   173   1 h        0.803     0.351     0.587     1.203
   174   1 h        0.803     0.350     0.588     1.204
   175   8 o        1.608    -0.688    27.405     7.065
   176   1 h        0.804     0.359     0.568     1.183
   177   1 h        0.804     0.343     0.604     1.220
   178   8 o        1.610    -0.655    26.532     6.952
   179   1 h        0.805     0.325     0.651     1.267
   180   1 h        0.804     0.338     0.616     1.233
   181   8 o        1.609    -0.689    27.423     7.068
   182   1 h        0.805     0.332     0.633     1.250
   183   1 h        0.804     0.356     0.575     1.191
   184   8 o        1.607    -0.684    27.286     7.050
   185   1 h        0.803     0.362     0.561     1.176
   186   1 h        0.804     0.351     0.586     1.203
   187   8 o        1.609    -0.673    27.014     7.015
   188   1 h        0.805     0.317     0.673     1.289
   189   1 h        0.804     0.343     0.605     1.222
   190   8 o        1.606    -0.698    27.646     7.096
   191   1 h        0.803     0.355     0.577     1.193
   192   1 h        0.804     0.333     0.629     1.246
   193   8 o        1.605    -0.712    28.047     7.148
   194   1 h        0.803     0.354     0.578     1.195
   195   1 h        0.803     0.333     0.629     1.246
   196   8 o        1.607    -0.667    26.843     6.992
   197   1 h        0.804     0.322     0.659     1.275
   198   1 h        0.803     0.344     0.602     1.219
   199   8 o        1.606    -0.707    27.898     7.129
   200   1 h        0.803     0.347     0.595     1.212
   201   1 h        0.803     0.353     0.580     1.197
   202   8 o        1.609    -0.686    27.333     7.056
   203   1 h        0.805     0.329     0.639     1.256
   204   1 h        0.804     0.353     0.581     1.197
   205   8 o        1.608    -0.665    26.786     6.985
   206   1 h        0.804     0.339     0.614     1.231
   207   1 h        0.805     0.313     0.682     1.297
   208   8 o        1.607    -0.702    27.769     7.112
   209   1 h        0.805     0.325     0.650     1.267
   210   1 h        0.802     0.366     0.553     1.168
   211   8 o        1.607    -0.663    26.753     6.981
   212   1 h        0.803     0.336     0.621     1.238
   213   1 h        0.803     0.330     0.639     1.255
   214   8 o        1.607    -0.721    28.285     7.178
   215   1 h        0.804     0.330     0.637     1.254
   216   1 h        0.803     0.341     0.609     1.226
   217   8 o        1.608    -0.672    26.983     7.011
   218   1 h        0.805     0.346     0.598     1.214
   219   1 h        0.803     0.360     0.567     1.182
   220   8 o        1.609    -0.673    26.999     7.013
   221   1 h        0.805     0.358     0.570     1.186
   222   1 h        0.804     0.326     0.648     1.265
   223   8 o        1.609    -0.674    27.024     7.016
   224   1 h        0.805     0.321     0.660     1.276
   225   1 h        0.804     0.336     0.622     1.239
   226   8 o        1.606    -0.704    27.811     7.117
   227   1 h        0.803     0.352     0.584     1.201
   228   1 h        0.803     0.361     0.564     1.180
   229   8 o        1.609    -0.669    26.899     7.000
   230   1 h        0.804     0.346     0.597     1.214
   231   1 h        0.805     0.311     0.688     1.303
   232   8 o        1.608    -0.658    26.606     6.962
   233   1 h        0.804     0.328     0.642     1.259
   234   1 h        0.803     0.328     0.642     1.259
   235   8 o        1.607    -0.667    26.843     6.992
   236   1 h        0.804     0.354     0.578     1.194
   237   1 h        0.803     0.329     0.640     1.256
   238   8 o        1.609    -0.686    27.333     7.056
   239   1 h        0.804     0.341     0.610     1.226
   240   1 h        0.804     0.328     0.643     1.259
   241   8 o        1.602    -0.695    27.586     7.089
   242   1 h        0.801     0.374     0.537     1.151
   243   1 h        0.805     0.313     0.684     1.299
   244   8 o        1.605    -0.650    26.419     6.937
   245   1 h        0.801     0.348     0.594     1.210
   246   1 h        0.806     0.314     0.681     1.296
   247   8 o        1.605    -0.711    28.008     7.143
   248   1 h        0.803     0.353     0.580     1.197
   249   1 h        0.803     0.354     0.580     1.196
   250   8 o        1.608    -0.679    27.155     7.033
   251   1 h        0.804     0.336     0.623     1.240
   252   1 h        0.805     0.328     0.643     1.259
   253   8 o        1.607    -0.702    27.777     7.113
   254   1 h        0.803     0.368     0.548     1.163
   255   1 h        0.804     0.353     0.581     1.198
   256   8 o        1.607    -0.681    27.206     7.040
   257   1 h        0.802     0.336     0.622     1.239
   258   1 h        0.805     0.355     0.577     1.193
   259   8 o        1.606    -0.701    27.730     7.107
   260   1 h        0.804     0.325     0.652     1.268
   261   1 h        0.802     0.355     0.577     1.194
   262   8 o        1.607    -0.689    27.426     7.068
   263   1 h        0.803     0.330     0.639     1.255
   264   1 h        0.803     0.361     0.563     1.178
   265   8 o        1.606    -0.700    27.704     7.104
   266   1 h        0.802     0.357     0.572     1.188
   267   1 h        0.804     0.327     0.645     1.262
   268   8 o        1.607    -0.670    26.920     7.003
   269   1 h        0.803     0.334     0.626     1.243
   270   1 h        0.804     0.330     0.638     1.254
   271   8 o        1.609    -0.677    27.115     7.028
   272   1 h        0.803     0.361     0.564     1.180
   273   1 h        0.805     0.337     0.619     1.236
   274   8 o        1.606    -0.695    27.570     7.087
   275   1 h        0.803     0.342     0.608     1.225
   276   1 h        0.803     0.365     0.554     1.169
   277   8 o        1.608    -0.698    27.646     7.096
   278   1 h        0.804     0.339     0.616     1.233
   279   1 h        0.804     0.354     0.580     1.196
   280   8 o        1.609    -0.674    27.035     7.018
   281   1 h        0.804     0.351     0.586     1.203
   282   1 h        0.805     0.316     0.675     1.291
   283   8 o        1.606    -0.677    27.105     7.027
   284   1 h        0.803     0.329     0.639     1.256
   285   1 h        0.803     0.354     0.579     1.195
   286   8 o        1.607    -0.701    27.739     7.108
   287   1 h        0.803     0.342     0.607     1.224
   288   1 h        0.804     0.352     0.583     1.200
   289   8 o        1.606    -0.710    27.985     7.140
   290   1 h        0.805     0.313     0.682     1.298
   291   1 h        0.802     0.356     0.575     1.191
   292   8 o        1.610    -0.657    26.597     6.961
   293   1 h        0.805     0.325     0.649     1.266
   294   1 h        0.805     0.336     0.622     1.239
   295   8 o        1.607    -0.688    27.398     7.064
   296   1 h        0.804     0.342     0.607     1.224
   297   1 h        0.803     0.363     0.559     1.175
   298   8 o        1.608    -0.675    27.058     7.020
   299   1 h        0.804     0.348     0.594     1.210
   300   1 h        0.804     0.355     0.576     1.192
   301   8 o        1.607    -0.692    27.508     7.079
   302   1 h        0.804     0.341     0.610     1.227
   303   1 h        0.803     0.345     0.600     1.216
   304   8 o        1.607    -0.668    26.863     6.995
   305   1 h        0.802     0.342     0.607     1.224
   306   1 h        0.805     0.325     0.650     1.267
   307   8 o        1.608    -0.688    27.385     7.063
   308   1 h        0.804     0.339     0.613     1.230
   309   1 h        0.804     0.360     0.566     1.181
   310   8 o        1.608    -0.682    27.224     7.042
   311   1 h        0.805     0.325     0.650     1.266
   312   1 h        0.803     0.347     0.596     1.213
   313   8 o        1.607    -0.670    26.920     7.002
   314   1 h        0.802     0.354     0.580     1.196
   315   1 h        0.806     0.311     0.689     1.304
   316   8 o        1.608    -0.679    27.164     7.034
   317   1 h        0.805     0.324     0.654     1.270
   318   1 h        0.803     0.354     0.578     1.195
   319   8 o        1.608    -0.671    26.963     7.008
   320   1 h        0.804     0.350     0.587     1.204
   321   1 h        0.805     0.338     0.616     1.233
   322   8 o        1.606    -0.698    27.668     7.099
   323   1 h        0.804     0.341     0.609     1.226
   324   1 h        0.803     0.364     0.557     1.172
   325   8 o        1.601    -0.722    28.314     7.181
   326   1 h        0.801     0.366     0.552     1.167
   327   1 h        0.801     0.334     0.628     1.245
   328   8 o        1.602    -0.684    27.289     7.050
   329   1 h        0.806     0.309     0.696     1.310
   330   1 h        0.802     0.348     0.593     1.210
   331   8 o        1.608    -0.690    27.452     7.071
   332   1 h        0.805     0.319     0.666     1.282
   333   1 h        0.803     0.354     0.580     1.196
   334   8 o        1.609    -0.662    26.727     6.978
   335   1 h        0.805     0.329     0.640     1.256
   336   1 h        0.805     0.340     0.612     1.229
   337   8 o        1.608    -0.685    27.318     7.054
   338   1 h        0.804     0.327     0.645     1.261
   339   1 h        0.804     0.354     0.578     1.194
   340   8 o        1.608    -0.656    26.569     6.957
   341   1 h        0.805     0.318     0.669     1.284
   342   1 h        0.803     0.330     0.638     1.255
   343   8 o        1.608    -0.692    27.488     7.076
   344   1 h        0.804     0.357     0.573     1.189
   345   1 h        0.804     0.358     0.571     1.187
   346   8 o        1.608    -0.663    26.749     6.980
   347   1 h        0.803     0.333     0.631     1.248
   348   1 h        0.804     0.348     0.594     1.210
   349   8 o        1.607    -0.684    27.284     7.050
   350   1 h        0.804     0.334     0.627     1.244
   351   1 h        0.803     0.342     0.608     1.225
   352   8 o        1.605    -0.694    27.552     7.084
   353   1 h        0.803     0.355     0.576     1.192
   354   1 h        0.803     0.325     0.650     1.267
   355   8 o        1.606    -0.697    27.634     7.095
   356   1 h        0.805     0.340     0.613     1.230
   357   1 h        0.802     0.366     0.553     1.169
   358   8 o        1.607    -0.662    26.731     6.978
   359   1 h        0.803     0.331     0.636     1.252
   360   1 h        0.803     0.351     0.587     1.204
   361   8 o        1.609    -0.678    27.139     7.031
   362   1 h        0.804     0.341     0.609     1.226
   363   1 h        0.804     0.339     0.614     1.231
   364   8 o        1.606    -0.697    27.636     7.095
   365   1 h        0.803     0.359     0.567     1.183
   366   1 h        0.803     0.350     0.587     1.204
   367   8 o        1.608    -0.668    26.877     6.997
   368   1 h        0.805     0.307     0.702     1.316
   369   1 h        0.802     0.363     0.558     1.174
   370   8 o        1.610    -0.668    26.862     6.995
   371   1 h        0.805     0.329     0.640     1.257
   372   1 h        0.804     0.335     0.624     1.240
   373   8 o        1.608    -0.673    26.997     7.013
   374   1 h        0.806     0.308     0.697     1.312
   375   1 h        0.803     0.353     0.581     1.198
   376   8 o        1.609    -0.645    26.281     6.919
   377   1 h        0.804     0.327     0.644     1.261
   378   1 h        0.805     0.345     0.599     1.215
   379   8 o        1.606    -0.704    27.815     7.118
   380   1 h        0.804     0.332     0.631     1.248
   381   1 h        0.803     0.331     0.636     1.253
   382   8 o        1.606    -0.716    28.152     7.161
   383   1 h        0.804     0.326     0.647     1.263
   384   1 h        0.803     0.352     0.584     1.201
   385   8 o        1.609    -0.661    26.686     6.972
   386   1 h        0.804     0.354     0.580     1.196
   387   1 h        0.805     0.326     0.647     1.263
   388   8 o        1.609    -0.677    27.113     7.028
   389   1 h        0.805     0.333     0.631     1.247
   390   1 h        0.804     0.341     0.609     1.226
   391   8 o        1.609    -0.674    27.028     7.017
   392   1 h        0.805     0.336     0.622     1.239
   393   1 h        0.804     0.342     0.608     1.225
   394   8 o        1.609    -0.668    26.864     6.995
   395   1 h        0.805     0.330     0.637     1.254
   396   1 h        0.803     0.352     0.584     1.201
   397   8 o        1.607    -0.692    27.503     7.078
   398   1 h        0.804     0.322     0.658     1.274
   399   1 h        0.804     0.359     0.568     1.184
   400   8 o        1.606    -0.713    28.062     7.150
   401   1 h        0.802     0.363     0.559     1.175
   402   1 h        0.804     0.332     0.632     1.249
   403   8 o        1.609    -0.690    27.440     7.070
   404   1 h        0.804     0.353     0.582     1.198
   405   1 h        0.804     0.343     0.606     1.223
   406   8 o        1.608    -0.665    26.798     6.987
   407   1 h        0.803     0.362     0.561     1.176
   408   1 h        0.805     0.328     0.642     1.259
   409   8 o        1.609    -0.662    26.731     6.978
   410   1 h        0.804     0.339     0.615     1.232
   411   1 h        0.805     0.328     0.642     1.258
   412   8 o        1.606    -0.702    27.755     7.110
   413   1 h        0.803     0.349     0.590     1.207
   414   1 h        0.803     0.354     0.580     1.197
   415   8 o        1.606    -0.675    27.066     7.021
   416   1 h        0.805     0.310     0.690     1.305
   417   1 h        0.801     0.368     0.548     1.163
   418   8 o        1.607    -0.687    27.365     7.060
   419   1 h        0.804     0.319     0.665     1.281
   420   1 h        0.803     0.366     0.552     1.167
   421   8 o        1.609    -0.676    27.072     7.022
   422   1 h        0.804     0.345     0.601     1.218
   423   1 h        0.805     0.326     0.648     1.265
   424   8 o        1.608    -0.679    27.151     7.033
   425   1 h        0.805     0.325     0.650     1.266
   426   1 h        0.803     0.354     0.579     1.195
   427   8 o        1.606    -0.697    27.641     7.096
   428   1 h        0.805     0.328     0.644     1.260
   429   1 h        0.802     0.364     0.556     1.172
   430   8 o        1.603    -0.716    28.146     7.160
   431   1 h        0.802     0.332     0.632     1.249
   432   1 h        0.802     0.364     0.557     1.172
   433   8 o        1.606    -0.699    27.694     7.102
   434   1 h        0.803     0.366     0.553     1.168
   435   1 h        0.803     0.327     0.645     1.262
   436   8 o        1.606    -0.679    27.166     7.034
   437   1 h        0.803     0.349     0.592     1.209
   438   1 h        0.804     0.336     0.622     1.239
   439   8 o        1.607    -0.699    27.676     7.100
   440   1 h        0.804     0.359     0.569     1.184
   441   1 h        0.803     0.358     0.569     1.185
   442   8 o        1.607    -0.684    27.293     7.051
   443   1 h        0.804     0.336     0.622     1.239
   444   1 h        0.803     0.343     0.604     1.221
   445   8 o        1.607    -0.668    26.874     6.997
   446   1 h        0.802     0.350     0.589     1.206
   447   1 h        0.806     0.314     0.679     1.295
   448   8 o        1.607    -0.673    27.011     7.014
   449   1 h        0.803     0.338     0.616     1.233
   450   1 h        0.805     0.337     0.619     1.236
   451   8 o        1.606    -0.721    28.286     7.178
   452   1 h        0.804     0.337     0.620     1.236
   453   1 h        0.803     0.344     0.602     1.219
   454   8 o        1.607    -0.689    27.421     7.067
   455   1 h        0.803     0.350     0.588     1.205
   456   1 h        0.804     0.331     0.636     1.252
   457   8 o        1.608    -0.690    27.451     7.071
   458   1 h        0.804     0.345     0.601     1.218
   459   1 h        0.804     0.329     0.640     1.256
   460   8 o        1.604    -0.710    27.985     7.140
   461   1 h        0.801     0.363     0.559     1.175
   462   1 h        0.803     0.332     0.632     1.249
   463   8 o        1.609    -0.660    26.679     6.971
   464   1 h        0.804     0.339     0.614     1.231
   465   1 h        0.805     0.334     0.626     1.243
   466   8 o        1.608    -0.692    27.501     7.078
   467   1 h        0.804     0.333     0.629     1.246
   468   1 h        0.803     0.337     0.619     1.236
   469   8 o        1.609    -0.684    27.300     7.052
   470   1 h        0.804     0.339     0.614     1.231
   471   1 h        0.805     0.348     0.594     1.210
   472   8 o        1.608    -0.686    27.341     7.057
   473   1 h        0.805     0.326     0.647     1.263
   474   1 h        0.803     0.352     0.584     1.201
   475   8 o        1.610    -0.657    26.600     6.961
   476   1 h        0.804     0.334     0.627     1.244
   477   1 h        0.805     0.315     0.678     1.294
   478   8 o        1.610    -0.627    25.851     6.862
   479   1 h        0.806     0.314     0.680     1.295
   480   1 h        0.804     0.338     0.617     1.234
   481   8 o        1.607    -0.684    27.291     7.051
   482   1 h        0.804     0.355     0.576     1.192
   483   1 h        0.804     0.348     0.593     1.210
   484   8 o        1.607    -0.662    26.719     6.976
   485   1 h        0.803     0.342     0.607     1.224
   486   1 h        0.805     0.334     0.627     1.243
   487   8 o        1.606    -0.701    27.750     7.110
   488   1 h        0.804     0.331     0.636     1.253
   489   1 h        0.803     0.352     0.585     1.201
   490   8 o        1.609    -0.675    27.064     7.021
   491   1 h        0.804     0.345     0.600     1.217
   492   1 h        0.805     0.330     0.637     1.253
   493   8 o        1.607    -0.695    27.572     7.087
   494   1 h        0.804     0.338     0.618     1.235
   495   1 h        0.803     0.349     0.591     1.208
   496   8 o        1.609    -0.653    26.489     6.946
   497   1 h        0.805     0.349     0.590     1.206
   498   1 h        0.803     0.329     0.641     1.258
   499   8 o        1.607    -0.700    27.718     7.106
   500   1 h        0.804     0.327     0.645     1.262
   501   1 h        0.803     0.344     0.603     1.220
   502   8 o        1.612    -0.695    27.584     7.089
   503   1 h        0.803     0.350     0.588     1.204
   504   1 h        0.803     0.341     0.610     1.227
   505   8 o        1.607    -0.700    27.713     7.105
   506   1 h        0.803     0.340     0.613     1.230
   507   1 h        0.803     0.363     0.559     1.174
   508   8 o        1.607    -0.682    27.248     7.045
   509   1 h        0.805     0.316     0.674     1.289
   510   1 h        0.802     0.367     0.550     1.165
   511   8 o        1.609    -0.687    27.366     7.060
   512   1 h        0.803     0.348     0.593     1.210
   513   1 h        0.802     0.364     0.557     1.173
   514   8 o        1.608    -0.645    26.281     6.919
   515   1 h        0.803     0.336     0.623     1.240
   516   1 h        0.805     0.322     0.658     1.274
   517   8 o        1.605    -0.696    27.618     7.093
   518   1 h        0.803     0.362     0.560     1.176
   519   1 h        0.803     0.332     0.632     1.249
   520   8 o        1.610    -0.656    26.565     6.956
   521   1 h        0.805     0.337     0.620     1.236
   522   1 h        0.805     0.338     0.617     1.234
   523   8 o        1.608    -0.685    27.326     7.055
   524   1 h        0.803     0.340     0.614     1.230
   525   1 h        0.805     0.327     0.645     1.261
   526   8 o        1.608    -0.665    26.789     6.986
   527   1 h        0.802     0.342     0.608     1.225
   528   1 h        0.806     0.314     0.680     1.296
   529   8 o        1.609    -0.673    27.013     7.015
   530   1 h        0.805     0.326     0.646     1.263
   531   1 h        0.804     0.362     0.561     1.176
   532   8 o        1.605    -0.685    27.319     7.054
   533   1 h        0.803     0.332     0.633     1.250
   534   1 h        0.802     0.335     0.624     1.241
   535   8 o        1.608    -0.681    27.221     7.042
   536   1 h        0.803     0.365     0.555     1.170
   537   1 h        0.805     0.314     0.681     1.297
   538   8 o        1.607    -0.678    27.137     7.031
   539   1 h        0.803     0.330     0.638     1.255
   540   1 h        0.804     0.333     0.631     1.248
   541   8 o        1.606    -0.687    27.376     7.062
   542   1 h        0.804     0.340     0.613     1.230
   543   1 h        0.802     0.331     0.635     1.252
   544   8 o        1.607    -0.692    27.489     7.076
   545   1 h        0.803     0.342     0.607     1.224
   546   1 h        0.805     0.332     0.632     1.249
   547   8 o        1.606    -0.691    27.486     7.076
   548   1 h        0.802     0.349     0.590     1.206
   549   1 h        0.804     0.329     0.639     1.256
   550   8 o        1.607    -0.683    27.260     7.047
   551   1 h        0.805     0.312     0.686     1.301
   552   1 h        0.801     0.362     0.561     1.177
   553   8 o        1.610    -0.643    26.250     6.915
   554   1 h        0.805     0.316     0.674     1.289
   555   1 h        0.805     0.337     0.621     1.237
   556   8 o        1.608    -0.681    27.216     7.041
   557   1 h        0.804     0.325     0.649     1.266
   558   1 h        0.804     0.335     0.624     1.241
   559   8 o        1.608    -0.669    26.888     6.998
   560   1 h        0.803     0.371     0.541     1.155
   561   1 h        0.805     0.319     0.666     1.282
   562   8 o        1.607    -0.686    27.345     7.058
   563   1 h        0.805     0.330     0.637     1.253
   564   1 h        0.802     0.362     0.560     1.176
   565   8 o        1.607    -0.719    28.223     7.170
   566   1 h        0.804     0.343     0.606     1.222
   567   1 h        0.803     0.345     0.601     1.218
   568   8 o        1.609    -0.676    27.088     7.024
   569   1 h        0.805     0.321     0.662     1.278
   570   1 h        0.804     0.335     0.625     1.242
   571   8 o        1.607    -0.680    27.174     7.035
   572   1 h        0.802     0.355     0.577     1.193
   573   1 h        0.805     0.325     0.652     1.268
   574   8 o        1.606    -0.671    26.953     7.007
   575   1 h        0.803     0.326     0.649     1.265
   576   1 h        0.803     0.346     0.598     1.215
   577   8 o        1.605    -0.712    28.047     7.148
   578   1 h        0.803     0.365     0.555     1.170
   579   1 h        0.803     0.353     0.582     1.198
   580   8 o        1.609    -0.670    26.932     7.004
   581   1 h        0.805     0.324     0.653     1.269
   582   1 h        0.803     0.345     0.600     1.217
   583   8 o        1.608    -0.665    26.796     6.986
   584   1 h        0.804     0.351     0.587     1.203
   585   1 h        0.804     0.332     0.632     1.249
   586   8 o        1.609    -0.674    27.026     7.016
   587   1 h        0.804     0.345     0.600     1.216
   588   1 h        0.805     0.331     0.634     1.251
   589   8 o        1.607    -0.667    26.836     6.992
   590   1 h        0.805     0.323     0.656     1.273
   591   1 h        0.802     0.349     0.590     1.206
   592   8 o        1.609    -0.655    26.544     6.954
   593   1 h        0.804     0.329     0.640     1.257
   594   1 h        0.805     0.312     0.685     1.300
   595   8 o        1.608    -0.673    26.999     7.013
   596   1 h        0.804     0.338     0.618     1.235
   597   1 h        0.804     0.339     0.614     1.231
   598   8 o        1.610    -0.662    26.715     6.976
   599   1 h        0.805     0.327     0.644     1.261
   600   1 h        0.805     0.333     0.629     1.246
   601   8 o        1.607    -0.680    27.192     7.038
   602   1 h        0.803     0.332     0.633     1.250
   603   1 h        0.804     0.342     0.607     1.224
   604   8 o        1.607    -0.685    27.304     7.052
   605   1 h        0.803     0.327     0.645     1.261
   606   1 h        0.803     0.361     0.564     1.180
   607   8 o        1.607    -0.673    27.010     7.014
   608   1 h        0.803     0.346     0.597     1.214
   609   1 h        0.804     0.330     0.637     1.254
   610   8 o        1.609    -0.661    26.705     6.975
   611   1 h        0.805     0.324     0.652     1.268
   612   1 h        0.804     0.358     0.569     1.185
   613   8 o        1.608    -0.669    26.899     7.000
   614   1 h        0.806     0.321     0.662     1.278
   615   1 h        0.803     0.338     0.617     1.234
   616   8 o        1.609    -0.687    27.358     7.059
   617   1 h        0.803     0.347     0.596     1.213
   618   1 h        0.805     0.331     0.636     1.252
   619   8 o        1.608    -0.679    27.165     7.034
   620   1 h        0.804     0.331     0.634     1.251
   621   1 h        0.804     0.362     0.561     1.176
   622   8 o        1.608    -0.668    26.886     6.998
   623   1 h        0.803     0.349     0.592     1.209
   624   1 h        0.806     0.320     0.663     1.279
   625   8 o        1.608    -0.689    27.421     7.067
   626   1 h        0.803     0.346     0.599     1.215
   627   1 h        0.804     0.334     0.626     1.243
   628   8 o        1.607    -0.697    27.620     7.093
   629   1 h        0.802     0.358     0.570     1.186
   630   1 h        0.804     0.323     0.657     1.273
   631   8 o        1.610    -0.652    26.465     6.943
   632   1 h        0.805     0.335     0.624     1.241
   633   1 h        0.805     0.327     0.644     1.261
   634   8 o        1.608    -0.676    27.081     7.023
   635   1 h        0.803     0.339     0.615     1.232
   636   1 h        0.805     0.358     0.569     1.185
   637   8 o        1.607    -0.698    27.655     7.098
   638   1 h        0.805     0.324     0.653     1.269
   639   1 h        0.803     0.347     0.595     1.211
   640   8 o        1.607    -0.685    27.321     7.055
   641   1 h        0.804     0.320     0.663     1.279
   642   1 h        0.804     0.358     0.570     1.186
   643   8 o        1.609    -0.685    27.315     7.054
   644   1 h        0.804     0.329     0.640     1.257
   645   1 h        0.804     0.354     0.579     1.195
   646   8 o        1.608    -0.697    27.629     7.094
   647   1 h        0.805     0.324     0.653     1.269
   648   1 h        0.803     0.368     0.549     1.164
   649   8 o        1.609    -0.661    26.691     6.973
   650   1 h        0.805     0.338     0.616     1.233
   651   1 h        0.805     0.333     0.629     1.245
   652   8 o        1.609    -0.640    26.169     6.904
   653   1 h        0.804     0.344     0.602     1.219
   654   1 h        0.805     0.330     0.637     1.254
   655   8 o        1.609    -0.660    26.676     6.971
   656   1 h        0.806     0.302     0.715     1.328
   657   1 h        0.803     0.349     0.592     1.208
   658   8 o        1.607    -0.681    27.218     7.041
   659   1 h        0.803     0.340     0.613     1.230
   660   1 h        0.804     0.334     0.628     1.245
   661   8 o        1.610    -0.654    26.525     6.951
   662   1 h        0.805     0.320     0.665     1.281
   663   1 h        0.804     0.345     0.599     1.216
   664   8 o        1.608    -0.681    27.204     7.039
   665   1 h        0.804     0.324     0.654     1.271
   666   1 h        0.804     0.348     0.593     1.210
   667   8 o        1.607    -0.687    27.359     7.059
   668   1 h        0.803     0.360     0.566     1.182
   669   1 h        0.804     0.345     0.601     1.218
   670   8 o        1.610    -0.640    26.162     6.903
   671   1 h        0.806     0.301     0.719     1.332
   672   1 h        0.804     0.331     0.636     1.253
   673   8 o        1.607    -0.682    27.229     7.043
   674   1 h        0.805     0.331     0.636     1.252
   675   1 h        0.803     0.344     0.602     1.219
   676   8 o        1.600    -0.710    27.985     7.140
   677   1 h        0.804     0.321     0.661     1.277
   678   1 h        0.806     0.366     0.551     1.166
   679   8 o        1.607    -0.686    27.339     7.057
   680   1 h        0.802     0.362     0.562     1.178
   681   1 h        0.804     0.351     0.585     1.202
   682   8 o        1.609    -0.688    27.389     7.063
   683   1 h        0.804     0.348     0.592     1.208
   684   1 h        0.805     0.339     0.616     1.233
   685   8 o        1.609    -0.664    26.782     6.985
   686   1 h        0.805     0.343     0.605     1.222
   687   1 h        0.804     0.334     0.627     1.243
   688   8 o        1.608    -0.672    26.976     7.010
   689   1 h        0.804     0.332     0.633     1.250
   690   1 h        0.804     0.344     0.603     1.219
   691   8 o        1.608    -0.683    27.265     7.047
   692   1 h        0.804     0.332     0.632     1.249
   693   1 h        0.804     0.335     0.625     1.242
   694   8 o        1.607    -0.662    26.724     6.977
   695   1 h        0.803     0.340     0.611     1.228
   696   1 h        0.803     0.340     0.613     1.230
   697   8 o        1.610    -0.646    26.321     6.924
   698   1 h        0.804     0.328     0.642     1.258
   699   1 h        0.805     0.321     0.662     1.278
   700   8 o        1.608    -0.675    27.065     7.021
   701   1 h        0.804     0.335     0.624     1.241
   702   1 h        0.804     0.346     0.597     1.214
   703   8 o        1.606    -0.701    27.744     7.109
   704   1 h        0.804     0.346     0.598     1.215
   705   1 h        0.802     0.356     0.575     1.191
   706   8 o        1.609    -0.677    27.102     7.026
   707   1 h        0.805     0.325     0.650     1.266
   708   1 h        0.804     0.346     0.597     1.213
   709   8 o        1.607    -0.682    27.238     7.044
   710   1 h        0.803     0.360     0.565     1.181
   711   1 h        0.804     0.327     0.645     1.262
   712   8 o        1.609    -0.680    27.188     7.037
   713   1 h        0.805     0.333     0.629     1.246
   714   1 h        0.804     0.357     0.572     1.189
   715   8 o        1.607    -0.701    27.733     7.108
   716   1 h        0.803     0.351     0.587     1.203
   717   1 h        0.803     0.348     0.592     1.209
   718   8 o        1.606    -0.697    27.622     7.093
   719   1 h        0.805     0.317     0.671     1.287
   720   1 h        0.802     0.369     0.547     1.162
   721   8 o        1.607    -0.641    26.201     6.908
   722   1 h        0.803     0.333     0.629     1.246
   723   1 h        0.805     0.327     0.645     1.262
   724   8 o        1.608    -0.668    26.875     6.997
   725   1 h        0.805     0.348     0.593     1.209
   726   1 h        0.803     0.322     0.658     1.274
   727   8 o        1.606    -0.688    27.388     7.063
   728   1 h        0.802     0.327     0.646     1.262
   729   1 h        0.804     0.335     0.625     1.242
   730   8 o        1.608    -0.695    27.592     7.089
   731   1 h        0.803     0.358     0.570     1.186
   732   1 h        0.805     0.323     0.656     1.272
   733   8 o        1.609    -0.687    27.376     7.062
   734   1 h        0.804     0.335     0.625     1.242
   735   1 h        0.805     0.330     0.637     1.254
   736   8 o        1.608    -0.676    27.079     7.023
   737   1 h        0.803     0.340     0.613     1.230
   738   1 h        0.805     0.338     0.617     1.234
   739   8 o        1.607    -0.684    27.298     7.051
   740   1 h        0.804     0.320     0.664     1.280
   741   1 h        0.803     0.353     0.581     1.197
   742   8 o        1.607    -0.685    27.327     7.055
   743   1 h        0.805     0.316     0.676     1.291
   744   1 h        0.802     0.359     0.568     1.184
   745   8 o        1.609    -0.679    27.164     7.034
   746   1 h        0.804     0.347     0.595     1.212
   747   1 h        0.805     0.332     0.632     1.248
   748   8 o        1.607    -0.670    26.917     7.002
   749   1 h        0.803     0.332     0.632     1.249
   750   1 h        0.803     0.330     0.637     1.254
   751   8 o        1.608    -0.676    27.070     7.022
   752   1 h        0.805     0.328     0.643     1.259
   753   1 h        0.803     0.343     0.604     1.221
   754   8 o        1.610    -0.643    26.228     6.912
   755   1 h        0.805     0.341     0.610     1.227
   756   1 h        0.805     0.327     0.646     1.263

 Mol. C6AA /au·bohr⁶  :    2900828.801925
 Mol. C8AA /au·bohr⁸  :   52643670.860965
 Mol. α(0) /au        :       2393.507595


Wiberg/Mayer (AO) data.
largest (>0.10) Wiberg bond orders for each atom

 ---------------------------------------------------------------------------
     #   Z sym  total        # sym  WBO       # sym  WBO       # sym  WBO
 ---------------------------------------------------------------------------
     1   8 o    1.801 --     2 h    0.872     3 h    0.802
     2   1 h    0.896 --     1 o    0.872
     3   1 h    0.876 --     1 o    0.802
     4   8 o    1.833 --     6 h    0.851     5 h    0.809
     5   1 h    0.876 --     4 o    0.809
     6   1 h    0.891 --     4 o    0.851
     7   8 o    1.829 --     8 h    0.833     9 h    0.829
     8   1 h    0.885 --     7 o    0.833
     9   1 h    0.887 --     7 o    0.829
    10   8 o    1.822 --    12 h    0.853    11 h    0.826
    11   1 h    0.885 --    10 o    0.826
    12   1 h    0.888 --    10 o    0.853
    13   8 o    1.859 --    15 h    0.844    14 h    0.798
    14   1 h    0.877 --    13 o    0.798
    15   1 h    0.882 --    13 o    0.844
    16   8 o    1.868 --    18 h    0.814    17 h    0.790
    17   1 h    0.870 --    16 o    0.790
    18   1 h    0.890 --    16 o    0.814
    19   8 o    1.858 --    20 h    0.843    21 h    0.793
    20   1 h    0.882 --    19 o    0.843
    21   1 h    0.862 --    19 o    0.793
    22   8 o    1.857 --    24 h    0.821    23 h    0.805
    23   1 h    0.872 --    22 o    0.805
    24   1 h    0.879 --    22 o    0.821
    25   8 o    1.897 --    26 h    0.807    27 h    0.799
    26   1 h    0.868 --    25 o    0.807
    27   1 h    0.877 --    25 o    0.799
    28   8 o    1.847 --    29 h    0.816    30 h    0.801
    29   1 h    0.881 --    28 o    0.816
    30   1 h    0.883 --    28 o    0.801
    31   8 o    1.872 --    33 h    0.835    32 h    0.820
    32   1 h    0.876 --    31 o    0.820
    33   1 h    0.883 --    31 o    0.835
    34   8 o    1.860 --    35 h    0.843    36 h    0.796
    35   1 h    0.883 --    34 o    0.843
    36   1 h    0.871 --    34 o    0.796
    37   8 o    1.858 --    38 h    0.827    39 h    0.778
    38   1 h    0.886 --    37 o    0.827
    39   1 h    0.864 --    37 o    0.778
    40   8 o    1.842 --    41 h    0.826    42 h    0.824
    41   1 h    0.880 --    40 o    0.826
    42   1 h    0.881 --    40 o    0.824
    43   8 o    1.855 --    45 h    0.836    44 h    0.793
    44   1 h    0.866 --    43 o    0.793
    45   1 h    0.886 --    43 o    0.836
    46   8 o    1.852 --    47 h    0.833    48 h    0.800
    47   1 h    0.890 --    46 o    0.833
    48   1 h    0.877 --    46 o    0.800
    49   8 o    1.863 --    51 h    0.834    50 h    0.789
    50   1 h    0.871 --    49 o    0.789
    51   1 h    0.887 --    49 o    0.834
    52   8 o    1.846 --    54 h    0.832    53 h    0.823
    53   1 h    0.875 --    52 o    0.823
    54   1 h    0.879 --    52 o    0.832
    55   8 o    1.863 --    57 h    0.803    56 h    0.796
    56   1 h    0.877 --    55 o    0.796
    57   1 h    0.875 --    55 o    0.803
    58   8 o    1.840 --    59 h    0.862    60 h    0.788
    59   1 h    0.886 --    58 o    0.862
    60   1 h    0.873 --    58 o    0.788
    61   8 o    1.859 --    62 h    0.846    63 h    0.844
    62   1 h    0.882 --    61 o    0.846
    63   1 h    0.882 --    61 o    0.844
    64   8 o    1.868 --    65 h    0.828    66 h    0.808
    65   1 h    0.891 --    64 o    0.828
    66   1 h    0.872 --    64 o    0.808
    67   8 o    1.852 --    69 h    0.828    68 h    0.801
    68   1 h    0.870 --    67 o    0.801
    69   1 h    0.877 --    67 o    0.828
    70   8 o    1.852 --    71 h    0.824    72 h    0.819
    71   1 h    0.885 --    70 o    0.824
    72   1 h    0.876 --    70 o    0.819
    73   8 o    1.848 --    74 h    0.834    75 h    0.796
    74   1 h    0.881 --    73 o    0.834
    75   1 h    0.871 --    73 o    0.796
    76   8 o    1.820 --    77 h    0.831    78 h    0.827
    77   1 h    0.881 --    76 o    0.831
    78   1 h    0.885 --    76 o    0.827
    79   8 o    1.842 --    80 h    0.852    81 h    0.819
    80   1 h    0.890 --    79 o    0.852
    81   1 h    0.888 --    79 o    0.819
    82   8 o    1.824 --    84 h    0.834    83 h    0.792
    83   1 h    0.868 --    82 o    0.792
    84   1 h    0.895 --    82 o    0.834
    85   8 o    1.840 --    87 h    0.821    86 h    0.783
    86   1 h    0.876 --    85 o    0.783
    87   1 h    0.893 --    85 o    0.821
    88   8 o    1.850 --    89 h    0.825    90 h    0.816
    89   1 h    0.879 --    88 o    0.825
    90   1 h    0.879 --    88 o    0.816
    91   8 o    1.804 --    93 h    0.844    92 h    0.828
    92   1 h    0.874 --    91 o    0.828
    93   1 h    0.893 --    91 o    0.844
    94   8 o    1.858 --    96 h    0.835    95 h    0.818
    95   1 h    0.874 --    94 o    0.818
    96   1 h    0.896 --    94 o    0.835
    97   8 o    1.862 --    99 h    0.825    98 h    0.824
    98   1 h    0.871 --    97 o    0.824
    99   1 h    0.882 --    97 o    0.825
   100   8 o    1.871 --   101 h    0.838   102 h    0.828
   101   1 h    0.896 --   100 o    0.838
   102   1 h    0.877 --   100 o    0.828
   103   8 o    1.845 --   105 h    0.804   104 h    0.793
   104   1 h    0.870 --   103 o    0.793
   105   1 h    0.886 --   103 o    0.804
   106   8 o    1.870 --   108 h    0.829   107 h    0.810
   107   1 h    0.878 --   106 o    0.810
   108   1 h    0.889 --   106 o    0.829
   109   8 o    1.878 --   111 h    0.841   110 h    0.834
   110   1 h    0.888 --   109 o    0.834
   111   1 h    0.886 --   109 o    0.841
   112   8 o    1.836 --   113 h    0.847   114 h    0.838
   113   1 h    0.888 --   112 o    0.847
   114   1 h    0.881 --   112 o    0.838
   115   8 o    1.822 --   116 h    0.847   117 h    0.835
   116   1 h    0.886 --   115 o    0.847
   117   1 h    0.885 --   115 o    0.835
   118   8 o    1.853 --   119 h    0.814   120 h    0.804
   119   1 h    0.885 --   118 o    0.814
   120   1 h    0.875 --   118 o    0.804
   121   8 o    1.820 --   122 h    0.887   123 h    0.818
   122   1 h    0.900 --   121 o    0.887
   123   1 h    0.878 --   121 o    0.818
   124   8 o    1.867 --   125 h    0.844   126 h    0.825
   125   1 h    0.885 --   124 o    0.844
   126   1 h    0.891 --   124 o    0.825
   127   8 o    1.863 --   129 h    0.843   128 h    0.836
   128   1 h    0.885 --   127 o    0.836
   129   1 h    0.880 --   127 o    0.843
   130   8 o    1.859 --   132 h    0.892   131 h    0.803
   131   1 h    0.877 --   130 o    0.803
   132   1 h    0.904 --   130 o    0.892
   133   8 o    1.856 --   134 h    0.828   135 h    0.810
   134   1 h    0.890 --   133 o    0.828
   135   1 h    0.879 --   133 o    0.810
   136   8 o    1.887 --   138 h    0.833   137 h    0.806   678 h    0.119
   137   1 h    0.876 --   136 o    0.806
   138   1 h    0.894 --   136 o    0.833
   139   8 o    1.849 --   141 h    0.821   140 h    0.804
   140   1 h    0.874 --   139 o    0.804
   141   1 h    0.881 --   139 o    0.821
   142   8 o    1.868 --   143 h    0.835   144 h    0.808
   143   1 h    0.894 --   142 o    0.835
   144   1 h    0.877 --   142 o    0.808
   145   8 o    1.843 --   147 h    0.840   146 h    0.836
   146   1 h    0.887 --   145 o    0.836
   147   1 h    0.894 --   145 o    0.840
   148   8 o    1.834 --   149 h    0.832   150 h    0.796
   149   1 h    0.890 --   148 o    0.832
   150   1 h    0.871 --   148 o    0.796
   151   8 o    1.838 --   152 h    0.854   153 h    0.807
   152   1 h    0.900 --   151 o    0.854
   153   1 h    0.877 --   151 o    0.807
   154   8 o    1.860 --   156 h    0.833   155 h    0.832
   155   1 h    0.882 --   154 o    0.832
   156   1 h    0.888 --   154 o    0.833
   157   8 o    1.843 --   158 h    0.860   159 h    0.824
   158   1 h    0.889 --   157 o    0.860
   159   1 h    0.883 --   157 o    0.824
   160   8 o    1.854 --   162 h    0.886   161 h    0.787
   161   1 h    0.869 --   160 o    0.787
   162   1 h    0.904 --   160 o    0.886
   163   8 o    1.858 --   164 h    0.897   165 h    0.768
   164   1 h    0.905 --   163 o    0.897
   165   1 h    0.861 --   163 o    0.768
   166   8 o    1.889 --   167 h    0.832   168 h    0.793
   167   1 h    0.881 --   166 o    0.832
   168   1 h    0.866 --   166 o    0.793
   169   8 o    1.856 --   170 h    0.829   171 h    0.817
   170   1 h    0.890 --   169 o    0.829
   171   1 h    0.862 --   169 o    0.817
   172   8 o    1.850 --   174 h    0.821   173 h    0.809
   173   1 h    0.877 --   172 o    0.809
   174   1 h    0.877 --   172 o    0.821
   175   8 o    1.841 --   177 h    0.838   176 h    0.810
   176   1 h    0.871 --   175 o    0.810
   177   1 h    0.882 --   175 o    0.838
   178   8 o    1.832 --   179 h    0.877   180 h    0.849
   179   1 h    0.894 --   178 o    0.877
   180   1 h    0.886 --   178 o    0.849
   181   8 o    1.833 --   182 h    0.851   183 h    0.810
   182   1 h    0.890 --   181 o    0.851
   183   1 h    0.873 --   181 o    0.810
   184   8 o    1.873 --   186 h    0.832   185 h    0.794
   185   1 h    0.869 --   184 o    0.794
   186   1 h    0.877 --   184 o    0.832
   187   8 o    1.809 --   188 h    0.877   189 h    0.824
   188   1 h    0.900 --   187 o    0.877
   189   1 h    0.882 --   187 o    0.824
   190   8 o    1.846 --   192 h    0.833   191 h    0.790
   191   1 h    0.874 --   190 o    0.790
   192   1 h    0.889 --   190 o    0.833
   193   8 o    1.831 --   195 h    0.818   194 h    0.803
   194   1 h    0.874 --   193 o    0.803
   195   1 h    0.889 --   193 o    0.818
   196   8 o    1.860 --   197 h    0.853   198 h    0.821
   197   1 h    0.896 --   196 o    0.853
   198   1 h    0.882 --   196 o    0.821
   199   8 o    1.868 --   201 h    0.800   200 h    0.785
   200   1 h    0.879 --   199 o    0.785
   201   1 h    0.875 --   199 o    0.800
   202   8 o    1.821 --   203 h    0.852   204 h    0.818
   203   1 h    0.892 --   202 o    0.852
   204   1 h    0.875 --   202 o    0.818
   205   8 o    1.835 --   207 h    0.864   206 h    0.827
   206   1 h    0.885 --   205 o    0.827
   207   1 h    0.902 --   205 o    0.864
   208   8 o    1.819 --   209 h    0.867   210 h    0.788
   209   1 h    0.894 --   208 o    0.867
   210   1 h    0.866 --   208 o    0.788
   211   8 o    1.897 --   213 h    0.831   212 h    0.805
   212   1 h    0.887 --   211 o    0.805
   213   1 h    0.891 --   211 o    0.831
   214   8 o    1.773 --   215 h    0.822   216 h    0.813
   215   1 h    0.891 --   214 o    0.822
   216   1 h    0.883 --   214 o    0.813
   217   8 o    1.878 --   218 h    0.850   219 h    0.805
   218   1 h    0.880 --   217 o    0.850
   219   1 h    0.871 --   217 o    0.805
   220   8 o    1.847 --   221 h    0.837   222 h    0.835
   221   1 h    0.872 --   220 o    0.837
   222   1 h    0.894 --   220 o    0.835
   223   8 o    1.814 --   224 h    0.850   225 h    0.836
   224   1 h    0.897 --   223 o    0.850
   225   1 h    0.887 --   223 o    0.836
   226   8 o    1.865 --   228 h    0.806   227 h    0.797
   227   1 h    0.876 --   226 o    0.797
   228   1 h    0.870 --   226 o    0.806
   229   8 o    1.837 --   231 h    0.858   230 h    0.815
   230   1 h    0.880 --   229 o    0.815
   231   1 h    0.903 --   229 o    0.858
   232   8 o    1.857 --   233 h    0.849   234 h    0.830
   233   1 h    0.892 --   232 o    0.849
   234   1 h    0.892 --   232 o    0.830
   235   8 o    1.893 --   237 h    0.829   236 h    0.822
   236   1 h    0.874 --   235 o    0.822
   237   1 h    0.892 --   235 o    0.829
   238   8 o    1.824 --   240 h    0.846   239 h    0.824
   239   1 h    0.884 --   238 o    0.824
   240   1 h    0.892 --   238 o    0.846
   241   8 o    1.842 --   243 h    0.887   242 h    0.737
   242   1 h    0.860 --   241 o    0.737   511 o    0.114
   243   1 h    0.902 --   241 o    0.887
   244   8 o    1.885 --   246 h    0.897   245 h    0.782
   245   1 h    0.879 --   244 o    0.782
   246   1 h    0.902 --   244 o    0.897
   247   8 o    1.875 --   249 h    0.785   248 h    0.784
   248   1 h    0.875 --   247 o    0.784
   249   1 h    0.875 --   247 o    0.785
   250   8 o    1.803 --   252 h    0.846   251 h    0.830
   251   1 h    0.887 --   250 o    0.830
   252   1 h    0.892 --   250 o    0.846
   253   8 o    1.865 --   255 h    0.809   254 h    0.793
   254   1 h    0.864 --   253 o    0.793
   255   1 h    0.875 --   253 o    0.809
   256   8 o    1.863 --   258 h    0.847   257 h    0.806
   257   1 h    0.887 --   256 o    0.806
   258   1 h    0.874 --   256 o    0.847
   259   8 o    1.835 --   260 h    0.845   261 h    0.783
   260   1 h    0.895 --   259 o    0.845
   261   1 h    0.874 --   259 o    0.783
   262   8 o    1.848 --   263 h    0.836   264 h    0.814
   263   1 h    0.891 --   262 o    0.836
   264   1 h    0.869 --   262 o    0.814
   265   8 o    1.831 --   267 h    0.853   266 h    0.788
   266   1 h    0.872 --   265 o    0.788
   267   1 h    0.893 --   265 o    0.853
   268   8 o    1.863 --   270 h    0.833   269 h    0.816
   269   1 h    0.888 --   268 o    0.816
   270   1 h    0.891 --   268 o    0.833
   271   8 o    1.868 --   273 h    0.840   272 h    0.810
   272   1 h    0.870 --   271 o    0.810
   273   1 h    0.886 --   271 o    0.840
   274   8 o    1.875 --   276 h    0.812   275 h    0.811
   275   1 h    0.883 --   274 o    0.811
   276   1 h    0.867 --   274 o    0.812
   277   8 o    1.835 --   278 h    0.825   279 h    0.805
   278   1 h    0.885 --   277 o    0.825
   279   1 h    0.875 --   277 o    0.805
   280   8 o    1.824 --   282 h    0.854   281 h    0.822
   281   1 h    0.877 --   280 o    0.822
   282   1 h    0.900 --   280 o    0.854
   283   8 o    1.883 --   284 h    0.827   285 h    0.803
   284   1 h    0.892 --   283 o    0.827
   285   1 h    0.875 --   283 o    0.803
   286   8 o    1.832 --   287 h    0.811   288 h    0.808
   287   1 h    0.883 --   286 o    0.811
   288   1 h    0.876 --   286 o    0.808
   289   8 o    1.792 --   290 h    0.862   291 h    0.778
   290   1 h    0.902 --   289 o    0.862
   291   1 h    0.873 --   289 o    0.778
   292   8 o    1.818 --   293 h    0.882   294 h    0.856
   293   1 h    0.894 --   292 o    0.882
   294   1 h    0.887 --   292 o    0.856
   295   8 o    1.883 --   296 h    0.829   297 h    0.789
   296   1 h    0.883 --   295 o    0.829
   297   1 h    0.868 --   295 o    0.789
   298   8 o    1.875 --   299 h    0.829   300 h    0.824
   299   1 h    0.879 --   298 o    0.829
   300   1 h    0.874 --   298 o    0.824
   301   8 o    1.861 --   302 h    0.809   303 h    0.804
   302   1 h    0.884 --   301 o    0.809
   303   1 h    0.881 --   301 o    0.804
   304   8 o    1.855 --   306 h    0.871   305 h    0.797
   305   1 h    0.883 --   304 o    0.797
   306   1 h    0.894 --   304 o    0.871
   307   8 o    1.873 --   308 h    0.824   309 h    0.791
   308   1 h    0.885 --   307 o    0.824
   309   1 h    0.870 --   307 o    0.791
   310   8 o    1.817 --   311 h    0.866   312 h    0.810
   311   1 h    0.894 --   310 o    0.866
   312   1 h    0.880 --   310 o    0.810
   313   8 o    1.825 --   315 h    0.890   314 h    0.793
   314   1 h    0.875 --   313 o    0.793
   315   1 h    0.903 --   313 o    0.890
   316   8 o    1.825 --   317 h    0.872   318 h    0.812
   317   1 h    0.895 --   316 o    0.872
   318   1 h    0.874 --   316 o    0.812
   319   8 o    1.856 --   321 h    0.847   320 h    0.819
   320   1 h    0.877 --   319 o    0.819
   321   1 h    0.885 --   319 o    0.847
   322   8 o    1.861 --   323 h    0.829   324 h    0.794
   323   1 h    0.884 --   322 o    0.829
   324   1 h    0.868 --   322 o    0.794
   325   8 o    1.852 --   327 h    0.797   326 h    0.775
   326   1 h    0.866 --   325 o    0.775
   327   1 h    0.888 --   325 o    0.797
   328   8 o    1.820 --   329 h    0.897   330 h    0.755
   329   1 h    0.905 --   328 o    0.897
   330   1 h    0.879 --   328 o    0.755   502 o    0.115
   331   8 o    1.789 --   332 h    0.885   333 h    0.805
   332   1 h    0.898 --   331 o    0.885
   333   1 h    0.875 --   331 o    0.805
   334   8 o    1.835 --   335 h    0.859   336 h    0.851
   335   1 h    0.892 --   334 o    0.859
   336   1 h    0.884 --   334 o    0.851
   337   8 o    1.853 --   338 h    0.832   339 h    0.804
   338   1 h    0.893 --   337 o    0.832
   339   1 h    0.874 --   337 o    0.804
   340   8 o    1.847 --   341 h    0.872   342 h    0.820
   341   1 h    0.899 --   340 o    0.872
   342   1 h    0.891 --   340 o    0.820
   343   8 o    1.860 --   344 h    0.818   345 h    0.810
   344   1 h    0.873 --   343 o    0.818
   345   1 h    0.872 --   343 o    0.810
   346   8 o    1.871 --   348 h    0.834   347 h    0.823
   347   1 h    0.889 --   346 o    0.823
   348   1 h    0.879 --   346 o    0.834
   349   8 o    1.835 --   351 h    0.831   350 h    0.828
   350   1 h    0.888 --   349 o    0.828
   351   1 h    0.883 --   349 o    0.831
   352   8 o    1.868 --   354 h    0.825   353 h    0.786
   353   1 h    0.874 --   352 o    0.786
   354   1 h    0.894 --   352 o    0.825
   355   8 o    1.860 --   356 h    0.837   357 h    0.773
   356   1 h    0.885 --   355 o    0.837
   357   1 h    0.866 --   355 o    0.773
   358   8 o    1.906 --   359 h    0.822   360 h    0.815
   359   1 h    0.891 --   358 o    0.822
   360   1 h    0.877 --   358 o    0.815
   361   8 o    1.854 --   362 h    0.839   363 h    0.829
   362   1 h    0.884 --   361 o    0.839
   363   1 h    0.885 --   361 o    0.829
[...]
   370   8 o    1.813 --   371 h    0.872   372 h    0.846
   371   1 h    0.892 --   370 o    0.872
   372   1 h    0.887 --   370 o    0.846
   373   8 o    1.807 --   374 h    0.895   375 h    0.802
   374   1 h    0.905 --   373 o    0.895
   375   1 h    0.875 --   373 o    0.802
   376   8 o    1.884 --   377 h    0.853   378 h    0.845
   377   1 h    0.893 --   376 o    0.853
   378   1 h    0.881 --   376 o    0.845
   379   8 o    1.787 --   381 h    0.821   380 h    0.820
   380   1 h    0.889 --   379 o    0.820
   381   1 h    0.891 --   379 o    0.821
   382   8 o    1.797 --   383 h    0.854   384 h    0.792
   383   1 h    0.893 --   382 o    0.854
   384   1 h    0.876 --   382 o    0.792
   385   8 o    1.844 --   387 h    0.866   386 h    0.830
   386   1 h    0.875 --   385 o    0.830
   387   1 h    0.893 --   385 o    0.866
   388   8 o    1.819 --   389 h    0.856   390 h    0.840
   389   1 h    0.889 --   388 o    0.856
   390   1 h    0.883 --   388 o    0.840
   391   8 o    1.833 --   392 h    0.860   393 h    0.841
   392   1 h    0.887 --   391 o    0.860
   393   1 h    0.883 --   391 o    0.841
   394   8 o    1.855 --   395 h    0.859   396 h    0.814
   395   1 h    0.891 --   394 o    0.859
   396   1 h    0.876 --   394 o    0.814
   397   8 o    1.832 --   398 h    0.840   399 h    0.815
   398   1 h    0.896 --   397 o    0.840
   399   1 h    0.871 --   397 o    0.815
   400   8 o    1.826 --   402 h    0.823   401 h    0.786
   401   1 h    0.868 --   400 o    0.786
   402   1 h    0.890 --   400 o    0.823
   403   8 o    1.839 --   405 h    0.847   404 h    0.827
   404   1 h    0.876 --   403 o    0.827
   405   1 h    0.883 --   403 o    0.847
   406   8 o    1.875 --   408 h    0.865   407 h    0.793
   407   1 h    0.869 --   406 o    0.793
   408   1 h    0.892 --   406 o    0.865
   409   8 o    1.831 --   411 h    0.880   410 h    0.843
   410   1 h    0.885 --   409 o    0.843
   411   1 h    0.892 --   409 o    0.880
   412   8 o    1.870 --   413 h    0.802   414 h    0.790
   413   1 h    0.878 --   412 o    0.802
   414   1 h    0.875 --   412 o    0.790
   415   8 o    1.855 --   416 h    0.885   417 h    0.767
   416   1 h    0.904 --   415 o    0.885
   417   1 h    0.864 --   415 o    0.767
   418   8 o    1.842 --   419 h    0.856   420 h    0.800
   419   1 h    0.898 --   418 o    0.856
   420   1 h    0.866 --   418 o    0.800
   421   8 o    1.815 --   423 h    0.872   422 h    0.826
   422   1 h    0.881 --   421 o    0.826
   423   1 h    0.894 --   421 o    0.872
   424   8 o    1.828 --   425 h    0.866   426 h    0.815
   425   1 h    0.894 --   424 o    0.866
   426   1 h    0.875 --   424 o    0.815
   427   8 o    1.829 --   428 h    0.863   429 h    0.784
   428   1 h    0.893 --   427 o    0.863
   429   1 h    0.867 --   427 o    0.784
   430   8 o    1.853 --   431 h    0.801   432 h    0.760
   431   1 h    0.890 --   430 o    0.801
   432   1 h    0.867 --   430 o    0.760
   433   8 o    1.840 --   435 h    0.830   434 h    0.802
   434   1 h    0.866 --   433 o    0.802
   435   1 h    0.893 --   433 o    0.830
   436   8 o    1.884 --   438 h    0.829   437 h    0.800
   437   1 h    0.878 --   436 o    0.800
   438   1 h    0.887 --   436 o    0.829
   439   8 o    1.870 --   440 h    0.819   441 h    0.787
   440   1 h    0.871 --   439 o    0.819
   441   1 h    0.871 --   439 o    0.787
   442   8 o    1.846 --   443 h    0.835   444 h    0.817
   443   1 h    0.887 --   442 o    0.835
   444   1 h    0.882 --   442 o    0.817
   445   8 o    1.830 --   447 h    0.891   446 h    0.799
   446   1 h    0.878 --   445 o    0.799
   447   1 h    0.901 --   445 o    0.891
   448   8 o    1.854 --   450 h    0.856   449 h    0.808
   449   1 h    0.885 --   448 o    0.808
   450   1 h    0.886 --   448 o    0.856
   451   8 o    1.799 --   452 h    0.818   453 h    0.808
   452   1 h    0.886 --   451 o    0.818
   453   1 h    0.881 --   451 o    0.808
   454   8 o    1.826 --   456 h    0.847   455 h    0.818
   455   1 h    0.877 --   454 o    0.818
   456   1 h    0.891 --   454 o    0.847
   457   8 o    1.813 --   459 h    0.850   458 h    0.818
   458   1 h    0.881 --   457 o    0.818
   459   1 h    0.892 --   457 o    0.850
   460   8 o    1.846 --   462 h    0.834   461 h    0.771
   461   1 h    0.868 --   460 o    0.771
   462   1 h    0.890 --   460 o    0.834
   463   8 o    1.836 --   465 h    0.870   464 h    0.839
   464   1 h    0.885 --   463 o    0.839
   465   1 h    0.888 --   463 o    0.870
   466   8 o    1.803 --   467 h    0.856   468 h    0.820
   467   1 h    0.889 --   466 o    0.856
   468   1 h    0.886 --   466 o    0.820
   469   8 o    1.826 --   471 h    0.852   470 h    0.837
   470   1 h    0.885 --   469 o    0.837
   471   1 h    0.879 --   469 o    0.852
   472   8 o    1.827 --   473 h    0.867   474 h    0.807
   473   1 h    0.893 --   472 o    0.867
   474   1 h    0.876 --   472 o    0.807
   475   8 o    1.806 --   477 h    0.882   476 h    0.851
   476   1 h    0.888 --   475 o    0.851
   477   1 h    0.901 --   475 o    0.882
   478   8 o    1.865 --   479 h    0.896   480 h    0.847
   479   1 h    0.901 --   478 o    0.896
   480   1 h    0.886 --   478 o    0.847
   481   8 o    1.871 --   482 h    0.820   483 h    0.813
   482   1 h    0.874 --   481 o    0.820
   483   1 h    0.879 --   481 o    0.813
   484   8 o    1.867 --   486 h    0.854   485 h    0.819
   485   1 h    0.883 --   484 o    0.819
   486   1 h    0.888 --   484 o    0.854
   487   8 o    1.837 --   488 h    0.833   489 h    0.790
   488   1 h    0.891 --   487 o    0.833
   489   1 h    0.876 --   487 o    0.790
   490   8 o    1.811 --   492 h    0.875   491 h    0.841
   491   1 h    0.881 --   490 o    0.841
   492   1 h    0.891 --   490 o    0.875
   493   8 o    1.838 --   494 h    0.826   495 h    0.798
   494   1 h    0.886 --   493 o    0.826
   495   1 h    0.878 --   493 o    0.798
   496   8 o    1.883 --   497 h    0.843   498 h    0.831
   497   1 h    0.878 --   496 o    0.843
   498   1 h    0.892 --   496 o    0.831
   499   8 o    1.801 --   500 h    0.842   501 h    0.817
   500   1 h    0.893 --   499 o    0.842
   501   1 h    0.882 --   499 o    0.817
   502   8 o    1.860 --   504 h    0.826   503 h    0.807   330 h    0.115
   503   1 h    0.877 --   502 o    0.807
   504   1 h    0.884 --   502 o    0.826
   505   8 o    1.858 --   506 h    0.818   507 h    0.800
   506   1 h    0.885 --   505 o    0.818
   507   1 h    0.868 --   505 o    0.800
   508   8 o    1.839 --   509 h    0.880   510 h    0.782
   509   1 h    0.900 --   508 o    0.880
   510   1 h    0.865 --   508 o    0.782
   511   8 o    1.900 --   512 h    0.815   513 h    0.795   242 h    0.114
   512   1 h    0.879 --   511 o    0.815
   513   1 h    0.868 --   511 o    0.795
   514   8 o    1.881 --   516 h    0.861   515 h    0.833
   515   1 h    0.887 --   514 o    0.833
   516   1 h    0.896 --   514 o    0.861
   517   8 o    1.853 --   519 h    0.818   518 h    0.797
   518   1 h    0.869 --   517 o    0.797
   519   1 h    0.890 --   517 o    0.818
   520   8 o    1.837 --   521 h    0.866   522 h    0.861
   521   1 h    0.886 --   520 o    0.866
   522   1 h    0.886 --   520 o    0.861
   523   8 o    1.799 --   525 h    0.864   524 h    0.824
   524   1 h    0.885 --   523 o    0.824
   525   1 h    0.893 --   523 o    0.864
   526   8 o    1.831 --   528 h    0.896   527 h    0.803
   527   1 h    0.883 --   526 o    0.803
   528   1 h    0.901 --   526 o    0.896
   529   8 o    1.843 --   530 h    0.864   531 h    0.822
   530   1 h    0.893 --   529 o    0.864
   531   1 h    0.869 --   529 o    0.822
   532   8 o    1.862 --   533 h    0.821   534 h    0.802
   533   1 h    0.890 --   532 o    0.821
   534   1 h    0.887 --   532 o    0.802
   535   8 o    1.822 --   537 h    0.888   536 h    0.794
   536   1 h    0.867 --   535 o    0.794
   537   1 h    0.902 --   535 o    0.888
   538   8 o    1.832 --   540 h    0.843   539 h    0.826
   539   1 h    0.891 --   538 o    0.826
   540   1 h    0.889 --   538 o    0.843
   541   8 o    1.827 --   542 h    0.833   543 h    0.815
   542   1 h    0.885 --   541 o    0.833
   543   1 h    0.890 --   541 o    0.815
   544   8 o    1.822 --   546 h    0.855   545 h    0.812
   545   1 h    0.883 --   544 o    0.812
   546   1 h    0.890 --   544 o    0.855
   547   8 o    1.845 --   549 h    0.834   548 h    0.802
   548   1 h    0.878 --   547 o    0.802
   549   1 h    0.891 --   547 o    0.834
   550   8 o    1.814 --   551 h    0.888   552 h    0.786
   551   1 h    0.903 --   550 o    0.888
   552   1 h    0.869 --   550 o    0.786
   553   8 o    1.827 --   554 h    0.886   555 h    0.849
   554   1 h    0.900 --   553 o    0.886
   555   1 h    0.887 --   553 o    0.849
   556   8 o    1.814 --   557 h    0.852   558 h    0.828
   557   1 h    0.894 --   556 o    0.852
   558   1 h    0.888 --   556 o    0.828
   559   8 o    1.853 --   561 h    0.883   560 h    0.810
   560   1 h    0.862 --   559 o    0.810
   561   1 h    0.898 --   559 o    0.883
   562   8 o    1.856 --   563 h    0.850   564 h    0.796
   563   1 h    0.891 --   562 o    0.850
   564   1 h    0.869 --   562 o    0.796
   565   8 o    1.794 --   566 h    0.811   567 h    0.808
   566   1 h    0.882 --   565 o    0.811
   567   1 h    0.881 --   565 o    0.808
   568   8 o    1.794 --   569 h    0.858   570 h    0.849
   569   1 h    0.897 --   568 o    0.858
   570   1 h    0.888 --   568 o    0.849
   571   8 o    1.850 --   573 h    0.863   572 h    0.798
   572   1 h    0.874 --   571 o    0.798
   573   1 h    0.895 --   571 o    0.863
   574   8 o    1.883 --   575 h    0.827   576 h    0.814
   575   1 h    0.894 --   574 o    0.827
   576   1 h    0.880 --   574 o    0.814
   577   8 o    1.872 --   578 h    0.795   579 h    0.780
   578   1 h    0.867 --   577 o    0.795
   579   1 h    0.875 --   577 o    0.780
   580   8 o    1.831 --   581 h    0.883   582 h    0.819
   581   1 h    0.895 --   580 o    0.883
   582   1 h    0.881 --   580 o    0.819
   583   8 o    1.869 --   585 h    0.837   584 h    0.837
   584   1 h    0.877 --   583 o    0.837
   585   1 h    0.890 --   583 o    0.837
   586   8 o    1.823 --   588 h    0.866   587 h    0.839
   587   1 h    0.881 --   586 o    0.839
   588   1 h    0.890 --   586 o    0.866
   589   8 o    1.861 --   590 h    0.862   591 h    0.803
   590   1 h    0.896 --   589 o    0.862
   591   1 h    0.878 --   589 o    0.803
   592   8 o    1.827 --   594 h    0.883   593 h    0.839
   593   1 h    0.892 --   592 o    0.839
   594   1 h    0.902 --   592 o    0.883
   595   8 o    1.833 --   596 h    0.856   597 h    0.836
   596   1 h    0.886 --   595 o    0.856
   597   1 h    0.885 --   595 o    0.836
   598   8 o    1.821 --   599 h    0.863   600 h    0.856
   599   1 h    0.893 --   598 o    0.863
   600   1 h    0.889 --   598 o    0.856
   601   8 o    1.848 --   602 h    0.840   603 h    0.827
   602   1 h    0.890 --   601 o    0.840
   603   1 h    0.883 --   601 o    0.827
   604   8 o    1.875 --   605 h    0.826   606 h    0.786
   605   1 h    0.893 --   604 o    0.826
   606   1 h    0.870 --   604 o    0.786
   607   8 o    1.875 --   609 h    0.840   608 h    0.806
   608   1 h    0.880 --   607 o    0.806
   609   1 h    0.891 --   607 o    0.840
   610   8 o    1.846 --   611 h    0.877   612 h    0.832
   611   1 h    0.895 --   610 o    0.877
   612   1 h    0.871 --   610 o    0.832
   613   8 o    1.817 --   614 h    0.892   615 h    0.823
   614   1 h    0.897 --   613 o    0.892
   615   1 h    0.886 --   613 o    0.823
   616   8 o    1.823 --   618 h    0.862   617 h    0.809
   617   1 h    0.880 --   616 o    0.809
   618   1 h    0.891 --   616 o    0.862
   619   8 o    1.861 --   620 h    0.832   621 h    0.819
   620   1 h    0.890 --   619 o    0.832
   621   1 h    0.869 --   619 o    0.819
   622   8 o    1.834 --   624 h    0.894   623 h    0.812
   623   1 h    0.879 --   622 o    0.812
   624   1 h    0.897 --   622 o    0.894
   625   8 o    1.835 --   627 h    0.851   626 h    0.824
   626   1 h    0.880 --   625 o    0.824
   627   1 h    0.888 --   625 o    0.851
   628   8 o    1.808 --   630 h    0.855   629 h    0.801
   629   1 h    0.872 --   628 o    0.801
   630   1 h    0.896 --   628 o    0.855
   631   8 o    1.847 --   633 h    0.868   632 h    0.841
   632   1 h    0.887 --   631 o    0.841
   633   1 h    0.893 --   631 o    0.868
   634   8 o    1.861 --   636 h    0.843   635 h    0.821
   635   1 h    0.885 --   634 o    0.821
   636   1 h    0.872 --   634 o    0.843
   637   8 o    1.815 --   638 h    0.866   639 h    0.802
   638   1 h    0.895 --   637 o    0.866
   639   1 h    0.879 --   637 o    0.802
   640   8 o    1.838 --   641 h    0.850   642 h    0.818
   641   1 h    0.897 --   640 o    0.850
   642   1 h    0.872 --   640 o    0.818
   643   8 o    1.824 --   644 h    0.849   645 h    0.827
   644   1 h    0.892 --   643 o    0.849
   645   1 h    0.875 --   643 o    0.827
   646   8 o    1.824 --   647 h    0.860   648 h    0.793
   647   1 h    0.895 --   646 o    0.860
   648   1 h    0.865 --   646 o    0.793
   649   8 o    1.833 --   650 h    0.856   651 h    0.855
   650   1 h    0.885 --   649 o    0.856
   651   1 h    0.889 --   649 o    0.855
   652   8 o    1.898 --   654 h    0.864   653 h    0.832
   653   1 h    0.882 --   652 o    0.832
   654   1 h    0.891 --   652 o    0.864
   655   8 o    1.815 --   656 h    0.903   657 h    0.820
   656   1 h    0.909 --   655 o    0.903
   657   1 h    0.879 --   655 o    0.820
   658   8 o    1.834 --   660 h    0.848   659 h    0.826
   659   1 h    0.885 --   658 o    0.826
   660   1 h    0.889 --   658 o    0.848
   661   8 o    1.824 --   662 h    0.888   663 h    0.841
   662   1 h    0.898 --   661 o    0.888
   663   1 h    0.881 --   661 o    0.841
   664   8 o    1.821 --   665 h    0.854   666 h    0.830
   665   1 h    0.895 --   664 o    0.854
   666   1 h    0.879 --   664 o    0.830
   667   8 o    1.863 --   669 h    0.828   668 h    0.821
   668   1 h    0.871 --   667 o    0.821
   669   1 h    0.881 --   667 o    0.828
   670   8 o    1.826 --   671 h    0.894   672 h    0.835
   671   1 h    0.909 --   670 o    0.894
   672   1 h    0.891 --   670 o    0.835
   673   8 o    1.830 --   674 h    0.861   675 h    0.812
   674   1 h    0.891 --   673 o    0.861
   675   1 h    0.881 --   673 o    0.812
   676   8 o    1.842 --   677 h    0.840   678 h    0.738
   677   1 h    0.897 --   676 o    0.840
   678   1 h    0.866 --   676 o    0.738   136 o    0.119
   679   8 o    1.879 --   681 h    0.829   680 h    0.790
   680   1 h    0.869 --   679 o    0.790
   681   1 h    0.877 --   679 o    0.829
   682   8 o    1.822 --   684 h    0.855   683 h    0.835
   683   1 h    0.879 --   682 o    0.835
   684   1 h    0.885 --   682 o    0.855
   685   8 o    1.855 --   686 h    0.838   687 h    0.833
   686   1 h    0.882 --   685 o    0.838
   687   1 h    0.888 --   685 o    0.833
   688   8 o    1.855 --   690 h    0.827   689 h    0.827
   689   1 h    0.890 --   688 o    0.827
   690   1 h    0.882 --   688 o    0.827
   691   8 o    1.808 --   693 h    0.843   692 h    0.840
   692   1 h    0.890 --   691 o    0.840
   693   1 h    0.888 --   691 o    0.843
   694   8 o    1.883 --   696 h    0.827   695 h    0.826
   695   1 h    0.884 --   694 o    0.826
   696   1 h    0.885 --   694 o    0.827
   697   8 o    1.838 --   699 h    0.872   698 h    0.847
   698   1 h    0.892 --   697 o    0.847
   699   1 h    0.897 --   697 o    0.872
   700   8 o    1.840 --   701 h    0.844   702 h    0.833
   701   1 h    0.887 --   700 o    0.844
   702   1 h    0.880 --   700 o    0.833
   703   8 o    1.858 --   704 h    0.834   705 h    0.792
   704   1 h    0.880 --   703 o    0.834
   705   1 h    0.873 --   703 o    0.792
   706   8 o    1.811 --   707 h    0.873   708 h    0.840
   707   1 h    0.894 --   706 o    0.873
   708   1 h    0.880 --   706 o    0.840
   709   8 o    1.854 --   711 h    0.844   710 h    0.806
   710   1 h    0.870 --   709 o    0.806
   711   1 h    0.893 --   709 o    0.844
   712   8 o    1.834 --   713 h    0.856   714 h    0.832
   713   1 h    0.889 --   712 o    0.856
   714   1 h    0.873 --   712 o    0.832
   715   8 o    1.860 --   716 h    0.810   717 h    0.801
   716   1 h    0.877 --   715 o    0.810
   717   1 h    0.879 --   715 o    0.801
   718   8 o    1.832 --   719 h    0.856   720 h    0.784
   719   1 h    0.899 --   718 o    0.856
   720   1 h    0.864 --   718 o    0.784
   721   8 o    1.904 --   723 h    0.859   722 h    0.820
   722   1 h    0.889 --   721 o    0.820
   723   1 h    0.893 --   721 o    0.859
   724   8 o    1.839 --   725 h    0.851   726 h    0.839
   725   1 h    0.879 --   724 o    0.851
   726   1 h    0.896 --   724 o    0.839
   727   8 o    1.830 --   729 h    0.840   728 h    0.807
   728   1 h    0.893 --   727 o    0.807
   729   1 h    0.888 --   727 o    0.840
   730   8 o    1.816 --   732 h    0.877   731 h    0.790
   731   1 h    0.872 --   730 o    0.790
   732   1 h    0.896 --   730 o    0.877
   733   8 o    1.793 --   735 h    0.851   734 h    0.844
   734   1 h    0.888 --   733 o    0.844
   735   1 h    0.891 --   733 o    0.851
   736   8 o    1.856 --   738 h    0.847   737 h    0.802
   737   1 h    0.884 --   736 o    0.802
   738   1 h    0.886 --   736 o    0.847
   739   8 o    1.837 --   740 h    0.846   741 h    0.816
   740   1 h    0.898 --   739 o    0.846
   741   1 h    0.875 --   739 o    0.816
   742   8 o    1.824 --   743 h    0.883   744 h    0.793
   743   1 h    0.900 --   742 o    0.883
   744   1 h    0.871 --   742 o    0.793
   745   8 o    1.829 --   747 h    0.864   746 h    0.830
   746   1 h    0.879 --   745 o    0.830
   747   1 h    0.890 --   745 o    0.864
   748   8 o    1.855 --   749 h    0.831   750 h    0.828
   749   1 h    0.890 --   748 o    0.831
   750   1 h    0.891 --   748 o    0.828
   751   8 o    1.819 --   752 h    0.865   753 h    0.829
   752   1 h    0.892 --   751 o    0.865
   753   1 h    0.882 --   751 o    0.829
   754   8 o    1.842 --   756 h    0.885   755 h    0.863
   755   1 h    0.884 --   754 o    0.863
   756   1 h    0.893 --   754 o    0.885
 ---------------------------------------------------------------------------

Topologies differ in total number of bonds
Writing topology from bond orders to xtbtopo.mol

molecular dipole:
                 x           y           z       tot (Debye)
 q only:       -2.815      -0.939       1.296
   full:       -3.345      -1.277       0.768       9.308
molecular quadrupole (traceless):
                xx          xy          yy          xz          yz          zz
 q only:      -17.540     -14.282      25.994      28.475       4.861      -8.454
  q+dip:      -23.934     -17.642      38.094      41.152      14.894     -14.160
   full:      -22.248     -18.421      37.597      41.132      15.264     -15.349


           -------------------------------------------------
          | TOTAL ENERGY            -1283.612257055976 Eh   |
          | GRADIENT NORM               0.100035145553 Eh/α |
          | HOMO-LUMO GAP               7.554867502358 eV   |
           -------------------------------------------------

------------------------------------------------------------------------
 * finished run on 2022/11/24 at 09:28:07.836     
------------------------------------------------------------------------
 total:
 * wall-time:     0 d,  0 h,  0 min, 21.309 sec
 *  cpu-time:     0 d,  0 h,  0 min, 34.113 sec
 * ratio c/w:     1.601 speedup
 SCF:
 * wall-time:     0 d,  0 h,  0 min, 20.279 sec
 *  cpu-time:     0 d,  0 h,  0 min, 32.372 sec
 * ratio c/w:     1.596 speedup

