756
 energy: -1283.350113845341 gnorm: 0.017608364036 xtb: 6.5.1 (579679a)
o           -3.26627139256475       -5.81611589199761       -5.08009063088398
h           -2.49180416941782       -6.29465339680066       -5.39018015951486
h           -3.01839976196162       -4.86788649107164       -5.12499667331807
o            2.92411939360889       -1.42603974329628        2.58789756500258
h            3.31109868320615       -1.66540292888903        1.72254709758739
h            3.62842660126541       -1.06538947395638        3.14008839767183
o            2.61534850395566        0.85154763559572       -2.63679979736525
h            2.24332156347125        1.69413418192333       -2.33589296318249
h            3.50646866058007        1.04271158276005       -2.97439137124485
o            3.19089614435803        0.06630695534845       -0.05804038051494
h            3.13204587551797        0.25951487762307       -1.00821966756039
h            2.27747726390216        0.11423418080192        0.26047319793384
o            2.22397215636638       -1.79209611473472       -2.28855486877478
h            3.17243026377123       -1.79082772565243       -2.52446378538752
h            1.93666544922169       -0.90462569987138       -2.53964730157919
o           -1.78846957717105       -6.40759241592221        0.39451417849808
h           -0.96831308046267       -6.03895153552377        0.00408170562152
h           -1.48129224137029       -6.92331392257532        1.17012396083910
o            5.08960933270095        0.46656771321299        1.82626943076430
h            4.76842480459961        1.11600690856014        2.46891216794132
h            4.39094048442158        0.35576861939295        1.14350903160850
o            0.48368368012512       -2.92762348948380       -0.71405092195253
h            1.29638327032551       -2.47939023276935       -1.00884495440254
h            0.68894740858149       -3.87692235081077       -0.76344403196986
o            1.53592696100128       -4.28302864853322        1.74652224306255
h            1.25534333523302       -3.34637761813297        1.80416479841479
h            2.50403501348294       -4.31289723736184        1.91570115656687
o            0.33325251928159        3.05777822370827        1.04828837794307
h            0.15015757676896        3.13452252948810        2.00473832080610
h           -0.53898387669461        3.22575478612403        0.62712497781711
o           -0.24467841179942        3.52923751906777        3.59901427159401
h           -0.75405679524074        2.91484198926940        4.15212193307852
h           -0.63439440974273        4.41125279413668        3.72109944646734
o           -0.86647018601168        0.72940942412745        3.18143205553585
h           -0.83008469538731        0.51419018269495        4.12835707418341
h            0.06075593756321        0.87273482193048        2.90698503559841
o            1.18150877298289       -4.03307649502321       -3.31674686778218
h            0.72680341826934       -3.72708265891209       -4.12030126263079
h            1.60368698821460       -3.23756560922808       -2.92882219807257
o           -3.02668068189342        2.24083793190166        2.49451612116587
h           -3.57578989934863        1.73700639044576        1.86451984901553
h           -2.24592343882977        1.71473010121233        2.73576056618436
o            5.15872042898917        2.05746562211438       -0.71799190128703
h            4.34845651556280        2.15855341183596       -0.17938333975728
h            5.90180111774826        2.38295756431609       -0.19010378776298
o            0.44659737746575       -0.92993205372337       -4.34893718021847
h           -0.27290026218089       -0.88035234422350       -5.00140359688435
h            1.16582449093807       -1.50157046728871       -4.68891448457629
o           -1.95575903845026       -0.54675950297323       -5.38420743696901
h           -2.36810869769387        0.06639616693991       -4.73407513458643
h           -2.37114347591241       -1.40878122719752       -5.22732940402360
o           -6.80061544385869       -0.93767054810543       -0.11586037315062
h           -6.15478354197707       -1.07208953013491        0.59651477045723
h           -7.08195100285764       -1.80810412024932       -0.42713271327194
o           -4.42833494955192       -2.85882358186697       -0.36430959290055
h           -4.18570593796269       -3.72678896023969        0.02623190106606
h           -4.50814202574784       -2.25312800796158        0.39697520706958
o           -5.74614076128995        1.54956161503623        3.22719467149025
h           -5.90371477547087        0.88744586376549        2.54923259298994
h           -4.95808326740357        1.21765833392930        3.72000088096944
o           -1.66660542177749        3.46136424336505       -2.78803817463402
h           -1.98707942744466        2.55687346828075       -2.92703786463818
h           -0.77307169457660        3.48239287271365       -3.16489048427071
o            5.18111335271165        1.43810942867652       -3.30585316039263
h            5.40273227835047        2.21343022054433       -3.85334906529780
h            5.27761493175852        1.74108736636683       -2.38523813840449
o           -1.77881214276707       -2.94405792505908        0.60718431346736
h           -0.89077184385706       -2.98736981374054        0.21026124469270
h           -2.15461793290062       -2.08151732698306        0.26928349341691
o           -4.17222095841354       -2.41821037684540       -3.04763789874935
h           -4.78783176849887       -3.08998814321987       -3.40935145879039
h           -4.18539508309153       -2.49685135294920       -2.08134510019911
o           -2.52691802065980       -1.29097448212714        2.94663210952033
h           -2.08073434085575       -2.03585193051968        3.37382559528650
h           -1.83764280690912       -0.60438045452719        2.83329183343560
o           -5.26422860410055        0.07554397889148       -2.07967963015348
h           -5.69076403332784        0.94964871619450       -2.06227962836771
h           -5.58336405369176       -0.33289880551466       -1.25917804887729
o            2.80176781596034       -3.58126658524039       -7.56580349776700
h            3.70555934930914       -3.23142167099823       -7.59784375879432
h            2.88570483707278       -4.53908238647749       -7.36404192178594
o            5.51172475043812       -6.29369542198917       -1.11911869897167
h            5.43861545022101       -5.31726347798003       -1.23443753217231
h            5.26351336616665       -6.65842108035114       -1.99203718598487
o           -6.83545691582661       -3.58141368102712       -0.91926632861305
h           -5.87938929952751       -3.35002319779462       -0.89252373899407
h           -6.92764011767390       -4.35835350734502       -1.50150476199503
o            4.92570392410784        4.39227204009794        1.91945188151883
h            5.53632730035595        4.41023224463172        1.15988622568905
h            5.49168436019766        4.01767916395131        2.62306283934007
o          -10.18601208377177       -1.90061291066683       -4.23986825263755
h           -9.78791362060632       -1.37700527714547       -3.52170954916639
h           -9.75605969476133       -2.76986222202031       -4.18939586861992
o           -3.31081442673215       -3.62335822283522        5.14520140224336
h           -3.80073270897898       -3.54346811984724        4.30499088409544
h           -3.46522487160686       -4.53770858940490        5.44986099507808
o            1.79578547159240        3.08435469484272       -1.38433097286594
h            1.99553772895976        2.78100940768629       -0.48103307107139
h            1.07259491358787        3.73116492653357       -1.31635128397277
o            4.74817624017830       -2.67266303723797        4.56737904685188
h            5.20356534782841       -3.19930595497764        5.24572888331692
h            4.46146425887846       -1.84438049888370        4.98466684483709
o            6.25387905468350       -1.81181890500492        2.60417339389243
h            5.84864222358037       -0.97988274698955        2.28627890068556
h            5.68980269691706       -2.13869436177836        3.33629523946827
o           -4.15745040498395       -5.21166443447732        0.76432682388783
h           -3.29634097167501       -5.64835722996203        0.61909189766267
h           -4.85497256586996       -5.77813305072191        0.38796582020543
o           -0.53150430028835        5.97983780300847        1.47962884742444
h           -0.95799635881978        6.77772070458281        1.11449856820020
h            0.15375709313505        6.30378535685305        2.08848339473674
o            0.34739534336959       -1.83414780523298        2.12452866499233
h           -0.53168271057204       -2.14595566730471        1.87455887848378
h            0.54024987837698       -1.08546819089353        1.54054108027306
o           -4.64628340083172        1.43190406915208        0.45789416971774
h           -4.46309080002744        2.08186012365109       -0.23469714082567
h           -5.59738979799072        1.50360853009941        0.61661880929177
o            5.77855830728239       -0.56641046934988       -0.87027795275801
h            6.67977438787029       -0.69951449240112       -0.52847319346955
h            5.54172436985514        0.37781949624706       -0.78060779137733
o            4.80770687815506       -6.99638197229641       -3.61783027464849
h            5.40796863306456       -6.67639868118354       -4.29414892890148
h            3.92920689505966       -6.64164148550780       -3.85526049242046
o            2.49116964877678        2.14244004293066       -5.27986988144910
h            2.89549381736468        2.86863895525592       -4.78479961768011
h            2.31779769896166        2.49332967157628       -6.17957247427720
o           -3.04047891491316        1.04689226967234       -3.51738841346709
h           -3.64879384467574        1.65191067374062       -3.97867292397047
h           -3.63274456246449        0.51497718312195       -2.96157125443407
o           -3.77184674825916        1.28590289099754       -6.73313486531950
h           -4.73092181897875        1.06881970663801       -6.69421723293044
h           -3.45014393950580        0.86729859703463       -7.53320174299188
o            6.52588044934816       -2.63696200215038       -4.52918568139555
h            7.14304426348935       -3.37570188931228       -4.39569041688061
h            6.99024257316558       -1.80119966249007       -4.31859477613359
o            7.61075750569609        2.29694030129674       -2.45816762733860
h            7.07576752753083        3.09689000457961       -2.28228088995661
h            8.21490924974488        2.52736118361876       -3.18853049047742
o            4.20071884196945       -2.37973686411477        0.41024712503867
h            4.63831558507057       -1.65597981506317       -0.07437791719963
h            3.69602799459359       -2.89892562004630       -0.24340843101716
o           -9.25626882063045       -2.26166562796947       -1.33309339571944
h          -10.17895499872635       -2.05710159054810       -1.56724829109555
h           -9.16826876579478       -1.96565656863218       -0.40461453596117
o           -2.79067807998909        6.01483108046145       -0.06188593035855
h           -2.61873109324187        6.29107162563297       -0.97481485205958
h           -3.66730192415843        6.35007679075836        0.17724354465612
o           -3.05986128071516        5.05761721686928       -4.44659618365796
h           -3.44015573683236        4.56516160575795       -5.19777521896559
h           -2.58004067313155        4.40052089343278       -3.89492750023994
o            4.01046870522056       -4.11986572107095       -3.84177844057121
h            4.60081494434982       -4.44845740068522       -4.53581430888066
h            3.46013015007946       -3.42249560837078       -4.25421113940663
o            0.15805508853617        1.70910610043437       -3.94890507173194
h            0.21944959223988        0.74495589388529       -3.86067781231757
h            1.02048757272239        1.97402893045534       -4.31497795996909
o            7.55489666827913        6.58042563468749        2.43883106983224
h            6.74401831060983        7.07743894477583        2.26248501409311
h            7.46860772728470        6.24781278774638        3.35459923827019
o            4.23817635989429        2.33344734800959        3.81157047537389
h            3.48963281294189        2.96312785238955        3.70974004062100
h            4.82390265995236        2.71540393577279        4.46722544794399
o            3.46189968811486        3.76730710348036        6.20047182553845
h            3.01760770343499        4.26812718281545        6.88489776553956
h            2.77743550311779        3.14852499208903        5.83465556227763
o            7.29468403262074       -0.21856112612242       -3.80954580086146
h            7.98188418856441       -0.22992857196768       -3.12433155573370
h            6.58478522618314        0.39984591650325       -3.52508031365338
o           -4.32328768559833        3.58319501156181        4.75400252493754
h           -4.33844140869233        2.91532235092508        5.46550080782710
h           -3.79434289037211        3.22334106744778        4.02178261147102
o           -3.75080466281147        0.47958715330510        4.60224978411664
h           -3.39844400180260       -0.27517814056968        4.09344492742233
h           -2.98845440123991        1.06652762975048        4.77046606010999
o           -7.17917085253765       -1.68938640936354       -3.15724245148030
h           -6.41304749641651       -1.18145880298788       -2.83573423470892
h           -7.84035310259516       -1.69765040799675       -2.44631850953774
o          -13.10789435258785        1.14991856531404        0.23138791393267
h          -13.11426716739689        0.67952925105532        1.06916059580634
h          -12.92613465095120        2.08018977200601        0.43591185075745
o            4.14822715233960       -4.23016761133765        2.29814321188489
h            4.33009992286609       -3.77854543773754        3.13125187219153
h            4.33956545548796       -3.59164233917772        1.58946850963353
o           -6.98951527963341        1.14106794823515       -4.17445285210652
h           -6.32445645733532        0.48336608245466       -4.47584709554399
h           -7.54277640450355        0.71336309351640       -3.50187558290605
o           -4.24699286577624        3.96827624233496       -6.65092980864644
h           -5.16731577389147        3.96443760879092       -6.93114175524921
h           -3.97501787030952        3.03350679356004       -6.69789146998920
o            1.50328318052998       -2.47918328228859        6.70636802360261
h            1.59821769112210       -3.01423116574847        5.88646814407102
h            0.64552390711009       -2.70548566009315        7.10680503325129
o           -6.10432525445874       -0.85574420790674        6.26409850293550
h           -6.05853101770743       -1.17438295764406        5.33647856189717
h           -6.39222845864780        0.07673860348051        6.17630807648028
o          -10.42368708772093        0.53987249391227       -0.24252932289860
h          -11.37924873006669        0.69034531615158       -0.33539241538310
h          -10.03908685760294        1.42323535615628       -0.08093220989138
o            3.75651369728183        4.79412332831545       -0.94544065588491
h            4.65791006975254        4.54940699961947       -1.25792999339280
h            3.15430219125284        4.11374094593914       -1.31383743040578
o           -2.25710192979245       -4.61008804458943        2.67773655006773
h           -1.36253137928818       -4.85547374342350        2.93815419480651
h           -2.16427234170532       -4.01404196798918        1.91520475131280
o           -9.20916414660057        0.26034264204598       -2.68976665905115
h           -9.58445074328264        0.28053244537299       -1.79040237259172
h           -9.86385295946095        0.66555792145151       -3.27550585140810
o           -1.96612688698859       -0.76896783375732       -8.02662112491384
h           -1.26263118535668       -1.41591109223588       -8.17399502984091
h           -1.95508096951354       -0.59880339004483       -7.05600779806448
o           -0.18520437401705       -3.62440835283826       -5.56516483198025
h            0.03003779831292       -3.17417495530935       -6.41165607794548
h           -0.25149869246659       -4.58669610585974       -5.73065036082735
o           -1.19995822157163       -2.32858754526074       -2.72492763558914
h           -0.65387821243525       -1.79684140529412       -3.32846936209412
h           -0.58230219757586       -2.57311295627436       -2.00732998346567
o           -0.03152573387531        5.11670341518726       -1.03429744244107
h           -0.80015690256370        4.72369034004963       -1.46730626426775
h           -0.26862974547752        5.28139585480759       -0.09730544537237
o            1.27720557460451       -0.65571851756449        4.72109874359013
h            0.97343695568715       -1.18541636642079        3.97075052980555
h            1.24901982491938       -1.21798744949896        5.51199395031337
o           -6.73255087947382        2.32887627853372       -1.67269706571204
h           -7.47855287816194        2.50255727822034       -2.26095184513532
h           -6.55915082726106        3.14302440349919       -1.17875266053879
o           -0.63594411089881       -5.92601809900166       -2.77126405399029
h           -1.37971543409428       -5.46778402941503       -2.32472897621838
h            0.08442526546753       -5.26335165948174       -2.78153163263791
o           -2.75750009446720        4.98828368410176        2.71433162127250
h           -1.96726323538322        5.28009984162764        2.22663915521893
h           -3.03703327333305        5.74838813508167        3.24271180965062
o           -1.76724349484017        2.20837852151312        5.45850076587623
h           -1.62546909489382        1.68469023439915        6.26175596475268
h           -2.00244733691875        3.10244515506424        5.77185605470410
o           -4.99895214171175       -3.94333317764908        3.01288313707340
h           -4.48583493731751       -4.40822427631791        2.32760540265138
h           -5.36565072799085       -4.61988925078047        3.61734723279332
o          -11.62121903561763        3.11958437867396       -2.02804177244402
h          -10.74223450136687        3.18956660318152       -2.43655332744358
h          -11.99639986430909        2.26403606394939       -2.28598772811254
o           -5.96720564708016        5.19504320431927       -4.56476827029398
h           -5.55944794531067        4.29478466994265       -4.36280788253163
h           -5.38254363572340        5.58609756993821       -5.21817955417249
o          -11.89178118831565       -1.81638168088163       -1.75208066224730
h          -12.31693883247077       -1.91762597518826       -0.85331656443173
h          -12.26867481064839       -2.48448180529706       -2.32397494738826
o           -7.24044071115341       -3.70550541801419        1.65171499375865
h           -6.39163893530233       -3.68478788833625        2.15022728050825
h           -7.02928705644318       -3.70010670671519        0.68654768500414
o            3.43491995511824        4.35938739734873       -3.94417537537089
h            4.33964102528093        4.16733142116705       -4.24726511315130
h            3.44334664503617        5.27763896365627       -3.63948465693906
o            2.11459136081458        5.14414335654142        1.10279647708558
h            1.41480341933887        4.47458770366069        0.95663874604586
h            2.82708010951166        4.93614372973891        0.46862321142270
o            1.56833202879453       -0.01834056689826       -6.95459434307322
h            0.90626682101936        0.57365368157819       -7.38286102533997
h            1.59982763387273        0.23077239518959       -6.02427090658577
o           -0.33858330878741        1.44228369778898       -8.03771234098475
h           -0.94980647187989        0.74881096212776       -8.33485629221672
h           -0.77902949532419        1.86216579953394       -7.25730174598903
o            9.93812852356958       -2.98572774399320       -4.06653887031831
h           10.33508814924109       -2.18337605843266       -4.45524169615585
h            9.31524763135859       -2.67851056959572       -3.37753113984280
o            8.51214487326827        0.84557732425007       -5.90963345232159
h            8.08023505963962        0.39234364369965       -5.14694886748130
h            7.76065406848923        1.11211954702066       -6.46101388826613
o           -0.80934355521131        6.08570546118628        4.40183155561114
h            0.10216415432145        6.18501541027252        4.74254383830095
h           -1.04868602680615        6.93953082127071        4.00467805985749
o            7.17640675819406        1.97095326974066        1.05053500173457
h            6.62888210479180        1.20067114080551        1.29423868102434
h            7.99389009085015        1.70351083285340        0.61373339135953
o            8.50774344737664       -3.07931386741017        3.49850791591871
h            8.98310819567339       -3.26876927463322        2.65901590680409
h            7.73679319370291       -2.54269075369644        3.23324939192880
o            3.15182850238275        2.57140330403275        0.96524785084736
h            3.69188863637756        3.23175755506722        1.43237052670882
h            2.64045081642675        2.07616751237909        1.63096967488347
o           -5.09283436720177       -0.59022667494054       -4.88480122510243
h           -4.74638894484381       -1.14935890536585       -4.17141474708844
h           -4.91816451460697       -1.04173246785134       -5.72214879281562
o           -9.23132547764499       -2.00438653083911        1.32032776420400
h          -10.00063542947041       -2.60118658036931        1.40447513589679
h           -8.46193217292681       -2.56767939707802        1.54958712593401
o           -4.88615290517698       -1.27279192721384        1.73976704468926
h           -5.42488604109501       -1.54347660480052        2.51226879801884
h           -3.97082758909848       -1.25074289295955        2.07257781981221
o            3.17909169365304        6.76450891820874       -2.56813296933637
h            2.43985152963796        7.26848690565138       -2.20987805457406
h            3.40966212636139        6.11281595267101       -1.85683426882812
o           -2.16555648468582        1.01925397883668        7.95438747561537
h           -2.41802826736217        0.09199314576493        7.99150834527107
h           -2.99477979605309        1.50588468088865        7.84515593124940
o            6.95583970675759        3.28704743513753        3.30257038819714
h            6.83131205051096        2.53055125262265        3.89928665203589
h            7.13028379477337        2.88653733759574        2.42228032286816
o            1.77629409040064        1.14901594529743        2.79207653815960
h            1.77774285626641        1.42636785686571        3.72556717085291
h            2.10047330332445        0.23206052766989        2.75221918845707
o            9.60552278802775       -0.35966378483153       -2.39537894556397
h            9.64050671258204        0.46694088397875       -1.88123095816492
h           10.01052344855294       -1.04538559641217       -1.82284474358202
o            9.33789978435700        2.88174191624027       -4.44811474821693
h            9.11731998592207        2.16754132860163       -5.09321109266676
h            9.00370479076297        3.71509260692477       -4.79564764067398
o            4.65837275310999       -1.34977883007164       -3.10885414476979
h            5.25353954389186       -1.96165679160337       -3.56642280791756
h            5.12533422068680       -1.02802821672278       -2.31170597252680
o          -12.76007156725804        0.62763655336946       -2.46003944936451
h          -13.32298362113286        0.83147491035803       -1.70384363792225
h          -12.37142002791579       -0.24682517720005       -2.24623709010086
o          -11.92630963301190        3.60453363358203        0.56164512179202
h          -11.77016257039865        3.46976327068558       -0.40628438950602
h          -11.87168388988008        4.55430921586462        0.67757034863725
o           -5.28860983353836        7.05725686154847        0.42858846053667
h           -5.53493938118458        7.10747673198925        1.35774804083229
h           -5.75443762302019        6.27948144580815        0.06300800465407
o           -4.20342675371832        3.47321134356561       -1.42236163513740
h           -3.28168550613470        3.45062715856072       -1.11027245989226
h           -4.43148692925966        4.41010565344325       -1.50122112712116
o            4.12572193142747       -0.08440250836932       -5.37469571785172
h            3.55789618280873        0.70253017742116       -5.28843753115456
h            4.39560356848874       -0.32245632678354       -4.46175291325165
o           -6.05914131015086        6.20235370466404        3.04358147512525
h           -5.65873966639892        5.40350570227839        2.61153873290884
h           -6.42267505322327        5.81601875950703        3.88376255447605
o            0.23244002953509        7.34798542027565       -4.05826110158653
h            1.00144138138912        7.71010557857925       -4.49851845864091
h           -0.45064359129080        7.18969003006185       -4.78587581238023
o            5.21936381576302       -2.40526376914694       -6.87447425500628
h            4.97551384258632       -1.48497634782852       -7.00483996071164
h            5.68327545212254       -2.41943880163181       -6.01215964460933
o           -6.37264863656462        0.96524761514707       -7.05850873263242
h           -6.70044397635251        1.86764403292561       -6.94029701499960
h           -6.97923412778719        0.36346515647867       -6.60782005314609
o           -1.27773549605553       -0.55029007474555        5.65110581330717
h           -2.11845749685557       -0.76616255851773        6.09026353756347
h           -0.98004651907428       -1.38622403559042        5.24546946284079
o           -5.54569120858713       -4.23602881649362       -4.42390659756272
h           -4.94322423928242       -4.90331411388468       -4.76286008741600
h           -5.94477108046141       -3.80924606728916       -5.21047265068777
o           -2.47518750635915       -4.39282111614684       -1.63631177838803
h           -2.24753608098003       -3.62575430951307       -2.18994813322286
h           -2.30228627650044       -4.08287860740227       -0.72767751958829
o           -9.21362691768688        2.94516870795596       -0.21340673490081
h           -9.62613972941486        3.81750863532300       -0.06464722030212
h           -9.08613250871511        2.89963359268031       -1.17244832732363
o           -6.99233639347131       -5.72354118178655       -2.54477424830325
h           -7.41173168886110       -5.23913608372830       -3.27973863771548
h           -6.05051082715149       -5.82065622677640       -2.78629455419555
o           10.40147089018202        1.39230317772606        1.96619750678172
h            9.57740382163643        0.87510026311096        2.11382372348550
h           10.64459895342520        1.69593888585559        2.86943577098196
o           -1.46879077823010        2.43866934964749       -5.87394895693232
h           -2.31424835619098        1.97042117549012       -5.90391412545238
h           -0.95393557789655        2.11201472755352       -5.09460631943727
o            6.14598740819322        4.46677510208597       -1.92208104147501
h            6.13217877167440        5.26949935601123       -2.48163865996081
h            6.66386016474654        4.69126048465865       -1.12420254260003
o          -12.89872336339417       -2.13728061760919        0.62943434090319
h          -12.42414377222451       -2.93786916513317        0.90913556965302
h          -12.55702733239566       -1.43393255386373        1.21103216714415
o            2.33314111483777        4.17413658543580        3.54537285437046
h            1.44028085857503        3.78208656820920        3.62806291069880
h            2.34350840497614        4.61345066317749        2.66689138857370
o            0.57983948810417        0.47474993165435        7.28242841925790
h            0.03064856545635        0.94352702216207        7.91460570380592
h           -0.05362904262455        0.00669688547886        6.69263179537736
o           -0.97956782051833       -3.21547531857743        7.47611537768820
h           -1.82240049392327       -2.75662738674807        7.42777961857266
h           -1.09924406481560       -4.09482242649433        7.08438731763151
o            4.06107892702516       -2.43828377368306        7.43021091044672
h            4.31492493277393       -3.34874172301346        7.58224774864131
h            3.10884203137055       -2.45563473087353        7.18621898798356
o            0.69255537624684        4.61090834801372       -3.79981977406396
h            0.61611327933875        5.56629445847543       -3.65608868019894
h            1.61999991890142        4.37321529516606       -3.66883273111628
o            5.01214197928835        1.73005859239029        7.04908215660698
h            4.49321123183310        2.50165407380370        6.75897493452202
h            4.37269236741419        1.21177257787551        7.58303108196867
o           -3.03037181855080       -8.23756889044260       -1.06086976617559
h           -3.58466375772552       -7.73430386733402       -1.67869789205521