      -----------------------------------------------------------      
     |                   =====================                   |     
     |                           x T B                           |     
     |                   =====================                   |     
     |                         S. Grimme                         |     
     |          Mulliken Center for Theoretical Chemistry        |     
     |                    University of Bonn                     |     
      -----------------------------------------------------------      

   * xtb version 6.5.1 (579679a) compiled by 'ehlert@majestix' on 2022-07-11

   xtb is free software: you can redistribute it and/or modify it under
   the terms of the GNU Lesser General Public License as published by
   the Free Software Foundation, either version 3 of the License, or
   (at your option) any later version.
   
   xtb is distributed in the hope that it will be useful,
   but WITHOUT ANY WARRANTY; without even the implied warranty of
   MERCHANTABILITY or FITNESS FOR A PARTICULAR PURPOSE.  See the
   GNU Lesser General Public License for more details.
   
   Cite this work as:
   * C. Bannwarth, E. Caldeweyher, S. Ehlert, A. Hansen, P. Pracht,
     J. Seibert, S. Spicher, S. Grimme, WIREs Comput. Mol. Sci., 2020, 11,
     e01493. DOI: 10.1002/wcms.1493
   
   for GFN2-xTB:
   * C. Bannwarth, S. Ehlert and S. Grimme., J. Chem. Theory Comput., 2019,
     15, 1652-1671. DOI: 10.1021/acs.jctc.8b01176
   for GFN1-xTB:
   * S. Grimme, C. Bannwarth, P. Shushkov, J. Chem. Theory Comput., 2017,
     13, 1989-2009. DOI: 10.1021/acs.jctc.7b00118
   for GFN0-xTB:
   * P. Pracht, E. Caldeweyher, S. Ehlert, S. Grimme, ChemRxiv, 2019, preprint.
     DOI: 10.26434/chemrxiv.8326202.v1
   for GFN-FF:
   * S. Spicher and S. Grimme, Angew. Chem. Int. Ed., 2020, 59, 15665-15673.
     DOI: 10.1002/anie.202004239
   
   for ALPB and GBSA implicit solvation:
   * S. Ehlert, M. Stahn, S. Spicher, S. Grimme, J. Chem. Theory Comput.,
     2021, 17, 4250-4261. DOI: 10.1021/acs.jctc.1c00471
   
   for DFT-D4:
   * E. Caldeweyher, C. Bannwarth and S. Grimme, J. Chem. Phys., 2017,
     147, 034112. DOI: 10.1063/1.4993215
   * E. Caldeweyher, S. Ehlert, A. Hansen, H. Neugebauer, S. Spicher,
     C. Bannwarth and S. Grimme, J. Chem. Phys., 2019, 150, 154122.
     DOI: 10.1063/1.5090222
   * E. Caldeweyher, J.-M. Mewes, S. Ehlert and S. Grimme, Phys. Chem. Chem. Phys.
     2020, 22, 8499-8512. DOI: 10.1039/D0CP00502A
   
   for sTDA-xTB:
   * S. Grimme and C. Bannwarth, J. Chem. Phys., 2016, 145, 054103.
     DOI: 10.1063/1.4959605
   
   in the mass-spec context:
   * V. Asgeirsson, C. Bauer and S. Grimme, Chem. Sci., 2017, 8, 4879.
     DOI: 10.1039/c7sc00601b
   * J. Koopman and S. Grimme, ACS Omega 2019, 4, 12, 15120-15133.
     DOI: 10.1021/acsomega.9b02011
   
   for metadynamics refer to:
   * S. Grimme, J. Chem. Theory Comput., 2019, 155, 2847-2862
     DOI: 10.1021/acs.jctc.9b00143
   
   for SPH calculations refer to:
   * S. Spicher and S. Grimme, J. Chem. Theory Comput., 2021, 17, 1701-1714
     DOI: 10.1021/acs.jctc.0c01306
   
   with help from (in alphabetical order)
   P. Atkinson, C. Bannwarth, F. Bohle, G. Brandenburg, E. Caldeweyher
   M. Checinski, S. Dohm, S. Ehlert, S. Ehrlich, I. Gerasimov, C. Hölzer
   A. Katbashev, J. Koopman, C. Lavigne, S. Lehtola, F. März, M. Müller,
   F. Musil, H. Neugebauer, J. Pisarek, C. Plett, P. Pracht, F. Pultar,
   J. Seibert, P. Shushkov, S. Spicher, M. Stahn, M. Steiner, T. Strunk,
   J. Stückrath, T. Rose, and J. Unsleber
   
 * started run on 2022/11/24 at 09:07:52.368     

           -------------------------------------------------
          |                Calculation Setup                |
           -------------------------------------------------

          program call               : xtb solvent_cluster.coord --gfn2 --input xcontrol --opt 1
          hostname                   : cn0341
          coordinate file            : solvent_cluster.coord
          omp threads                :                     2

   ID    Z sym.   atoms
    1    8 o      1, 4, 7, 10, 13, 16, 19, 22, 25, 28, 31, 34, 37, 40, 43,
                  46, 49, 52, 55, 58, 61, 64, 67, 70, 73, 76, 79, 82, 85, 88,
                  91, 94, 97, 100, 103, 106, 109, 112, 115, 118, 121, 124,
                  127, 130, 133, 136, 139, 142, 145, 148, 151, 154, 157, 160,
                  163, 166, 169, 172, 175, 178, 181, 184, 187, 190, 193, 196,
                  199, 202, 205, 208, 211, 214, 217, 220, 223, 226, 229, 232,
                  235, 238, 241, 244, 247, 250, 253, 256, 259, 262, 265, 268,
                  271, 274, 277, 280, 283, 286, 289, 292, 295, 298, 301, 304,
                  307, 310, 313, 316, 319, 322, 325, 328, 331, 334, 337, 340,
                  343, 346, 349, 352, 355, 358, 361, 364, 367, 370, 373, 376,
                  379, 382, 385, 388, 391, 394, 397, 400, 403, 406, 409, 412,
                  415, 418, 421, 424, 427, 430, 433, 436, 439, 442, 445, 448,
                  451, 454, 457, 460, 463, 466, 469, 472, 475, 478, 481, 484,
                  487, 490, 493, 496, 499, 502, 505, 508, 511, 514, 517, 520,
                  523, 526, 529, 532, 535, 538, 541, 544, 547, 550, 553, 556,
                  559, 562, 565, 568, 571, 574, 577, 580, 583, 586, 589, 592,
                  595, 598, 601, 604, 607, 610, 613, 616, 619, 622, 625, 628,
                  631, 634, 637, 640, 643, 646, 649, 652, 655, 658, 661, 664,
                  667, 670, 673, 676, 679, 682, 685, 688, 691, 694, 697, 700,
                  703, 706, 709, 712, 715, 718, 721, 724, 727, 730, 733, 736,
                  739, 742, 745, 748, 751, 754
    2    1 h      2, 3, 5, 6, 8, 9, 11, 12, 14, 15, 17, 18, 20, 21, 23, 24,
                  26, 27, 29, 30, 32, 33, 35, 36, 38, 39, 41, 42, 44, 45, 47,
                  48, 50, 51, 53, 54, 56, 57, 59, 60, 62, 63, 65, 66, 68, 69,
                  71, 72, 74, 75, 77, 78, 80, 81, 83, 84, 86, 87, 89, 90, 92,
                  93, 95, 96, 98, 99, 101, 102, 104, 105, 107, 108, 110, 111,
                  113, 114, 116, 117, 119, 120, 122, 123, 125, 126, 128, 129,
                  131, 132, 134, 135, 137, 138, 140, 141, 143, 144, 146, 147,
                  149, 150, 152, 153, 155, 156, 158, 159, 161, 162, 164, 165,
                  167, 168, 170, 171, 173, 174, 176, 177, 179, 180, 182, 183,
                  185, 186, 188, 189, 191, 192, 194, 195, 197, 198, 200, 201,
                  203, 204, 206, 207, 209, 210, 212, 213, 215, 216, 218, 219,
                  221, 222, 224, 225, 227, 228, 230, 231, 233, 234, 236, 237,
                  239, 240, 242, 243, 245, 246, 248, 249, 251, 252, 254, 255,
                  257, 258, 260, 261, 263, 264, 266, 267, 269, 270, 272, 273,
                  275, 276, 278, 279, 281, 282, 284, 285, 287, 288, 290, 291,
                  293, 294, 296, 297, 299, 300, 302, 303, 305, 306, 308, 309,
                  311, 312, 314, 315, 317, 318, 320, 321, 323, 324, 326, 327,
                  329, 330, 332, 333, 335, 336, 338, 339, 341, 342, 344, 345,
                  347, 348, 350, 351, 353, 354, 356, 357, 359, 360, 362, 363,
                  365, 366, 368, 369, 371, 372, 374, 375, 377, 378, 380, 381,
                  383, 384, 386, 387, 389, 390, 392, 393, 395, 396, 398, 399,
                  401, 402, 404, 405, 407, 408, 410, 411, 413, 414, 416, 417,
                  419, 420, 422, 423, 425, 426, 428, 429, 431, 432, 434, 435,
                  437, 438, 440, 441, 443, 444, 446, 447, 449, 450, 452, 453,
                  455, 456, 458, 459, 461, 462, 464, 465, 467, 468, 470, 471,
                  473, 474, 476, 477, 479, 480, 482, 483, 485, 486, 488, 489,
                  491, 492, 494, 495, 497, 498, 500, 501, 503, 504, 506, 507,
                  509, 510, 512, 513, 515, 516, 518, 519, 521, 522, 524, 525,
                  527, 528, 530, 531, 533, 534, 536, 537, 539, 540, 542, 543,
                  545, 546, 548, 549, 551, 552, 554, 555, 557, 558, 560, 561,
                  563, 564, 566, 567, 569, 570, 572, 573, 575, 576, 578, 579,
                  581, 582, 584, 585, 587, 588, 590, 591, 593, 594, 596, 597,
                  599, 600, 602, 603, 605, 606, 608, 609, 611, 612, 614, 615,
                  617, 618, 620, 621, 623, 624, 626, 627, 629, 630, 632, 633,
                  635, 636, 638, 639, 641, 642, 644, 645, 647, 648, 650, 651,
                  653, 654, 656, 657, 659, 660, 662, 663, 665, 666, 668, 669,
                  671, 672, 674, 675, 677, 678, 680, 681, 683, 684, 686, 687,
                  689, 690, 692, 693, 695, 696, 698, 699, 701, 702, 704, 705,
                  707, 708, 710, 711, 713, 714, 716, 717, 719, 720, 722, 723,
                  725, 726, 728, 729, 731, 732, 734, 735, 737, 738, 740, 741,
                  743, 744, 746, 747, 749, 750, 752, 753, 755, 756

molecular fragmentation (1/2 indicates fragments):
111222222222222222222222222222222222222222222222222222222222222222222222
222222222222222222222222222222222222222222222222222222222222222222222222
222222222222222222222222222222222222222222222222222222222222222222222222
222222222222222222222222222222222222222222222222222222222222222222222222
222222222222222222222222222222222222222222222222222222222222222222222222
222222222222222222222222222222222222222222222222222222222222222222222222
222222222222222222222222222222222222222222222222222222222222222222222222
222222222222222222222222222222222222222222222222222222222222222222222222
222222222222222222222222222222222222222222222222222222222222222222222222
222222222222222222222222222222222222222222222222222222222222222222222222
222222222222222222222222222222222222
# atoms in fragment 1/2:     3   753
 fragment masses (1/2) :       18.02     4521.84
CMA distance (Bohr)    :  17.368
constraining FC (au)   :  0.0500

           -------------------------------------------------
          |                 G F N 2 - x T B                 |
           -------------------------------------------------

        Reference                      10.1021/acs.jctc.8b01176
      * Hamiltonian:
        H0-scaling (s, p, d)           1.850000    2.230000    2.230000
        zeta-weighting                 0.500000
      * Dispersion:
        s8                             2.700000
        a1                             0.520000
        a2                             5.000000
        s9                             5.000000
      * Repulsion:
        kExp                           1.500000    1.000000
        rExp                           1.000000
      * Coulomb:
        alpha                          2.000000
        third order                    shell-resolved
        anisotropic                    true
        a3                             3.000000
        a5                             4.000000
        cn-shift                       1.200000
        cn-exp                         4.000000
        max-rad                        5.000000


          ...................................................
          :                      SETUP                      :
          :.................................................:
          :  # basis functions                1512          :
          :  # atomic orbitals                1512          :
          :  # shells                         1008          :
          :  # electrons                      2016          :
          :  max. iterations                   250          :
          :  Hamiltonian                  GFN2-xTB          :
          :  restarted?                      false          :
          :  GBSA solvation                  false          :
          :  PC potential                    false          :
          :  electronic temp.          300.0000000     K    :
          :  accuracy                    1.0000000          :
          :  -> integral cutoff          0.2500000E+02      :
          :  -> integral neglect         0.1000000E-07      :
          :  -> SCF convergence          0.1000000E-05 Eh   :
          :  -> wf. convergence          0.1000000E-03 e    :
          :  Broyden damping             0.4000000          :
          ...................................................

 iter      E             dE          RMSdq      gap      omega  full diag
   1  -1290.9752610 -0.129098E+04  0.406E+00    8.51       0.0  T
   2  -1291.0482155 -0.729545E-01  0.241E+00    8.45       1.0  T
   3  -1291.0790333 -0.308179E-01  0.210E-01    7.95       1.0  T
   4  -1291.0841701 -0.513677E-02  0.452E-02    8.16       1.0  T
   5  -1291.0842476 -0.774978E-04  0.305E-02    8.13       1.0  T
   6  -1291.0842854 -0.378190E-04  0.433E-03    8.15       1.0  T
   7  -1291.0842878 -0.241786E-05  0.789E-04    8.14       4.6  T
   8  -1291.0842879 -0.359782E-07  0.416E-04    8.14       8.7  T
   9  -1291.0842879 -0.170842E-07  0.635E-05    8.14      57.3  T

   *** convergence criteria satisfied after 9 iterations ***

         #    Occupation            Energy/Eh            Energy/eV
      -------------------------------------------------------------
         1        2.0000           -0.6878408             -18.7171
       ...           ...                  ...                  ...
      1002        2.0000           -0.4126282             -11.2282
      1003        2.0000           -0.4119377             -11.2094
      1004        2.0000           -0.4115587             -11.1991
      1005        2.0000           -0.4111820             -11.1888
      1006        2.0000           -0.4098746             -11.1533
      1007        2.0000           -0.4086933             -11.1211
      1008        2.0000           -0.4072706             -11.0824 (HOMO)
      1009                         -0.1079740              -2.9381 (LUMO)
      1010                         -0.0975898              -2.6556
      1011                         -0.0879333              -2.3928
      1012                         -0.0805821              -2.1928
      1013                         -0.0728598              -1.9826
       ...                                ...                  ...
      1512                          0.4261757              11.5968
      -------------------------------------------------------------
                  HL-Gap            0.2992966 Eh            8.1443 eV
             Fermi-level           -0.2576223 Eh           -7.0103 eV

 SCC (total)                   0 d,  0 h,  0 min, 22.708 sec
 SCC setup                      ...        0 min,  0.042 sec (  0.185%)
 Dispersion                     ...        0 min,  0.118 sec (  0.521%)
 classical contributions        ...        0 min,  0.023 sec (  0.103%)
 integral evaluation            ...        0 min,  0.615 sec (  2.708%)
 iterations                     ...        0 min,  9.158 sec ( 40.330%)
 molecular gradient             ...        0 min, 12.679 sec ( 55.835%)
 printout                       ...        0 min,  0.072 sec (  0.319%)

         :::::::::::::::::::::::::::::::::::::::::::::::::::::
         ::                     SUMMARY                     ::
         :::::::::::::::::::::::::::::::::::::::::::::::::::::
         :: total energy           -1283.305240337952 Eh    ::
         :: gradient norm              0.052722082292 Eh/a0 ::
         :: HOMO-LUMO gap              8.144274317355 eV    ::
         ::.................................................::
         :: SCC energy             -1291.084287890641 Eh    ::
         :: -> isotropic ES            7.169444736259 Eh    ::
         :: -> anisotropic ES         -1.613123936510 Eh    ::
         :: -> anisotropic XC         -0.126653917816 Eh    ::
         :: -> dispersion             -0.784514750924 Eh    ::
         :: repulsion energy           7.625746906382 Eh    ::
         :: add. restraining           0.000000000000 Eh    ::
         :: total charge              -0.000000000000 e     ::
         :::::::::::::::::::::::::::::::::::::::::::::::::::::

      ----------------------------------------------------------- 
     |                       L-ANC optimizer                     |
      ----------------------------------------------------------- 
          low memory version by Sebastian Ehlert

          ...................................................
          :                      SETUP                      :
          :.................................................:
          :   energy convergence        0.1000000E-05 Eh    :
          :   grad. convergence         0.8000000E-03 Eh/a0 :
          :   optimization log               true           :
          :   writing optlog all                1     steps :
          :   Hessian reset                    20     steps :
          :   maximium step len.        1.0000000     a0    :
          :   LBFGS images                     20           :
          ...................................................
 * calculating model hessian...
Using Lindh-Hessian (1995)
 Shifting diagonal of input Hessian by   1.000003569991947E-002
 Lowest  eigenvalues of input Hessian
    0.010000   -0.000000   -0.000000   -0.000000   -0.000000   -0.000000
   -0.000000   -0.000000   -0.000000   -0.000000   -0.000000   -0.000000
   -0.000000   -0.000000   -0.000000   -0.000000   -0.000000   -0.000000
 Highest eigenvalues
    0.313137    0.313916    1.216855    1.217755    1.441987    1.442109
 

........................................................................
.............................. CYCLE    1 ..............................
........................................................................
   1  -1291.0821868 -0.129108E+04  0.251E-02    8.13       0.0  T
   2  -1291.0821929 -0.606748E-05  0.156E-02    8.13       1.0  T
   3  -1291.0821960 -0.313080E-05  0.119E-03    8.13       3.1  T
   4  -1291.0821961 -0.935734E-07  0.343E-04    8.13      10.6  T
   5  -1291.0821961 -0.312002E-08  0.452E-05    8.13      80.5  T
     SCC iter.                  ...        0 min,  3.695 sec
     gradient                   ...        0 min, 12.672 sec
 * total energy  : -1283.3058772 Eh     change       -0.6368840E-03 Eh
   gradient norm :     0.0157594 Eh/a0  converged?    E=F G=F D=F
   step length   :     0.2861551 a0

........................................................................
.............................. CYCLE    2 ..............................
........................................................................
   1  -1291.0807014 -0.129108E+04  0.206E-02    8.12       0.0  T
   2  -1291.0807049 -0.354410E-05  0.126E-02    8.12       1.0  T
   3  -1291.0807068 -0.191393E-05  0.110E-03    8.12       3.3  T
   4  -1291.0807069 -0.750510E-07  0.343E-04    8.12      10.6  T
   5  -1291.0807069 -0.532214E-08  0.538E-05    8.12      67.7  T
     SCC iter.                  ...        0 min,  3.481 sec
     gradient                   ...        0 min, 12.534 sec
 * total energy  : -1283.3068222 Eh     change       -0.9449805E-03 Eh
   gradient norm :     0.0221014 Eh/a0  converged?    E=F G=F D=F
   step length   :     0.4611798 a0

........................................................................
.............................. CYCLE    3 ..............................
........................................................................
   1  -1291.0757764 -0.129108E+04  0.344E-02    8.11       0.0  T
   2  -1291.0757920 -0.155834E-04  0.207E-02    8.11       1.0  T
   3  -1291.0757970 -0.503387E-05  0.235E-03    8.11       1.5  T
   4  -1291.0757975 -0.522664E-06  0.693E-04    8.11       5.2  T
   5  -1291.0757976 -0.201203E-07  0.110E-04    8.11      33.0  T
     SCC iter.                  ...        0 min,  3.642 sec
     gradient                   ...        0 min, 12.917 sec
 * total energy  : -1283.3077394 Eh     change       -0.9172087E-03 Eh
   gradient norm :     0.0424045 Eh/a0  converged?    E=F G=F D=F
   step length   :     1.1234327 a0

........................................................................
.............................. CYCLE    4 ..............................
........................................................................
   1  -1291.0830018 -0.129108E+04  0.298E-02    8.11       0.0  T
   2  -1291.0830159 -0.141129E-04  0.183E-02    8.11       1.0  T
   3  -1291.0830205 -0.454456E-05  0.220E-03    8.11       1.7  T
   4  -1291.0830209 -0.449929E-06  0.525E-04    8.11       6.9  T
   5  -1291.0830209 -0.291311E-08  0.540E-05    8.11      67.4  T
     SCC iter.                  ...        0 min,  3.410 sec
     gradient                   ...        0 min, 12.726 sec
 * total energy  : -1283.3095088 Eh     change       -0.1769416E-02 Eh
   gradient norm :     0.0239833 Eh/a0  converged?    E=F G=F D=F
   step length   :     0.5825834 a0

........................................................................
.............................. CYCLE    5 ..............................
........................................................................
   1  -1291.0928950 -0.129109E+04  0.333E-02    8.11       0.0  T
   2  -1291.0929263 -0.312938E-04  0.203E-02    8.11       1.0  T
   3  -1291.0929355 -0.925171E-05  0.310E-03    8.10       1.2  T
   4  -1291.0929364 -0.890961E-06  0.803E-04    8.10       4.5  T
   5  -1291.0929364 -0.181087E-07  0.123E-04    8.10      29.7  T
     SCC iter.                  ...        0 min,  3.388 sec
     gradient                   ...        0 min, 12.850 sec
 * total energy  : -1283.3098213 Eh     change       -0.3124309E-03 Eh
   gradient norm :     0.0570283 Eh/a0  converged?    E=F G=F D=F
   step length   :     1.2028722 a0

........................................................................
.............................. CYCLE    6 ..............................
........................................................................
   1  -1291.0885229 -0.129109E+04  0.196E-02    8.09       0.0  T
   2  -1291.0885275 -0.461764E-05  0.118E-02    8.09       1.0  T
   3  -1291.0885291 -0.153938E-05  0.120E-03    8.09       3.0  T
   4  -1291.0885292 -0.143056E-06  0.372E-04    8.09       9.8  T
   5  -1291.0885292 -0.470072E-08  0.423E-05    8.09      86.0  T
     SCC iter.                  ...        0 min,  3.339 sec
     gradient                   ...        0 min, 12.959 sec
 * total energy  : -1283.3116819 Eh     change       -0.1860616E-02 Eh
   gradient norm :     0.0081962 Eh/a0  converged?    E=F G=F D=F
   step length   :     0.2795939 a0

........................................................................
.............................. CYCLE    7 ..............................
........................................................................
   1  -1291.0846732 -0.129108E+04  0.118E-02    8.09       0.0  T
   2  -1291.0846770 -0.382137E-05  0.697E-03    8.09       1.0  T
   3  -1291.0846776 -0.550289E-06  0.107E-03    8.08       3.4  T
   4  -1291.0846777 -0.117564E-06  0.178E-04    8.08      20.5  T
   5  -1291.0846777 -0.110322E-08  0.332E-05    8.08     109.5  T
     SCC iter.                  ...        0 min,  3.269 sec
     gradient                   ...        0 min, 12.871 sec
 * total energy  : -1283.3120996 Eh     change       -0.4177722E-03 Eh
   gradient norm :     0.0187017 Eh/a0  converged?    E=F G=F D=F
   step length   :     0.3092465 a0

........................................................................
.............................. CYCLE    8 ..............................
........................................................................
   1  -1291.0929550 -0.129109E+04  0.190E-02    8.09       0.0  T
   2  -1291.0929698 -0.148608E-04  0.110E-02    8.09       1.0  T
   3  -1291.0929726 -0.277622E-05  0.231E-03    8.09       1.6  T
   4  -1291.0929730 -0.384385E-06  0.418E-04    8.09       8.7  T
   5  -1291.0929730 -0.404725E-08  0.674E-05    8.09      54.0  T
     SCC iter.                  ...        0 min,  3.250 sec
     gradient                   ...        0 min, 12.727 sec
 * total energy  : -1283.3115147 Eh     change        0.5849090E-03 Eh
   gradient norm :     0.0297139 Eh/a0  converged?    E=F G=F D=F
   step length   :     0.3686472 a0

........................................................................
.............................. CYCLE    9 ..............................
........................................................................
   1  -1291.0855608 -0.129109E+04  0.248E-02    8.08       0.0  T
   2  -1291.0855739 -0.130542E-04  0.153E-02    8.08       1.0  T
   3  -1291.0855788 -0.487072E-05  0.187E-03    8.07       1.9  T
   4  -1291.0855791 -0.365683E-06  0.574E-04    8.07       6.3  T
   5  -1291.0855791 -0.113125E-07  0.864E-05    8.07      42.1  T
     SCC iter.                  ...        0 min,  3.005 sec
     gradient                   ...        0 min, 12.751 sec
 * total energy  : -1283.3127169 Eh     change       -0.1202136E-02 Eh
   gradient norm :     0.0163449 Eh/a0  converged?    E=F G=F D=F
   step length   :     0.4967767 a0

........................................................................
.............................. CYCLE   10 ..............................
........................................................................
   1  -1291.0869024 -0.129109E+04  0.755E-03    8.07       0.0  T
   2  -1291.0869083 -0.594207E-05  0.446E-03    8.07       1.0  T
   3  -1291.0869093 -0.966053E-06  0.142E-03    8.08       2.6  T
   4  -1291.0869094 -0.825883E-07  0.181E-04    8.08      20.1  T
   5  -1291.0869094 -0.160594E-08  0.304E-05    8.08     119.6  T
     SCC iter.                  ...        0 min,  2.977 sec
     gradient                   ...        0 min, 12.760 sec
 * total energy  : -1283.3130081 Eh     change       -0.2912063E-03 Eh
   gradient norm :     0.0122868 Eh/a0  converged?    E=F G=F D=F
   step length   :     0.1847997 a0

........................................................................
.............................. CYCLE   11 ..............................
........................................................................
   1  -1291.0868016 -0.129109E+04  0.130E-02    8.07       0.0  T
   2  -1291.0868031 -0.143128E-05  0.800E-03    8.07       1.0  T
   3  -1291.0868037 -0.660497E-06  0.634E-04    8.07       5.7  T
   4  -1291.0868038 -0.333014E-07  0.198E-04    8.07      18.4  T
     SCC iter.                  ...        0 min,  2.531 sec
     gradient                   ...        0 min, 12.837 sec
 * total energy  : -1283.3133914 Eh     change       -0.3833205E-03 Eh
   gradient norm :     0.0137269 Eh/a0  converged?    E=F G=F D=F
   step length   :     0.2596500 a0

........................................................................
.............................. CYCLE   12 ..............................
........................................................................
   1  -1291.0866028 -0.129109E+04  0.264E-02    8.06       0.0  T
   2  -1291.0866111 -0.830649E-05  0.160E-02    8.06       1.0  T
   3  -1291.0866137 -0.263974E-05  0.157E-03    8.06       2.3  T
   4  -1291.0866140 -0.274883E-06  0.430E-04    8.06       8.5  T
   5  -1291.0866140 -0.504360E-08  0.582E-05    8.06      62.5  T
     SCC iter.                  ...        0 min,  3.152 sec
     gradient                   ...        0 min, 13.391 sec
 * total energy  : -1283.3139163 Eh     change       -0.5249455E-03 Eh
   gradient norm :     0.0194356 Eh/a0  converged?    E=F G=F D=F
   step length   :     0.5749776 a0

........................................................................
.............................. CYCLE   13 ..............................
........................................................................
   1  -1291.0905899 -0.129109E+04  0.206E-02    8.06       0.0  T
   2  -1291.0905983 -0.839450E-05  0.127E-02    8.05       1.0  T
   3  -1291.0906020 -0.375436E-05  0.172E-03    8.05       2.1  T
   4  -1291.0906023 -0.228220E-06  0.530E-04    8.05       6.9  T
   5  -1291.0906023 -0.890191E-08  0.726E-05    8.05      50.1  T
     SCC iter.                  ...        0 min,  3.143 sec
     gradient                   ...        0 min, 13.362 sec
 * total energy  : -1283.3141185 Eh     change       -0.2021954E-03 Eh
   gradient norm :     0.0248970 Eh/a0  converged?    E=F G=F D=F
   step length   :     0.4402789 a0

........................................................................
.............................. CYCLE   14 ..............................
........................................................................
   1  -1291.0960488 -0.129110E+04  0.179E-02    8.05       0.0  T
   2  -1291.0960571 -0.830855E-05  0.108E-02    8.05       1.0  T
   3  -1291.0960599 -0.285709E-05  0.181E-03    8.05       2.0  T
   4  -1291.0960602 -0.257153E-06  0.465E-04    8.05       7.8  T
   5  -1291.0960602 -0.520799E-08  0.522E-05    8.05      69.7  T
     SCC iter.                  ...        0 min,  3.158 sec
     gradient                   ...        0 min, 13.243 sec
 * total energy  : -1283.3138796 Eh     change        0.2389105E-03 Eh
   gradient norm :     0.0259666 Eh/a0  converged?    E=F G=F D=F
   step length   :     0.1665158 a0

........................................................................
.............................. CYCLE   15 ..............................
........................................................................
   1  -1291.0880236 -0.129109E+04  0.184E-02    8.05       0.0  T
   2  -1291.0880314 -0.776217E-05  0.105E-02    8.05       1.0  T
   3  -1291.0880327 -0.130910E-05  0.163E-03    8.05       2.2  T
   4  -1291.0880329 -0.219999E-06  0.358E-04    8.05      10.2  T
   5  -1291.0880329 -0.186196E-08  0.298E-05    8.05     122.2  T
     SCC iter.                  ...        0 min,  3.209 sec
     gradient                   ...        0 min, 13.098 sec
 * total energy  : -1283.3139090 Eh     change       -0.2941280E-04 Eh
   gradient norm :     0.0315973 Eh/a0  converged?    E=F G=F D=F
   step length   :     0.2451398 a0

........................................................................
.............................. CYCLE   16 ..............................
........................................................................
   1  -1291.0883795 -0.129109E+04  0.178E-02    8.05       0.0  T
   2  -1291.0883861 -0.657632E-05  0.108E-02    8.05       1.0  T
   3  -1291.0883886 -0.254263E-05  0.154E-03    8.05       2.4  T
   4  -1291.0883888 -0.192351E-06  0.477E-04    8.05       7.6  T
   5  -1291.0883888 -0.675141E-08  0.617E-05    8.05      59.0  T
     SCC iter.                  ...        0 min,  3.224 sec
     gradient                   ...        0 min, 13.066 sec
 * total energy  : -1283.3142919 Eh     change       -0.3828069E-03 Eh
   gradient norm :     0.0181983 Eh/a0  converged?    E=F G=F D=F
   step length   :     0.3141126 a0

........................................................................
.............................. CYCLE   17 ..............................
........................................................................
   1  -1291.0929565 -0.129109E+04  0.883E-03    8.05       0.0  T
   2  -1291.0929592 -0.273002E-05  0.519E-03    8.05       1.0  T
   3  -1291.0929599 -0.641936E-06  0.103E-03    8.05       3.5  T
   4  -1291.0929599 -0.789860E-07  0.216E-04    8.05      16.9  T
   5  -1291.0929599 -0.900627E-09  0.244E-05    8.05     149.1  T
     SCC iter.                  ...        0 min,  3.178 sec
     gradient                   ...        0 min, 12.763 sec
 * total energy  : -1283.3144738 Eh     change       -0.1819119E-03 Eh
   gradient norm :     0.0085376 Eh/a0  converged?    E=F G=F D=F
   step length   :     0.1051612 a0

........................................................................
.............................. CYCLE   18 ..............................
........................................................................
   1  -1291.0905808 -0.129109E+04  0.688E-03    8.05       0.0  T
   2  -1291.0905813 -0.539651E-06  0.416E-03    8.05       1.0  T
   3  -1291.0905815 -0.156080E-06  0.387E-04    8.05       9.4  T
   4  -1291.0905815 -0.181526E-07  0.113E-04    8.05      32.3  T
     SCC iter.                  ...        0 min,  2.548 sec
     gradient                   ...        0 min, 12.605 sec
 * total energy  : -1283.3145322 Eh     change       -0.5842936E-04 Eh
   gradient norm :     0.0065657 Eh/a0  converged?    E=F G=F D=F
   step length   :     0.2042042 a0

........................................................................
.............................. CYCLE   19 ..............................
........................................................................
   1  -1291.0906008 -0.129109E+04  0.357E-03    8.05       0.0  T
   2  -1291.0906011 -0.317541E-06  0.211E-03    8.05       1.7  T
   3  -1291.0906012 -0.745767E-07  0.320E-04    8.05      11.4  T
   4  -1291.0906012 -0.988712E-08  0.800E-05    8.05      45.4  T
     SCC iter.                  ...        0 min,  2.551 sec
     gradient                   ...        0 min, 12.556 sec
 * total energy  : -1283.3146091 Eh     change       -0.7691105E-04 Eh
   gradient norm :     0.0081316 Eh/a0  converged?    E=F G=F D=F
   step length   :     0.0874447 a0

........................................................................
.............................. CYCLE   20 ..............................
........................................................................
   1  -1291.0912247 -0.129109E+04  0.367E-03    8.05       0.0  T
   2  -1291.0912249 -0.188450E-06  0.224E-03    8.05       1.6  T
   3  -1291.0912250 -0.823195E-07  0.250E-04    8.05      14.6  T
   4  -1291.0912250 -0.539603E-08  0.834E-05    8.05      43.6  T
     SCC iter.                  ...        0 min,  2.471 sec
     gradient                   ...        0 min, 13.069 sec
 * total energy  : -1283.3147130 Eh     change       -0.1039089E-03 Eh
   gradient norm :     0.0089072 Eh/a0  converged?    E=F G=F D=F
   step length   :     0.1432797 a0
 * RMSD in coord.:     0.1569480 a0     energy gain  -0.9472673E-02 Eh
 * calculating model hessian...
Using Lindh-Hessian (1995)
 Shifting diagonal of input Hessian by   1.000004458128444E-002
 Lowest  eigenvalues of input Hessian
    0.010000   -0.000000   -0.000000   -0.000000   -0.000000   -0.000000
   -0.000000   -0.000000   -0.000000   -0.000000   -0.000000   -0.000000
   -0.000000   -0.000000   -0.000000   -0.000000   -0.000000   -0.000000
 Highest eigenvalues
    0.305024    0.314751    1.197605    1.228935    1.423265    1.427126
 

........................................................................
.............................. CYCLE   21 ..............................
........................................................................
   1  -1291.0910411 -0.129109E+04  0.166E-02    8.06       0.0  T
   2  -1291.0910440 -0.287417E-05  0.102E-02    8.06       1.0  T
   3  -1291.0910451 -0.114755E-05  0.883E-04    8.06       4.1  T
   4  -1291.0910452 -0.788405E-07  0.274E-04    8.06      13.3  T
   5  -1291.0910452 -0.207342E-08  0.359E-05    8.06     101.2  T
     SCC iter.                  ...        0 min,  3.164 sec
     gradient                   ...        0 min, 12.316 sec
 * total energy  : -1283.3155224 Eh     change       -0.8093730E-03 Eh
   gradient norm :     0.0076674 Eh/a0  converged?    E=F G=F D=F
   step length   :     0.2588773 a0

........................................................................
.............................. CYCLE   22 ..............................
........................................................................
   1  -1291.0849081 -0.129108E+04  0.301E-02    8.06       0.0  T
   2  -1291.0849260 -0.179482E-04  0.182E-02    8.06       1.0  T
   3  -1291.0849311 -0.513761E-05  0.232E-03    8.05       1.6  T
   4  -1291.0849317 -0.595960E-06  0.662E-04    8.05       5.5  T
   5  -1291.0849318 -0.157813E-07  0.100E-04    8.05      36.3  T
     SCC iter.                  ...        0 min,  2.938 sec
     gradient                   ...        0 min, 12.265 sec
 * total energy  : -1283.3155655 Eh     change       -0.4315472E-04 Eh
   gradient norm :     0.0342214 Eh/a0  converged?    E=F G=F D=F
   step length   :     0.6297854 a0

........................................................................
.............................. CYCLE   23 ..............................
........................................................................
   1  -1291.0924510 -0.129109E+04  0.156E-02    8.06       0.0  T
   2  -1291.0924538 -0.273581E-05  0.937E-03    8.06       1.0  T
   3  -1291.0924548 -0.107261E-05  0.959E-04    8.06       3.8  T
   4  -1291.0924549 -0.694934E-07  0.305E-04    8.06      11.9  T
   5  -1291.0924549 -0.265027E-08  0.325E-05    8.06     112.0  T
     SCC iter.                  ...        0 min,  2.951 sec
     gradient                   ...        0 min, 12.214 sec
 * total energy  : -1283.3164062 Eh     change       -0.8406620E-03 Eh
   gradient norm :     0.0054347 Eh/a0  converged?    E=F G=F D=F
   step length   :     0.2414396 a0

........................................................................
.............................. CYCLE   24 ..............................
........................................................................
   1  -1291.0922250 -0.129109E+04  0.707E-03    8.06       0.0  T
   2  -1291.0922263 -0.130711E-05  0.430E-03    8.06       1.0  T
   3  -1291.0922266 -0.297679E-06  0.620E-04    8.06       5.9  T
   4  -1291.0922267 -0.455047E-07  0.141E-04    8.06      25.9  T
     SCC iter.                  ...        0 min,  2.367 sec
     gradient                   ...        0 min, 12.270 sec
 * total energy  : -1283.3165917 Eh     change       -0.1854919E-03 Eh
   gradient norm :     0.0058329 Eh/a0  converged?    E=F G=F D=F
   step length   :     0.1790057 a0

........................................................................
.............................. CYCLE   25 ..............................
........................................................................
   1  -1291.0928353 -0.129109E+04  0.108E-02    8.06       0.0  T
   2  -1291.0928380 -0.275663E-05  0.649E-03    8.06       1.0  T
   3  -1291.0928386 -0.541956E-06  0.891E-04    8.06       4.1  T
   4  -1291.0928387 -0.983512E-07  0.205E-04    8.06      17.8  T
     SCC iter.                  ...        0 min,  2.312 sec
     gradient                   ...        0 min, 12.151 sec
 * total energy  : -1283.3167486 Eh     change       -0.1568659E-03 Eh
   gradient norm :     0.0053093 Eh/a0  converged?    E=F G=F D=F
   step length   :     0.3053788 a0

........................................................................
.............................. CYCLE   26 ..............................
........................................................................
   1  -1291.0931887 -0.129109E+04  0.420E-03    8.06       0.0  T
   2  -1291.0931891 -0.403284E-06  0.258E-03    8.06       1.4  T
   3  -1291.0931892 -0.950063E-07  0.350E-04    8.06      10.4  T
   4  -1291.0931892 -0.145692E-07  0.702E-05    8.06      51.8  T
     SCC iter.                  ...        0 min,  2.338 sec
     gradient                   ...        0 min, 12.155 sec
 * total energy  : -1283.3168063 Eh     change       -0.5774535E-04 Eh
   gradient norm :     0.0041054 Eh/a0  converged?    E=F G=F D=F
   step length   :     0.0689597 a0

........................................................................
.............................. CYCLE   27 ..............................
........................................................................
   1  -1291.0936629 -0.129109E+04  0.838E-03    8.06       0.0  T
   2  -1291.0936642 -0.130609E-05  0.516E-03    8.06       1.0  T
   3  -1291.0936646 -0.326202E-06  0.596E-04    8.06       6.1  T
   4  -1291.0936646 -0.483617E-07  0.133E-04    8.06      27.3  T
     SCC iter.                  ...        0 min,  2.309 sec
     gradient                   ...        0 min, 12.364 sec
 * total energy  : -1283.3168699 Eh     change       -0.6364153E-04 Eh
   gradient norm :     0.0053133 Eh/a0  converged?    E=F G=F D=F
   step length   :     0.1773907 a0

........................................................................
.............................. CYCLE   28 ..............................
........................................................................
   1  -1291.0935964 -0.129109E+04  0.622E-03    8.06       0.0  T
   2  -1291.0935970 -0.591373E-06  0.382E-03    8.06       1.0  T
   3  -1291.0935972 -0.210344E-06  0.422E-04    8.06       8.6  T
   4  -1291.0935972 -0.177502E-07  0.106E-04    8.06      34.4  T
     SCC iter.                  ...        0 min,  2.524 sec
     gradient                   ...        0 min, 12.163 sec
 * total energy  : -1283.3168812 Eh     change       -0.1127191E-04 Eh
   gradient norm :     0.0049600 Eh/a0  converged?    E=F G=F D=F
   step length   :     0.1019019 a0

........................................................................
.............................. CYCLE   29 ..............................
........................................................................
   1  -1291.0931231 -0.129109E+04  0.286E-03    8.06       0.0  T
   2  -1291.0931234 -0.254415E-06  0.172E-03    8.06       2.1  T
   3  -1291.0931234 -0.644588E-07  0.294E-04    8.06      12.4  T
   4  -1291.0931234 -0.807518E-08  0.620E-05    8.06      58.7  T
     SCC iter.                  ...        0 min,  2.312 sec
     gradient                   ...        0 min, 12.104 sec
 * total energy  : -1283.3169059 Eh     change       -0.2469458E-04 Eh
   gradient norm :     0.0028074 Eh/a0  converged?    E=F G=F D=F
   step length   :     0.0327678 a0

........................................................................
.............................. CYCLE   30 ..............................
........................................................................
   1  -1291.0942070 -0.129109E+04  0.310E-03    8.06       0.0  T
   2  -1291.0942074 -0.398622E-06  0.180E-03    8.06       2.0  T
   3  -1291.0942075 -0.752577E-07  0.391E-04    8.06       9.3  T
   4  -1291.0942075 -0.998557E-08  0.620E-05    8.06      58.7  T
     SCC iter.                  ...        0 min,  2.299 sec
     gradient                   ...        0 min, 12.095 sec
 * total energy  : -1283.3169050 Eh     change        0.9597418E-06 Eh
   gradient norm :     0.0029071 Eh/a0  converged?    E=F G=F D=F
   step length   :     0.0372065 a0

........................................................................
.............................. CYCLE   31 ..............................
........................................................................
   1  -1291.0935125 -0.129109E+04  0.375E-03    8.06       0.0  T
   2  -1291.0935126 -0.189885E-06  0.232E-03    8.06       1.6  T
   3  -1291.0935127 -0.718337E-07  0.236E-04    8.06      15.4  T
   4  -1291.0935127 -0.531759E-08  0.542E-05    8.06      67.1  T
     SCC iter.                  ...        0 min,  2.307 sec
     gradient                   ...        0 min, 12.096 sec
 * total energy  : -1283.3169167 Eh     change       -0.1171094E-04 Eh
   gradient norm :     0.0011276 Eh/a0  converged?    E=F G=F D=F
   step length   :     0.0422150 a0

........................................................................
.............................. CYCLE   32 ..............................
........................................................................
   1  -1291.0933208 -0.129109E+04  0.357E-03    8.06       0.0  T
   2  -1291.0933209 -0.113319E-06  0.223E-03    8.06       1.6  T
   3  -1291.0933210 -0.603634E-07  0.146E-04    8.06      24.8  T
   4  -1291.0933210 -0.143041E-08  0.414E-05    8.06      87.8  T
     SCC iter.                  ...        0 min,  2.349 sec
     gradient                   ...        0 min, 12.096 sec
 * total energy  : -1283.3169204 Eh     change       -0.3762221E-05 Eh
   gradient norm :     0.0020933 Eh/a0  converged?    E=F G=F D=F
   step length   :     0.0382878 a0

........................................................................
.............................. CYCLE   33 ..............................
........................................................................
   1  -1291.0934820 -0.129109E+04  0.159E-03    8.06       0.0  T
   2  -1291.0934820 -0.208454E-07  0.993E-04    8.06       3.7  T
   3  -1291.0934820 -0.110565E-07  0.631E-05    8.06      57.6  T
     SCC iter.                  ...        0 min,  1.737 sec
     gradient                   ...        0 min, 12.095 sec
 * total energy  : -1283.3169238 Eh     change       -0.3401262E-05 Eh
   gradient norm :     0.0016443 Eh/a0  converged?    E=F G=F D=F
   step length   :     0.0166248 a0

........................................................................
.............................. CYCLE   34 ..............................
........................................................................
   1  -1291.0937523 -0.129109E+04  0.697E-03    8.06       0.0  T
   2  -1291.0937526 -0.345148E-06  0.437E-03    8.06       1.0  T
   3  -1291.0937528 -0.210230E-06  0.224E-04    8.06      16.3  T
   4  -1291.0937528 -0.121645E-08  0.531E-05    8.06      68.5  T
     SCC iter.                  ...        0 min,  2.305 sec
     gradient                   ...        0 min, 12.096 sec
 * total energy  : -1283.3169302 Eh     change       -0.6401765E-05 Eh
   gradient norm :     0.0018897 Eh/a0  converged?    E=F G=F D=F
   step length   :     0.0668404 a0

........................................................................
.............................. CYCLE   35 ..............................
........................................................................
   1  -1291.0939930 -0.129109E+04  0.203E-03    8.06       0.0  T
   2  -1291.0939931 -0.726207E-07  0.126E-03    8.06       2.9  T
   3  -1291.0939932 -0.319051E-07  0.160E-04    8.06      22.7  T
   4  -1291.0939932 -0.196724E-08  0.447E-05    8.06      81.4  T
     SCC iter.                  ...        0 min,  2.317 sec
     gradient                   ...        0 min, 12.099 sec
 * total energy  : -1283.3169323 Eh     change       -0.2061762E-05 Eh
   gradient norm :     0.0019001 Eh/a0  converged?    E=F G=F D=F
   step length   :     0.0243963 a0

........................................................................
.............................. CYCLE   36 ..............................
........................................................................
   1  -1291.0937598 -0.129109E+04  0.457E-03    8.06       0.0  T
   2  -1291.0937600 -0.159391E-06  0.286E-03    8.06       1.3  T
   3  -1291.0937601 -0.887176E-07  0.167E-04    8.06      21.8  T
   4  -1291.0937601 -0.165323E-08  0.484E-05    8.06      75.1  T
     SCC iter.                  ...        0 min,  2.305 sec
     gradient                   ...        0 min, 12.097 sec
 * total energy  : -1283.3169382 Eh     change       -0.5930743E-05 Eh
   gradient norm :     0.0015208 Eh/a0  converged?    E=F G=F D=F
   step length   :     0.0400344 a0

........................................................................
.............................. CYCLE   37 ..............................
........................................................................
   1  -1291.0931830 -0.129109E+04  0.103E-02    8.06       0.0  T
   2  -1291.0931837 -0.700945E-06  0.644E-03    8.06       1.0  T
   3  -1291.0931841 -0.391313E-06  0.355E-04    8.06      10.2  T
   4  -1291.0931841 -0.665500E-08  0.103E-04    8.06      35.2  T
     SCC iter.                  ...        0 min,  2.308 sec
     gradient                   ...        0 min, 12.096 sec
 * total energy  : -1283.3169374 Eh     change        0.8535908E-06 Eh
   gradient norm :     0.0051214 Eh/a0  converged?    E=F G=F D=F
   step length   :     0.0968090 a0

........................................................................
.............................. CYCLE   38 ..............................
........................................................................
   1  -1291.0936710 -0.129109E+04  0.488E-03    8.06       0.0  T
   2  -1291.0936712 -0.241428E-06  0.303E-03    8.06       1.2  T
   3  -1291.0936713 -0.104515E-06  0.246E-04    8.06      14.8  T
   4  -1291.0936713 -0.575778E-08  0.625E-05    8.06      58.2  T
     SCC iter.                  ...        0 min,  2.311 sec
     gradient                   ...        0 min, 12.093 sec
 * total energy  : -1283.3169467 Eh     change       -0.9322188E-05 Eh
   gradient norm :     0.0021753 Eh/a0  converged?    E=F G=F D=F
   step length   :     0.0447517 a0

........................................................................
.............................. CYCLE   39 ..............................
........................................................................
   1  -1291.0935235 -0.129109E+04  0.174E-03    8.06       0.0  T
   2  -1291.0935235 -0.449741E-07  0.107E-03    8.06       3.4  T
   3  -1291.0935235 -0.203029E-07  0.124E-04    8.06      29.4  T
   4  -1291.0935235 -0.113641E-08  0.404E-05    8.06      90.1  T
     SCC iter.                  ...        0 min,  2.308 sec
     gradient                   ...        0 min, 12.096 sec
 * total energy  : -1283.3169505 Eh     change       -0.3792532E-05 Eh
   gradient norm :     0.0018055 Eh/a0  converged?    E=F G=F D=F
   step length   :     0.0281459 a0

........................................................................
.............................. CYCLE   40 ..............................
........................................................................
   1  -1291.0935601 -0.129109E+04  0.206E-03    8.06       0.0  T
   2  -1291.0935601 -0.396610E-07  0.128E-03    8.06       2.8  T
   3  -1291.0935601 -0.182338E-07  0.936E-05    8.06      38.9  T
   4  -1291.0935601 -0.831051E-09  0.254E-05    8.06     142.9  T
     SCC iter.                  ...        0 min,  2.326 sec
     gradient                   ...        0 min, 12.094 sec
 * total energy  : -1283.3169555 Eh     change       -0.4996238E-05 Eh
   gradient norm :     0.0009211 Eh/a0  converged?    E=F G=F D=F
   step length   :     0.0212882 a0

........................................................................
.............................. CYCLE   41 ..............................
........................................................................
   1  -1291.0932261 -0.129109E+04  0.926E-03    8.06       0.0  T
   2  -1291.0932267 -0.621888E-06  0.581E-03    8.06       1.0  T
   3  -1291.0932271 -0.386422E-06  0.305E-04    8.06      11.9  T
   4  -1291.0932271 -0.164846E-08  0.652E-05    8.06      55.8  T
     SCC iter.                  ...        0 min,  2.327 sec
     gradient                   ...        0 min, 12.093 sec
 * total energy  : -1283.3169632 Eh     change       -0.7693554E-05 Eh
   gradient norm :     0.0027388 Eh/a0  converged?    E=F G=F D=F
   step length   :     0.0851846 a0

........................................................................
.............................. CYCLE   42 ..............................
........................................................................
   1  -1291.0930037 -0.129109E+04  0.857E-03    8.06       0.0  T
   2  -1291.0930043 -0.620921E-06  0.534E-03    8.06       1.0  T
   3  -1291.0930046 -0.343831E-06  0.366E-04    8.06       9.9  T
   4  -1291.0930046 -0.777936E-08  0.111E-04    8.06      32.8  T
     SCC iter.                  ...        0 min,  2.303 sec
     gradient                   ...        0 min, 12.096 sec
 * total energy  : -1283.3169584 Eh     change        0.4791347E-05 Eh
   gradient norm :     0.0041792 Eh/a0  converged?    E=F G=F D=F
   step length   :     0.1063212 a0
 * RMSD in coord.:     0.0518044 a0     energy gain  -0.2245369E-02 Eh
 * calculating model hessian...
Using Lindh-Hessian (1995)
 Shifting diagonal of input Hessian by   1.000006465327829E-002
 Lowest  eigenvalues of input Hessian
    0.010000   -0.000000   -0.000000   -0.000000   -0.000000   -0.000000
   -0.000000   -0.000000   -0.000000   -0.000000   -0.000000   -0.000000
   -0.000000   -0.000000   -0.000000   -0.000000   -0.000000   -0.000000
 Highest eigenvalues
    0.308016    0.315149    1.200707    1.214291    1.428859    1.433772
 

........................................................................
.............................. CYCLE   43 ..............................
........................................................................
   1  -1291.0935483 -0.129109E+04  0.301E-03    8.06       0.0  T
   2  -1291.0935485 -0.125173E-06  0.186E-03    8.06       2.0  T
   3  -1291.0935485 -0.472141E-07  0.191E-04    8.06      19.0  T
   4  -1291.0935485 -0.351179E-08  0.445E-05    8.06      81.8  T
     SCC iter.                  ...        0 min,  2.307 sec
     gradient                   ...        0 min, 12.098 sec
 * total energy  : -1283.3169768 Eh     change       -0.1838574E-04 Eh
   gradient norm :     0.0017549 Eh/a0  converged?    E=F G=F D=F
   step length   :     0.0281665 a0

........................................................................
.............................. CYCLE   44 ..............................
........................................................................
   1  -1291.0939614 -0.129109E+04  0.620E-03    8.06       0.0  T
   2  -1291.0939618 -0.379226E-06  0.389E-03    8.06       1.0  T
   3  -1291.0939620 -0.198435E-06  0.263E-04    8.06      13.9  T
   4  -1291.0939620 -0.545924E-08  0.739E-05    8.06      49.2  T
     SCC iter.                  ...        0 min,  2.318 sec
     gradient                   ...        0 min, 12.095 sec
 * total energy  : -1283.3169895 Eh     change       -0.1270175E-04 Eh
   gradient norm :     0.0011313 Eh/a0  converged?    E=F G=F D=F
   step length   :     0.0499691 a0

........................................................................
.............................. CYCLE   45 ..............................
........................................................................
   1  -1291.0932532 -0.129109E+04  0.948E-03    8.06       0.0  T
   2  -1291.0932540 -0.757886E-06  0.596E-03    8.06       1.0  T
   3  -1291.0932544 -0.449008E-06  0.333E-04    8.06      10.9  T
   4  -1291.0932544 -0.425280E-08  0.901E-05    8.06      40.4  T
     SCC iter.                  ...        0 min,  2.303 sec
     gradient                   ...        0 min, 12.095 sec
 * total energy  : -1283.3169961 Eh     change       -0.6610597E-05 Eh
   gradient norm :     0.0031080 Eh/a0  converged?    E=F G=F D=F
   step length   :     0.0718617 a0

........................................................................
.............................. CYCLE   46 ..............................
........................................................................
   1  -1291.0934581 -0.129109E+04  0.657E-04    8.06       0.0  T
   2  -1291.0934581 -0.177940E-07  0.368E-04    8.06       9.9  T
   3  -1291.0934581 -0.313889E-08  0.799E-05    8.06      45.5  T
     SCC iter.                  ...        0 min,  1.747 sec
     gradient                   ...        0 min, 12.096 sec
 * total energy  : -1283.3170011 Eh     change       -0.5023763E-05 Eh
   gradient norm :     0.0017180 Eh/a0  converged?    E=F G=F D=F
   step length   :     0.0071516 a0

........................................................................
.............................. CYCLE   47 ..............................
........................................................................
   1  -1291.0934744 -0.129109E+04  0.732E-03    8.06       0.0  T
   2  -1291.0934748 -0.419625E-06  0.461E-03    8.06       1.0  T
   3  -1291.0934751 -0.265431E-06  0.231E-04    8.06      15.8  T
   4  -1291.0934751 -0.302862E-09  0.326E-05    8.06     111.5  T
     SCC iter.                  ...        0 min,  2.292 sec
     gradient                   ...        0 min, 12.094 sec
 * total energy  : -1283.3170104 Eh     change       -0.9248391E-05 Eh
   gradient norm :     0.0020017 Eh/a0  converged?    E=F G=F D=F
   step length   :     0.0624066 a0

........................................................................
.............................. CYCLE   48 ..............................
........................................................................
   1  -1291.0934802 -0.129109E+04  0.492E-03    8.06       0.0  T
   2  -1291.0934805 -0.204424E-06  0.310E-03    8.06       1.2  T
   3  -1291.0934806 -0.129316E-06  0.161E-04    8.06      22.5  T
   4  -1291.0934806 -0.184855E-09  0.233E-05    8.06     156.3  T
     SCC iter.                  ...        0 min,  2.289 sec
     gradient                   ...        0 min, 12.095 sec
 * total energy  : -1283.3170172 Eh     change       -0.6886579E-05 Eh
   gradient norm :     0.0014798 Eh/a0  converged?    E=F G=F D=F
   step length   :     0.0454465 a0

........................................................................
.............................. CYCLE   49 ..............................
........................................................................
   1  -1291.0933352 -0.129109E+04  0.131E-02    8.06       0.0  T
   2  -1291.0933366 -0.146020E-05  0.821E-03    8.06       1.0  T
   3  -1291.0933375 -0.900324E-06  0.443E-04    8.06       8.2  T
   4  -1291.0933375 -0.390423E-08  0.103E-04    8.06      35.4  T
     SCC iter.                  ...        0 min,  2.292 sec
     gradient                   ...        0 min, 12.094 sec
 * total energy  : -1283.3170227 Eh     change       -0.5428074E-05 Eh
   gradient norm :     0.0041847 Eh/a0  converged?    E=F G=F D=F
   step length   :     0.1335994 a0

........................................................................
.............................. CYCLE   50 ..............................
........................................................................
   1  -1291.0948839 -0.129109E+04  0.324E-03    8.06       0.0  T
   2  -1291.0948845 -0.662503E-06  0.173E-03    8.06       2.1  T
   3  -1291.0948847 -0.112255E-06  0.475E-04    8.06       7.7  T
   4  -1291.0948847 -0.115908E-07  0.792E-05    8.06      45.9  T
     SCC iter.                  ...        0 min,  2.290 sec
     gradient                   ...        0 min, 12.100 sec
 * total energy  : -1283.3170135 Eh     change        0.9177282E-05 Eh
   gradient norm :     0.0060577 Eh/a0  converged?    E=F G=F D=F
   step length   :     0.0381696 a0

........................................................................
.............................. CYCLE   51 ..............................
........................................................................
   1  -1291.0939883 -0.129109E+04  0.289E-03    8.06       0.0  T
   2  -1291.0939885 -0.243742E-06  0.171E-03    8.06       2.1  T
   3  -1291.0939886 -0.726725E-07  0.319E-04    8.06      11.4  T
   4  -1291.0939886 -0.766545E-08  0.788E-05    8.06      46.1  T
     SCC iter.                  ...        0 min,  2.294 sec
     gradient                   ...        0 min, 12.094 sec
 * total energy  : -1283.3170359 Eh     change       -0.2236889E-04 Eh
   gradient norm :     0.0013545 Eh/a0  converged?    E=F G=F D=F
   step length   :     0.0312641 a0

........................................................................
.............................. CYCLE   52 ..............................
........................................................................
   1  -1291.0935404 -0.129109E+04  0.533E-03    8.06       0.0  T
   2  -1291.0935407 -0.272484E-06  0.335E-03    8.06       1.1  T
   3  -1291.0935408 -0.153631E-06  0.212E-04    8.06      17.2  T
   4  -1291.0935409 -0.256182E-08  0.599E-05    8.06      60.7  T
     SCC iter.                  ...        0 min,  2.297 sec
     gradient                   ...        0 min, 12.095 sec
 * total energy  : -1283.3170407 Eh     change       -0.4884930E-05 Eh
   gradient norm :     0.0021392 Eh/a0  converged?    E=F G=F D=F
   step length   :     0.0629501 a0

........................................................................
.............................. CYCLE   53 ..............................
........................................................................
   1  -1291.0935312 -0.129109E+04  0.292E-03    8.06       0.0  T
   2  -1291.0935313 -0.719006E-07  0.184E-03    8.06       2.0  T
   3  -1291.0935313 -0.445928E-07  0.963E-05    8.06      37.8  T
   4  -1291.0935313 -0.166438E-09  0.209E-05    8.06     173.7  T
     SCC iter.                  ...        0 min,  2.301 sec
     gradient                   ...        0 min, 12.097 sec
 * total energy  : -1283.3170457 Eh     change       -0.4928305E-05 Eh
   gradient norm :     0.0018169 Eh/a0  converged?    E=F G=F D=F
   step length   :     0.0461340 a0

........................................................................
.............................. CYCLE   54 ..............................
........................................................................
   1  -1291.0932363 -0.129109E+04  0.119E-02    8.06       0.0  T
   2  -1291.0932375 -0.119129E-05  0.750E-03    8.06       1.0  T
   3  -1291.0932382 -0.754262E-06  0.386E-04    8.06       9.4  T
   4  -1291.0932382 -0.662567E-09  0.495E-05    8.06      73.5  T
     SCC iter.                  ...        0 min,  2.302 sec
     gradient                   ...        0 min, 12.096 sec
 * total energy  : -1283.3170571 Eh     change       -0.1144704E-04 Eh
   gradient norm :     0.0029137 Eh/a0  converged?    E=F G=F D=F
   step length   :     0.2053650 a0

........................................................................
.............................. CYCLE   55 ..............................
........................................................................
   1  -1291.0941498 -0.129109E+04  0.358E-03    8.06       0.0  T
   2  -1291.0941503 -0.461245E-06  0.210E-03    8.06       1.7  T
   3  -1291.0941504 -0.987850E-07  0.437E-04    8.06       8.3  T
   4  -1291.0941504 -0.126438E-07  0.731E-05    8.06      49.8  T
     SCC iter.                  ...        0 min,  2.299 sec
     gradient                   ...        0 min, 12.100 sec
 * total energy  : -1283.3170565 Eh     change        0.6002115E-06 Eh
   gradient norm :     0.0035869 Eh/a0  converged?    E=F G=F D=F
   step length   :     0.0996900 a0

........................................................................
.............................. CYCLE   56 ..............................
........................................................................
   1  -1291.0935789 -0.129109E+04  0.634E-03    8.06       0.0  T
   2  -1291.0935794 -0.518460E-06  0.395E-03    8.06       1.0  T
   3  -1291.0935796 -0.225441E-06  0.358E-04    8.06      10.2  T
   4  -1291.0935796 -0.119639E-07  0.824E-05    8.06      44.2  T
     SCC iter.                  ...        0 min,  2.353 sec
     gradient                   ...        0 min, 12.098 sec
 * total energy  : -1283.3170723 Eh     change       -0.1575551E-04 Eh
   gradient norm :     0.0012110 Eh/a0  converged?    E=F G=F D=F
   step length   :     0.1019485 a0

........................................................................
.............................. CYCLE   57 ..............................
........................................................................
   1  -1291.0932244 -0.129109E+04  0.734E-03    8.06       0.0  T
   2  -1291.0932249 -0.543858E-06  0.460E-03    8.06       1.0  T
   3  -1291.0932252 -0.297297E-06  0.311E-04    8.06      11.7  T
   4  -1291.0932252 -0.608611E-08  0.855E-05    8.06      42.5  T
     SCC iter.                  ...        0 min,  2.297 sec
     gradient                   ...        0 min, 12.097 sec
 * total energy  : -1283.3170720 Eh     change        0.2605400E-06 Eh
   gradient norm :     0.0041746 Eh/a0  converged?    E=F G=F D=F
   step length   :     0.1591280 a0

........................................................................
.............................. CYCLE   58 ..............................
........................................................................
   1  -1291.0938564 -0.129109E+04  0.224E-03    8.06       0.0  T
   2  -1291.0938565 -0.127969E-06  0.135E-03    8.06       2.7  T
   3  -1291.0938565 -0.323673E-07  0.224E-04    8.06      16.2  T
   4  -1291.0938565 -0.401928E-08  0.395E-05    8.06      92.1  T
     SCC iter.                  ...        0 min,  2.298 sec
     gradient                   ...        0 min, 12.099 sec
 * total energy  : -1283.3170795 Eh     change       -0.7510653E-05 Eh
   gradient norm :     0.0020092 Eh/a0  converged?    E=F G=F D=F
   step length   :     0.0245953 a0

........................................................................
.............................. CYCLE   59 ..............................
........................................................................
   1  -1291.0938760 -0.129109E+04  0.235E-03    8.06       0.0  T
   2  -1291.0938761 -0.646680E-07  0.147E-03    8.06       2.5  T
   3  -1291.0938761 -0.392067E-07  0.125E-04    8.06      29.1  T
   4  -1291.0938761 -0.617320E-09  0.336E-05    8.06     108.1  T
     SCC iter.                  ...        0 min,  2.291 sec
     gradient                   ...        0 min, 12.099 sec
 * total energy  : -1283.3170833 Eh     change       -0.3749831E-05 Eh
   gradient norm :     0.0014716 Eh/a0  converged?    E=F G=F D=F
   step length   :     0.0627764 a0

........................................................................
.............................. CYCLE   60 ..............................
........................................................................
   1  -1291.0937649 -0.129109E+04  0.464E-03    8.06       0.0  T
   2  -1291.0937651 -0.187634E-06  0.292E-03    8.06       1.2  T
   3  -1291.0937652 -0.119269E-06  0.156E-04    8.06      23.3  T
   4  -1291.0937652 -0.538876E-10  0.132E-05    8.06     274.8  T
     SCC iter.                  ...        0 min,  2.297 sec
     gradient                   ...        0 min, 12.099 sec
 * total energy  : -1283.3170908 Eh     change       -0.7539474E-05 Eh
   gradient norm :     0.0005027 Eh/a0  converged?    E=F G=T D=F
   step length   :     0.1382100 a0

........................................................................
.............................. CYCLE   61 ..............................
........................................................................
   1  -1291.0904493 -0.129109E+04  0.249E-02    8.06       0.0  T
   2  -1291.0904570 -0.769096E-05  0.155E-02    8.06       1.0  T
   3  -1291.0904603 -0.333822E-05  0.140E-03    8.06       2.6  T
   4  -1291.0904605 -0.170338E-06  0.317E-04    8.06      11.5  T
   5  -1291.0904605 -0.641876E-09  0.238E-05    8.06     152.6  T
     SCC iter.                  ...        0 min,  2.859 sec
     gradient                   ...        0 min, 12.098 sec
 * total energy  : -1283.3169053 Eh     change        0.1855500E-03 Eh
   gradient norm :     0.0179937 Eh/a0  converged?    E=F G=F D=F
   step length   :     0.7277917 a0

........................................................................
.............................. CYCLE   62 ..............................
........................................................................
   1  -1291.0933687 -0.129109E+04  0.155E-02    8.06       0.0  T
   2  -1291.0933730 -0.426949E-05  0.956E-03    8.06       1.0  T
   3  -1291.0933744 -0.141936E-05  0.119E-03    8.06       3.1  T
   4  -1291.0933746 -0.134042E-06  0.253E-04    8.06      14.4  T
   5  -1291.0933746 -0.272621E-09  0.175E-05    8.06     208.1  T
     SCC iter.                  ...        0 min,  2.873 sec
     gradient                   ...        0 min, 12.099 sec
 * total energy  : -1283.3170990 Eh     change       -0.1936976E-03 Eh
   gradient norm :     0.0029935 Eh/a0  converged?    E=F G=F D=F
   step length   :     0.4144764 a0

........................................................................
.............................. CYCLE   63 ..............................
........................................................................
   1  -1291.0936731 -0.129109E+04  0.118E-03    8.06       0.0  T
   2  -1291.0936732 -0.415009E-07  0.698E-04    8.06       5.2  T
   3  -1291.0936732 -0.993168E-08  0.131E-04    8.06      27.9  T
     SCC iter.                  ...        0 min,  1.730 sec
     gradient                   ...        0 min, 12.096 sec
 * total energy  : -1283.3171049 Eh     change       -0.5921441E-05 Eh
   gradient norm :     0.0015252 Eh/a0  converged?    E=F G=F D=F
   step length   :     0.0542859 a0

........................................................................
.............................. CYCLE   64 ..............................
........................................................................
   1  -1291.0908584 -0.129109E+04  0.996E-03    8.06       0.0  T
   2  -1291.0908602 -0.175644E-05  0.605E-03    8.06       1.0  T
   3  -1291.0908607 -0.572908E-06  0.744E-04    8.06       4.9  T
   4  -1291.0908608 -0.506545E-07  0.181E-04    8.06      20.1  T
     SCC iter.                  ...        0 min,  2.296 sec
     gradient                   ...        0 min, 12.102 sec
 * total energy  : -1283.3168142 Eh     change        0.2906548E-03 Eh
   gradient norm :     0.0113362 Eh/a0  converged?    E=F G=F D=F
   step length   :     0.8020651 a0

........................................................................
.............................. CYCLE   65 ..............................
........................................................................
   1  -1291.0910774 -0.129109E+04  0.190E-03    8.06       0.0  T
   2  -1291.0910774 -0.461891E-07  0.119E-03    8.06       3.1  T
   3  -1291.0910774 -0.216539E-07  0.103E-04    8.06      35.3  T
   4  -1291.0910774 -0.969976E-09  0.273E-05    8.06     133.2  T
     SCC iter.                  ...        0 min,  2.297 sec
     gradient                   ...        0 min, 12.102 sec
 * total energy  : -1283.3168211 Eh     change       -0.6897675E-05 Eh
   gradient norm :     0.0109384 Eh/a0  converged?    E=F G=F D=F
   step length   :     0.1087036 a0

........................................................................
.............................. CYCLE   66 ..............................
........................................................................
   1  -1291.0925980 -0.129109E+04  0.167E-02    8.06       0.0  T
   2  -1291.0926021 -0.412111E-05  0.103E-02    8.06       1.0  T
   3  -1291.0926040 -0.191674E-05  0.110E-03    8.06       3.3  T
   4  -1291.0926041 -0.954772E-07  0.360E-04    8.06      10.1  T
   5  -1291.0926041 -0.446607E-08  0.489E-05    8.06      74.4  T
     SCC iter.                  ...        0 min,  2.868 sec
     gradient                   ...        0 min, 12.108 sec
 * total energy  : -1283.3165830 Eh     change        0.2380854E-03 Eh
   gradient norm :     0.0167795 Eh/a0  converged?    E=F G=F D=F
   step length   :     0.9003660 a0

........................................................................
.............................. CYCLE   67 ..............................
........................................................................
   1  -1291.0943124 -0.129109E+04  0.721E-03    8.06       0.0  T
   2  -1291.0943131 -0.789042E-06  0.440E-03    8.06       1.0  T
   3  -1291.0943134 -0.261509E-06  0.497E-04    8.06       7.3  T
   4  -1291.0943134 -0.250325E-07  0.133E-04    8.06      27.4  T
     SCC iter.                  ...        0 min,  2.295 sec
     gradient                   ...        0 min, 12.101 sec
 * total energy  : -1283.3169257 Eh     change       -0.3426735E-03 Eh
   gradient norm :     0.0115852 Eh/a0  converged?    E=F G=F D=F
   step length   :     0.4499405 a0
 * RMSD in coord.:     0.1007185 a0     energy gain   0.3266842E-04 Eh
 * calculating model hessian...
Using Lindh-Hessian (1995)
 Shifting diagonal of input Hessian by   1.000016780458623E-002
 Lowest  eigenvalues of input Hessian
    0.010000    0.010000   -0.000000   -0.000000   -0.000000   -0.000000
   -0.000000   -0.000000   -0.000000   -0.000000   -0.000000   -0.000000
   -0.000000   -0.000000   -0.000000   -0.000000   -0.000000   -0.000000
 Highest eigenvalues
    0.310448    0.321233    1.194733    1.232981    1.440926    1.443445
 

........................................................................
.............................. CYCLE   68 ..............................
........................................................................
   1  -1291.0937626 -0.129109E+04  0.783E-03    8.06       0.0  T
   2  -1291.0937637 -0.111275E-05  0.476E-03    8.06       1.0  T
   3  -1291.0937641 -0.374628E-06  0.555E-04    8.06       6.6  T
   4  -1291.0937641 -0.329931E-07  0.150E-04    8.06      24.2  T
     SCC iter.                  ...        0 min,  2.290 sec
     gradient                   ...        0 min, 12.101 sec
 * total energy  : -1283.3171339 Eh     change       -0.2082002E-03 Eh
   gradient norm :     0.0032376 Eh/a0  converged?    E=F G=F D=F
   step length   :     0.1062203 a0

........................................................................
.............................. CYCLE   69 ..............................
........................................................................
   1  -1291.0938862 -0.129109E+04  0.200E-03    8.06       0.0  T
   2  -1291.0938862 -0.445957E-07  0.120E-03    8.06       3.0  T
   3  -1291.0938862 -0.154312E-07  0.111E-04    8.06      32.7  T
   4  -1291.0938862 -0.125215E-08  0.323E-05    8.06     112.6  T
     SCC iter.                  ...        0 min,  2.289 sec
     gradient                   ...        0 min, 12.102 sec
 * total energy  : -1283.3171614 Eh     change       -0.2748021E-04 Eh
   gradient norm :     0.0019960 Eh/a0  converged?    E=F G=F D=F
   step length   :     0.0367982 a0

........................................................................
.............................. CYCLE   70 ..............................
........................................................................
   1  -1291.0939708 -0.129109E+04  0.106E-03    8.06       0.0  T
   2  -1291.0939708 -0.378373E-07  0.620E-04    8.06       5.9  T
   3  -1291.0939708 -0.804289E-08  0.122E-04    8.06      29.8  T
     SCC iter.                  ...        0 min,  1.727 sec
     gradient                   ...        0 min, 12.102 sec
 * total energy  : -1283.3171670 Eh     change       -0.5591883E-05 Eh
   gradient norm :     0.0005520 Eh/a0  converged?    E=F G=T D=F
   step length   :     0.0165611 a0

........................................................................
.............................. CYCLE   71 ..............................
........................................................................
   1  -1291.0939729 -0.129109E+04  0.606E-04    8.06       0.0  T
   2  -1291.0939729 -0.458544E-08  0.366E-04    8.06       9.9  T
   3  -1291.0939729 -0.165369E-08  0.393E-05    8.06      92.6  T
     SCC iter.                  ...        0 min,  1.726 sec
     gradient                   ...        0 min, 12.104 sec
 * total energy  : -1283.3171677 Eh     change       -0.7398521E-06 Eh
   gradient norm :     0.0002203 Eh/a0  converged?    E=T G=T D=F
   step length   :     0.0092296 a0

   *** GEOMETRY OPTIMIZATION CONVERGED AFTER 71 CYCLES ***

------------------------------------------------------------------------
 total energy gain   :        -0.0119274 Eh       -7.4845 kcal/mol
 total RMSD          :         0.1766054 a0        0.0935 Å
 total power (kW/mol):        -0.4410613 (step)   -0.0271 (real)
------------------------------------------------------------------------

 L-ANCopt (total)              0 d,  0 h, 19 min, 15.744 sec
 setup                          ...        0 min,  0.030 sec (  0.003%)
 model hessian                  ...        0 min, 29.515 sec (  2.554%)
 ANC generation                 ...        0 min,  9.579 sec (  0.829%)
 coordinate transformation      ...        0 min,  0.006 sec (  0.001%)
 Rational function              ...        0 min,  0.000 sec (  0.000%)
 singlepoint calculation        ...       18 min, 36.127 sec ( 96.572%)
 optimization log               ...        0 min,  0.475 sec (  0.041%)
 hessian update                 ...        0 min,  0.002 sec (  0.000%)

================
 final structure:
================
$coord
       -7.52795432782196      -13.84670380601719       -7.70337994663819      o
       -6.70257521742722      -12.35669739833024       -8.38763357481005      h
       -8.54999338973930      -13.23455883761673       -6.31543811652205      h
        7.22380166770722       -7.12511709913230       11.82842391564605      o
        6.39698256875134       -6.05468316968198       10.53638912261866      h
        6.07706031926047       -7.14039887485205       13.23797555095128      h
        4.30935125311335        2.42281552177764       -5.20925822322757      o
        4.23904575925992        3.88432325644568       -4.12561309531632      h
        3.50886105480111        1.04867993968563       -4.29389829563014      h
       10.04174885311563       -3.52354327678487        0.53102687084478      o
        9.96932295654603       -4.59661280191828        2.02037642018069      h
        9.98786929336294       -4.64380848848158       -0.92525987435492      h
        4.87665166035320       -4.60325247422924       -2.79219215334351      o
        5.17941644676882       -5.21499155594887       -1.08048481580578      h
        4.35761775647681       -6.01573410467428       -3.80482846900891      h
        1.42343480972670       -9.13060907114397       -3.48663093402679      o
        0.65976793334010       -7.51061542251417       -4.00674648623411      h
        1.38048400851572       -9.20777925566864       -1.65310493443926      h
        6.35361574134873       -1.62899181155255        4.86445238198692      o
        7.85608406869287       -0.61287608503933        4.57917088047296      h
        6.17937791979212       -1.93573212084034        6.66144214511363      h
       -0.53378435233313       -4.94769299554093       -5.19977715746955      o
       -1.40356994157274       -3.79132463212736       -4.00172434148066      h
        0.85374061935023       -3.99531722149242       -5.96037954144149      h
        6.14324225648008       -9.72265978852370        6.59366370467201      o
        7.23982237690980      -11.17540810616403        6.62075325704657      h
        7.20158878350145       -8.29332490364471        6.10132344991371      h
       -0.91985313144513        3.88087321023544        3.67341541886897      o
       -0.05598396140431        2.25960109793884        3.55453935605565      h
        0.15249510834991        4.89487269407583        4.78428563408066      h
       -1.44696738612645       10.49401099850331        6.64214491586808      o
       -0.74391602352742       10.23296372825902        8.32276993402943      h
       -1.53832514968839       12.32210536295724        6.30565471766464      h
       -1.50295389223592       -0.14556531321496        7.69230554823873      o
       -3.19060322471258       -0.65864972164485        7.16912135963742      h
       -0.42336736654145       -0.49757657084551        6.22829616336850      h
        5.93999664498137       -6.92288483257797       -7.36612879548326      o
        7.42710469947331       -6.63608108179193       -8.37547912621940      h
        4.72839359877257       -5.63708096753870       -7.85198587652792      h
       -5.63748469388120        4.01316759000667        5.30713382317262      o
       -6.11026454953945        2.30068247981935        5.76865329379408      h
       -3.87117659987784        3.94983607232115        4.73811253302875      h
[...]
   385   8 o      386   1 h                                       0.9705674
   385   8 o      387   1 h                                       0.9757604
   388   8 o      389   1 h                                       0.9787052
   388   8 o      390   1 h                                       0.9586304
   391   8 o      392   1 h                                       0.9706258
   391   8 o      393   1 h                                       0.9718546
   394   8 o      395   1 h                                       0.9870082
   394   8 o      396   1 h                                       0.9748230
   397   8 o      398   1 h                                       0.9809891
   397   8 o      399   1 h                                       0.9805569
   400   8 o      401   1 h                                       0.9771900
   400   8 o      402   1 h                                       0.9821410
   403   8 o      404   1 h                                       0.9842480
   403   8 o      405   1 h                                       0.9723105
   406   8 o      407   1 h                                       0.9640758
   406   8 o      408   1 h                                       0.9838220
   409   8 o      410   1 h                                       0.9635144
   409   8 o      411   1 h                                       0.9828527
   412   8 o      413   1 h                                       0.9697902
   412   8 o      414   1 h                                       0.9839658
   415   8 o      416   1 h                                       0.9683957
   415   8 o      417   1 h                                       0.9757366
   418   8 o      419   1 h                                       0.9766831
   418   8 o      420   1 h                                       0.9624476
   421   8 o      422   1 h                                       0.9645628
   421   8 o      423   1 h                                       0.9720186
   424   8 o      425   1 h                                       0.9653647
   424   8 o      426   1 h                                       0.9709681
   427   8 o      428   1 h                                       0.9723705
   427   8 o      429   1 h                                       0.9618399
   430   8 o      431   1 h                                       0.9718285
   430   8 o      432   1 h                                       0.9615095
   433   8 o      434   1 h                                       0.9656031
   433   8 o      435   1 h                                       0.9811048
   436   8 o      437   1 h                                       0.9675301
   436   8 o      438   1 h                                       0.9678294
   439   8 o      440   1 h                                       0.9684919
   439   8 o      441   1 h                                       0.9780549
   442   8 o      443   1 h                                       0.9671841
   442   8 o      444   1 h                                       0.9672228
   445   8 o      446   1 h                                       0.9784957
   445   8 o      447   1 h                                       0.9661245
   448   8 o      449   1 h                                       0.9575105
   448   8 o      450   1 h                                       0.9846074
   451   8 o      452   1 h                                       0.9903723
   451   8 o      453   1 h                                       0.9569878
   454   8 o      455   1 h                                       0.9628530
   454   8 o      456   1 h                                       0.9689083
   457   8 o      458   1 h                                       0.9615963
   457   8 o      459   1 h                                       0.9841829
   460   8 o      461   1 h                                       0.9974031 (max)
   460   8 o      462   1 h                                       0.9573006
   463   8 o      464   1 h                                       0.9660367
   463   8 o      465   1 h                                       0.9760425
   466   8 o      467   1 h                                       0.9750215
   466   8 o      468   1 h                                       0.9788105
   469   8 o      470   1 h                                       0.9927232
   469   8 o      471   1 h                                       0.9580804
   472   8 o      473   1 h                                       0.9679332
   472   8 o      474   1 h                                       0.9616292
   475   8 o      476   1 h                                       0.9810743
   475   8 o      477   1 h                                       0.9682843
   478   8 o      479   1 h                                       0.9723852
   478   8 o      480   1 h                                       0.9668070
   481   8 o      482   1 h                                       0.9791325
   481   8 o      483   1 h                                       0.9728843
   484   8 o      485   1 h                                       0.9738599
   484   8 o      486   1 h                                       0.9713390
   487   8 o      488   1 h                                       0.9679344
   487   8 o      489   1 h                                       0.9789880
   490   8 o      491   1 h                                       0.9631685
   490   8 o      492   1 h                                       0.9798282
   493   8 o      494   1 h                                       0.9783812
   493   8 o      495   1 h                                       0.9700581
   496   8 o      497   1 h                                       0.9858829
   496   8 o      498   1 h                                       0.9832096
   499   8 o      500   1 h                                       0.9719332
   499   8 o      501   1 h                                       0.9774202
   502   8 o      503   1 h                                       0.9716627
   502   8 o      504   1 h                                       0.9770196
   505   8 o      506   1 h                                       0.9798734
   505   8 o      507   1 h                                       0.9737526
   508   8 o      509   1 h                                       0.9696529
   508   8 o      510   1 h                                       0.9753890
   511   8 o      512   1 h                                       0.9785975
   511   8 o      513   1 h                                       0.9740326
   514   8 o      515   1 h                                       0.9645172
   514   8 o      516   1 h                                       0.9881665
   517   8 o      518   1 h                                       0.9775677
   517   8 o      519   1 h                                       0.9735376
   520   8 o      521   1 h                                       0.9742233
   520   8 o      522   1 h                                       0.9724664
   523   8 o      524   1 h                                       0.9714555
   523   8 o      525   1 h                                       0.9738966
   526   8 o      527   1 h                                       0.9714485
   526   8 o      528   1 h                                       0.9661142
   529   8 o      530   1 h                                       0.9701073
   529   8 o      531   1 h                                       0.9741181
   532   8 o      533   1 h                                       0.9905670
   532   8 o      534   1 h                                       0.9564947
   535   8 o      536   1 h                                       0.9782159
   535   8 o      537   1 h                                       0.9702086
   538   8 o      539   1 h                                       0.9703215
   538   8 o      540   1 h                                       0.9689018
   541   8 o      542   1 h                                       0.9676534
   541   8 o      543   1 h                                       0.9899448
   544   8 o      545   1 h                                       0.9633307
   544   8 o      546   1 h                                       0.9629332
   547   8 o      548   1 h                                       0.9754523
   547   8 o      549   1 h                                       0.9879968
   550   8 o      551   1 h                                       0.9654319
   550   8 o      552   1 h                                       0.9729470
   553   8 o      554   1 h                                       0.9784477
   553   8 o      555   1 h                                       0.9652484
   556   8 o      557   1 h                                       0.9848262
   556   8 o      558   1 h                                       0.9568764
   559   8 o      560   1 h                                       0.9749842
   559   8 o      561   1 h                                       0.9669733
   562   8 o      563   1 h                                       0.9651157
   562   8 o      564   1 h                                       0.9728937
   565   8 o      566   1 h                                       0.9713335
   565   8 o      567   1 h                                       0.9762623
   568   8 o      569   1 h                                       0.9838873
   568   8 o      570   1 h                                       0.9583478
   571   8 o      572   1 h                                       0.9778803
   571   8 o      573   1 h                                       0.9687257
   574   8 o      575   1 h                                       0.9739303
   574   8 o      576   1 h                                       0.9739500
   577   8 o      578   1 h                                       0.9801014
   577   8 o      579   1 h                                       0.9727573
   580   8 o      581   1 h                                       0.9797122
   580   8 o      582   1 h                                       0.9572692
   583   8 o      584   1 h                                       0.9889452
   583   8 o      585   1 h                                       0.9785721
   586   8 o      587   1 h                                       0.9584348
   586   8 o      588   1 h                                       0.9863668
   589   8 o      590   1 h                                       0.9742860
   589   8 o      591   1 h                                       0.9685341
   592   8 o      593   1 h                                       0.9701992
   592   8 o      594   1 h                                       0.9650079
   595   8 o      596   1 h                                       0.9755855
   595   8 o      597   1 h                                       0.9663677
   598   8 o      599   1 h                                       0.9706271
   598   8 o      600   1 h                                       0.9814190
   601   8 o      602   1 h                                       0.9851875
   601   8 o      603   1 h                                       0.9702389
   604   8 o      605   1 h                                       0.9624391
   604   8 o      606   1 h                                       0.9937424
   607   8 o      608   1 h                                       0.9588010
   607   8 o      609   1 h                                       0.9940758
   610   8 o      611   1 h                                       0.9935926
   610   8 o      612   1 h                                       0.9847147
   613   8 o      614   1 h                                       0.9649263
   613   8 o      615   1 h                                       0.9727313
   616   8 o      617   1 h                                       0.9916367
   616   8 o      618   1 h                                       0.9608474
   619   8 o      620   1 h                                       0.9683352
   619   8 o      621   1 h                                       0.9756919
   622   8 o      623   1 h                                       0.9789955
   622   8 o      624   1 h                                       0.9700462
   625   8 o      626   1 h                                       0.9727503
   625   8 o      627   1 h                                       0.9767375
   628   8 o      629   1 h                                       0.9656898
   628   8 o      630   1 h                                       0.9813335
   631   8 o      632   1 h                                       0.9834257
   631   8 o      633   1 h                                       0.9745270
   634   8 o      635   1 h                                       0.9674341
   634   8 o      636   1 h                                       0.9692076
   637   8 o      638   1 h                                       0.9783998
   637   8 o      639   1 h                                       0.9713743
   640   8 o      641   1 h                                       0.9675898
   640   8 o      642   1 h                                       0.9602799
   643   8 o      644   1 h                                       0.9813672
   643   8 o      645   1 h                                       0.9720631
   646   8 o      647   1 h                                       0.9599692
   646   8 o      648   1 h                                       0.9685720
   649   8 o      650   1 h                                       0.9615534
   649   8 o      651   1 h                                       0.9813814
   652   8 o      653   1 h                                       0.9721817
   652   8 o      654   1 h                                       0.9768291
   655   8 o      656   1 h                                       0.9574581
   655   8 o      657   1 h                                       0.9927804
   658   8 o      659   1 h                                       0.9719374
   658   8 o      660   1 h                                       0.9821003
   661   8 o      662   1 h                                       0.9691755
   661   8 o      663   1 h                                       0.9670664
   664   8 o      665   1 h                                       0.9753470
   664   8 o      666   1 h                                       0.9662119
   667   8 o      668   1 h                                       0.9825732
   667   8 o      669   1 h                                       0.9668551
   670   8 o      671   1 h                                       0.9706654
   670   8 o      672   1 h                                       0.9796288
   673   8 o      674   1 h                                       0.9850646
   673   8 o      675   1 h                                       0.9611813
   676   8 o      677   1 h                                       0.9829249
   676   8 o      678   1 h                                       0.9707796
   679   8 o      680   1 h                                       0.9855958
   679   8 o      681   1 h                                       0.9691135
   682   8 o      683   1 h                                       0.9696711
   682   8 o      684   1 h                                       0.9611093
   685   8 o      686   1 h                                       0.9733524
   685   8 o      687   1 h                                       0.9665418
   688   8 o      689   1 h                                       0.9781567
   688   8 o      690   1 h                                       0.9710676
   691   8 o      692   1 h                                       0.9887355
   691   8 o      693   1 h                                       0.9726074
   694   8 o      695   1 h                                       0.9697351
   694   8 o      696   1 h                                       0.9617136
   697   8 o      698   1 h                                       0.9772672
   697   8 o      699   1 h                                       0.9759861
   700   8 o      701   1 h                                       0.9566154
   703   8 o      704   1 h                                       0.9649410
   703   8 o      705   1 h                                       0.9649639
   706   8 o      707   1 h                                       0.9801080
   706   8 o      708   1 h                                       0.9689950
   709   8 o      710   1 h                                       0.9776169
   709   8 o      711   1 h                                       0.9643136
   712   8 o      713   1 h                                       0.9669361
   712   8 o      714   1 h                                       0.9782641
   715   8 o      716   1 h                                       0.9707163
   715   8 o      717   1 h                                       0.9635596
   718   8 o      719   1 h                                       0.9744231
   718   8 o      720   1 h                                       0.9772574
   721   8 o      722   1 h                                       0.9751869
   721   8 o      723   1 h                                       0.9632260
   724   8 o      725   1 h                                       0.9759204
   724   8 o      726   1 h                                       0.9824868
   727   8 o      728   1 h                                       0.9754219
   727   8 o      729   1 h                                       0.9793002
   730   8 o      731   1 h                                       0.9681787
   730   8 o      732   1 h                                       0.9751704
   733   8 o      734   1 h                                       0.9738248
   733   8 o      735   1 h                                       0.9675444
   736   8 o      737   1 h                                       0.9822511
   736   8 o      738   1 h                                       0.9562291 (min)
   739   8 o      740   1 h                                       0.9765827
   739   8 o      741   1 h                                       0.9716911
   742   8 o      743   1 h                                       0.9722844
   742   8 o      744   1 h                                       0.9806509
   745   8 o      746   1 h                                       0.9566498
   745   8 o      747   1 h                                       0.9860825
   748   8 o      749   1 h                                       0.9838288
   748   8 o      750   1 h                                       0.9670121
   751   8 o      752   1 h                                       0.9582934
   751   8 o      753   1 h                                       0.9760694
   754   8 o      755   1 h                                       0.9592350
   754   8 o      756   1 h                                       0.9591489

 * 1 distinct bonds (by element types)

   Z      Z             #   av. dist./Å        max./Å        min./Å
   1 H    8 O         503     0.9737290     0.9974031     0.9562291


optimized geometry written to: xtbopt.coord


           -------------------------------------------------
          | TOTAL ENERGY            -1283.317167724569 Eh   |
          | GRADIENT NORM               0.000223067773 Eh/α |
          | HOMO-LUMO GAP               8.060565094348 eV   |
           -------------------------------------------------

------------------------------------------------------------------------
 * finished run on 2022/11/24 at 09:27:46.503     
------------------------------------------------------------------------
 total:
 * wall-time:     0 d,  0 h, 19 min, 54.136 sec
 *  cpu-time:     0 d,  0 h, 29 min, 24.967 sec
 * ratio c/w:     1.478 speedup
 SCF:
 * wall-time:     0 d,  0 h,  0 min, 22.716 sec
 *  cpu-time:     0 d,  0 h,  0 min, 36.970 sec
 * ratio c/w:     1.627 speedup
 ANC optimizer:
 * wall-time:     0 d,  0 h, 19 min, 30.386 sec
 *  cpu-time:     0 d,  0 h, 28 min, 46.258 sec
 * ratio c/w:     1.475 speedup

