      -----------------------------------------------------------      
     |                   =====================                   |     
     |                           x T B                           |     
     |                   =====================                   |     
     |                         S. Grimme                         |     
     |          Mulliken Center for Theoretical Chemistry        |     
     |                    University of Bonn                     |     
      -----------------------------------------------------------      

   * xtb version 6.5.1 (579679a) compiled by 'ehlert@majestix' on 2022-07-11

   xtb is free software: you can redistribute it and/or modify it under
   the terms of the GNU Lesser General Public License as published by
   the Free Software Foundation, either version 3 of the License, or
   (at your option) any later version.
   
   xtb is distributed in the hope that it will be useful,
   but WITHOUT ANY WARRANTY; without even the implied warranty of
   MERCHANTABILITY or FITNESS FOR A PARTICULAR PURPOSE.  See the
   GNU Lesser General Public License for more details.
   
   Cite this work as:
   * C. Bannwarth, E. Caldeweyher, S. Ehlert, A. Hansen, P. Pracht,
     J. Seibert, S. Spicher, S. Grimme, WIREs Comput. Mol. Sci., 2020, 11,
     e01493. DOI: 10.1002/wcms.1493
   
   for GFN2-xTB:
   * C. Bannwarth, S. Ehlert and S. Grimme., J. Chem. Theory Comput., 2019,
     15, 1652-1671. DOI: 10.1021/acs.jctc.8b01176
   for GFN1-xTB:
   * S. Grimme, C. Bannwarth, P. Shushkov, J. Chem. Theory Comput., 2017,
     13, 1989-2009. DOI: 10.1021/acs.jctc.7b00118
   for GFN0-xTB:
   * P. Pracht, E. Caldeweyher, S. Ehlert, S. Grimme, ChemRxiv, 2019, preprint.
     DOI: 10.26434/chemrxiv.8326202.v1
   for GFN-FF:
   * S. Spicher and S. Grimme, Angew. Chem. Int. Ed., 2020, 59, 15665-15673.
     DOI: 10.1002/anie.202004239
   
   for ALPB and GBSA implicit solvation:
   * S. Ehlert, M. Stahn, S. Spicher, S. Grimme, J. Chem. Theory Comput.,
     2021, 17, 4250-4261. DOI: 10.1021/acs.jctc.1c00471
   
   for DFT-D4:
   * E. Caldeweyher, C. Bannwarth and S. Grimme, J. Chem. Phys., 2017,
     147, 034112. DOI: 10.1063/1.4993215
   * E. Caldeweyher, S. Ehlert, A. Hansen, H. Neugebauer, S. Spicher,
     C. Bannwarth and S. Grimme, J. Chem. Phys., 2019, 150, 154122.
     DOI: 10.1063/1.5090222
   * E. Caldeweyher, J.-M. Mewes, S. Ehlert and S. Grimme, Phys. Chem. Chem. Phys.
     2020, 22, 8499-8512. DOI: 10.1039/D0CP00502A
   
   for sTDA-xTB:
   * S. Grimme and C. Bannwarth, J. Chem. Phys., 2016, 145, 054103.
     DOI: 10.1063/1.4959605
   
   in the mass-spec context:
   * V. Asgeirsson, C. Bauer and S. Grimme, Chem. Sci., 2017, 8, 4879.
     DOI: 10.1039/c7sc00601b
   * J. Koopman and S. Grimme, ACS Omega 2019, 4, 12, 15120-15133.
     DOI: 10.1021/acsomega.9b02011
   
   for metadynamics refer to:
   * S. Grimme, J. Chem. Theory Comput., 2019, 155, 2847-2862
     DOI: 10.1021/acs.jctc.9b00143
   
   for SPH calculations refer to:
   * S. Spicher and S. Grimme, J. Chem. Theory Comput., 2021, 17, 1701-1714
     DOI: 10.1021/acs.jctc.0c01306
   
   with help from (in alphabetical order)
   P. Atkinson, C. Bannwarth, F. Bohle, G. Brandenburg, E. Caldeweyher
   M. Checinski, S. Dohm, S. Ehlert, S. Ehrlich, I. Gerasimov, C. Hölzer
   A. Katbashev, J. Koopman, C. Lavigne, S. Lehtola, F. März, M. Müller,
   F. Musil, H. Neugebauer, J. Pisarek, C. Plett, P. Pracht, F. Pultar,
   J. Seibert, P. Shushkov, S. Spicher, M. Stahn, M. Steiner, T. Strunk,
   J. Stückrath, T. Rose, and J. Unsleber
   
 * started run on 2022/11/24 at 09:27:46.526     

           -------------------------------------------------
          |                Calculation Setup                |
           -------------------------------------------------

          program call               : xtb xtbopt.coord --gfn2 --sp --gbsa water
          hostname                   : cn0341
          coordinate file            : xtbopt.coord
          omp threads                :                     2

   ID    Z sym.   atoms
    1    8 o      1, 4, 7, 10, 13, 16, 19, 22, 25, 28, 31, 34, 37, 40, 43,
                  46, 49, 52, 55, 58, 61, 64, 67, 70, 73, 76, 79, 82, 85, 88,
                  91, 94, 97, 100, 103, 106, 109, 112, 115, 118, 121, 124,
                  127, 130, 133, 136, 139, 142, 145, 148, 151, 154, 157, 160,
                  163, 166, 169, 172, 175, 178, 181, 184, 187, 190, 193, 196,
                  199, 202, 205, 208, 211, 214, 217, 220, 223, 226, 229, 232,
                  235, 238, 241, 244, 247, 250, 253, 256, 259, 262, 265, 268,
                  271, 274, 277, 280, 283, 286, 289, 292, 295, 298, 301, 304,
                  307, 310, 313, 316, 319, 322, 325, 328, 331, 334, 337, 340,
                  343, 346, 349, 352, 355, 358, 361, 364, 367, 370, 373, 376,
                  379, 382, 385, 388, 391, 394, 397, 400, 403, 406, 409, 412,
                  415, 418, 421, 424, 427, 430, 433, 436, 439, 442, 445, 448,
                  451, 454, 457, 460, 463, 466, 469, 472, 475, 478, 481, 484,
                  487, 490, 493, 496, 499, 502, 505, 508, 511, 514, 517, 520,
                  523, 526, 529, 532, 535, 538, 541, 544, 547, 550, 553, 556,
                  559, 562, 565, 568, 571, 574, 577, 580, 583, 586, 589, 592,
                  595, 598, 601, 604, 607, 610, 613, 616, 619, 622, 625, 628,
                  631, 634, 637, 640, 643, 646, 649, 652, 655, 658, 661, 664,
                  667, 670, 673, 676, 679, 682, 685, 688, 691, 694, 697, 700,
                  703, 706, 709, 712, 715, 718, 721, 724, 727, 730, 733, 736,
                  739, 742, 745, 748, 751, 754
    2    1 h      2, 3, 5, 6, 8, 9, 11, 12, 14, 15, 17, 18, 20, 21, 23, 24,
                  26, 27, 29, 30, 32, 33, 35, 36, 38, 39, 41, 42, 44, 45, 47,
                  48, 50, 51, 53, 54, 56, 57, 59, 60, 62, 63, 65, 66, 68, 69,
                  71, 72, 74, 75, 77, 78, 80, 81, 83, 84, 86, 87, 89, 90, 92,
                  93, 95, 96, 98, 99, 101, 102, 104, 105, 107, 108, 110, 111,
                  113, 114, 116, 117, 119, 120, 122, 123, 125, 126, 128, 129,
                  131, 132, 134, 135, 137, 138, 140, 141, 143, 144, 146, 147,
                  149, 150, 152, 153, 155, 156, 158, 159, 161, 162, 164, 165,
                  167, 168, 170, 171, 173, 174, 176, 177, 179, 180, 182, 183,
                  185, 186, 188, 189, 191, 192, 194, 195, 197, 198, 200, 201,
                  203, 204, 206, 207, 209, 210, 212, 213, 215, 216, 218, 219,
                  221, 222, 224, 225, 227, 228, 230, 231, 233, 234, 236, 237,
                  239, 240, 242, 243, 245, 246, 248, 249, 251, 252, 254, 255,
                  257, 258, 260, 261, 263, 264, 266, 267, 269, 270, 272, 273,
                  275, 276, 278, 279, 281, 282, 284, 285, 287, 288, 290, 291,
                  293, 294, 296, 297, 299, 300, 302, 303, 305, 306, 308, 309,
                  311, 312, 314, 315, 317, 318, 320, 321, 323, 324, 326, 327,
                  329, 330, 332, 333, 335, 336, 338, 339, 341, 342, 344, 345,
                  347, 348, 350, 351, 353, 354, 356, 357, 359, 360, 362, 363,
                  365, 366, 368, 369, 371, 372, 374, 375, 377, 378, 380, 381,
                  383, 384, 386, 387, 389, 390, 392, 393, 395, 396, 398, 399,
                  401, 402, 404, 405, 407, 408, 410, 411, 413, 414, 416, 417,
                  419, 420, 422, 423, 425, 426, 428, 429, 431, 432, 434, 435,
                  437, 438, 440, 441, 443, 444, 446, 447, 449, 450, 452, 453,
                  455, 456, 458, 459, 461, 462, 464, 465, 467, 468, 470, 471,
                  473, 474, 476, 477, 479, 480, 482, 483, 485, 486, 488, 489,
                  491, 492, 494, 495, 497, 498, 500, 501, 503, 504, 506, 507,
                  509, 510, 512, 513, 515, 516, 518, 519, 521, 522, 524, 525,
                  527, 528, 530, 531, 533, 534, 536, 537, 539, 540, 542, 543,
                  545, 546, 548, 549, 551, 552, 554, 555, 557, 558, 560, 561,
                  563, 564, 566, 567, 569, 570, 572, 573, 575, 576, 578, 579,
                  581, 582, 584, 585, 587, 588, 590, 591, 593, 594, 596, 597,
                  599, 600, 602, 603, 605, 606, 608, 609, 611, 612, 614, 615,
                  617, 618, 620, 621, 623, 624, 626, 627, 629, 630, 632, 633,
                  635, 636, 638, 639, 641, 642, 644, 645, 647, 648, 650, 651,
                  653, 654, 656, 657, 659, 660, 662, 663, 665, 666, 668, 669,
                  671, 672, 674, 675, 677, 678, 680, 681, 683, 684, 686, 687,
                  689, 690, 692, 693, 695, 696, 698, 699, 701, 702, 704, 705,
                  707, 708, 710, 711, 713, 714, 716, 717, 719, 720, 722, 723,
                  725, 726, 728, 729, 731, 732, 734, 735, 737, 738, 740, 741,
                  743, 744, 746, 747, 749, 750, 752, 753, 755, 756

molecular fragmentation (1/2 indicates fragments):
111222222222222222222222222222222222222222222222222222222222222222222222
222222222222222222222222222222222222222222222222222222222222222222222222
222222222222222222222222222222222222222222222222222222222222222222222222
222222222222222222222222222222222222222222222222222222222222222222222222
222222222222222222222222222222222222222222222222222222222222222222222222
222222222222222222222222222222222222222222222222222222222222222222222222
222222222222222222222222222222222222222222222222222222222222222222222222
222222222222222222222222222222222222222222222222222222222222222222222222
222222222222222222222222222222222222222222222222222222222222222222222222
222222222222222222222222222222222222222222222222222222222222222222222222
222222222222222222222222222222222222
# atoms in fragment 1/2:     3   753
 fragment masses (1/2) :       18.02     4521.84
CMA distance (Bohr)    :  17.368
constraining FC (au)   :  0.0500

           -------------------------------------------------
          |                 G F N 2 - x T B                 |
           -------------------------------------------------

        Reference                      10.1021/acs.jctc.8b01176
      * Hamiltonian:
        H0-scaling (s, p, d)           1.850000    2.230000    2.230000
        zeta-weighting                 0.500000
      * Dispersion:
        s8                             2.700000
        a1                             0.520000
        a2                             5.000000
        s9                             5.000000
      * Repulsion:
        kExp                           1.500000    1.000000
        rExp                           1.000000
      * Coulomb:
        alpha                          2.000000
        third order                    shell-resolved
        anisotropic                    true
        a3                             3.000000
        a5                             4.000000
        cn-shift                       1.200000
        cn-exp                         4.000000
        max-rad                        5.000000

      * Solvation model:               GBSA
        Solvent                        water
        Parameter file                 internal GFN2-xTB/GBSA
        Dielectric constant                8.0200E+01
        Reference state                gsolv [1 M gas/solution]
        Free energy shift                  1.8574E-03 Eh       1.1656E+00 kcal/mol
        Temperature                        2.9815E+02 K
        Density                            1.0000E+00 kg/L
        Solvent mass                       1.8000E+01 g/mol
        Interaction kernel             Still
        Born radius scaling (c1)           1.5524E+00
        Born radii integrator          GBOBC
        Born offset                        2.4628E-02 a0       4.6540E-02 AA
        H-bond correction              true
        Ion screening                  false
        Surface tension                    1.0000E-05 Eh       1.5569E+01 dyn/cm
        Grid points                               230 per atom

          ...................................................
          :                      SETUP                      :
          :.................................................:
          :  # basis functions                1512          :
          :  # atomic orbitals                1512          :
          :  # shells                         1008          :
          :  # electrons                      2016          :
          :  max. iterations                   250          :
          :  Hamiltonian                  GFN2-xTB          :
          :  restarted?                      false          :
          :  GBSA solvation                   true          :
          :  PC potential                    false          :
          :  electronic temp.          300.0000000     K    :
          :  accuracy                    1.0000000          :
          :  -> integral cutoff          0.2500000E+02      :
          :  -> integral neglect         0.1000000E-07      :
          :  -> SCF convergence          0.1000000E-05 Eh   :
          :  -> wf. convergence          0.1000000E-03 e    :
          :  Broyden damping             0.4000000          :
          ...................................................

 iter      E             dE          RMSdq      gap      omega  full diag
   1  -1291.2396505 -0.129124E+04  0.408E+00    8.33       0.0  T
   2  -1291.3240686 -0.844181E-01  0.242E+00    8.31       1.0  T
   3  -1291.3600680 -0.359994E-01  0.226E-01    8.01       1.0  T
   4  -1291.3655457 -0.547769E-02  0.483E-02    8.15       1.0  T
   5  -1291.3657128 -0.167164E-03  0.306E-02    8.12       1.0  T
   6  -1291.3657618 -0.490188E-04  0.376E-03    8.13       1.0  T
   7  -1291.3657635 -0.167803E-05  0.949E-04    8.12       3.8  T
   8  -1291.3657636 -0.120124E-06  0.473E-04    8.12       7.7  T
   9  -1291.3657637 -0.400269E-07  0.136E-04    8.12      26.8  T

   *** convergence criteria satisfied after 9 iterations ***

         #    Occupation            Energy/Eh            Energy/eV
      -------------------------------------------------------------
         1        2.0000           -0.6712411             -18.2654
       ...           ...                  ...                  ...
      1002        2.0000           -0.3592008              -9.7744
      1003        2.0000           -0.3591082              -9.7718
      1004        2.0000           -0.3590426              -9.7700
      1005        2.0000           -0.3586005              -9.7580
      1006        2.0000           -0.3575827              -9.7303
      1007        2.0000           -0.3564471              -9.6994
      1008        2.0000           -0.3564222              -9.6987 (HOMO)
      1009                         -0.0579158              -1.5760 (LUMO)
      1010                         -0.0493282              -1.3423
      1011                         -0.0417776              -1.1368
      1012                         -0.0347433              -0.9454
      1013                         -0.0290528              -0.7906
       ...                                ...                  ...
      1512                          0.4823538              13.1255
      -------------------------------------------------------------
                  HL-Gap            0.2985064 Eh            8.1228 eV
             Fermi-level           -0.2071690 Eh           -5.6374 eV

 SCC (total)                   0 d,  0 h,  0 min, 21.349 sec
 SCC setup                      ...        0 min,  0.117 sec (  0.546%)
 Dispersion                     ...        0 min,  0.110 sec (  0.517%)
 classical contributions        ...        0 min,  0.023 sec (  0.109%)
 integral evaluation            ...        0 min,  0.609 sec (  2.854%)
 iterations                     ...        0 min,  7.956 sec ( 37.264%)
 molecular gradient             ...        0 min, 12.468 sec ( 58.400%)
 printout                       ...        0 min,  0.066 sec (  0.310%)

         :::::::::::::::::::::::::::::::::::::::::::::::::::::
         ::                     SUMMARY                     ::
         :::::::::::::::::::::::::::::::::::::::::::::::::::::
         :: total energy           -1283.588958529099 Eh    ::
         :: total w/o Gsasa/hb     -1283.356906953324 Eh    ::
         :: gradient norm              0.103980772902 Eh/a0 ::
         :: HOMO-LUMO gap              8.122773699366 eV    ::
         ::.................................................::
         :: SCC energy             -1291.365763672944 Eh    ::
         :: -> isotropic ES            7.374086531579 Eh    ::
         :: -> anisotropic ES         -1.649184868393 Eh    ::
         :: -> anisotropic XC         -0.119078302649 Eh    ::
         :: -> dispersion             -0.785357814413 Eh    ::
         :: -> Gsolv                  -0.296352851586 Eh    ::
         ::    -> Gelec               -0.064301275811 Eh    ::
         ::    -> Gsasa                0.008484767304 Eh    ::
         ::    -> Ghb                 -0.242393786206 Eh    ::
         ::    -> Gshift               0.001857443127 Eh    ::
         :: repulsion energy           7.623593219010 Eh    ::
         :: add. restraining           0.000000000000 Eh    ::
         :: total charge              -0.000000000000 e     ::
         :::::::::::::::::::::::::::::::::::::::::::::::::::::

           -------------------------------------------------
          |                Property Printout                |
           -------------------------------------------------

    * Orbital Energies and Occupations

         #    Occupation            Energy/Eh            Energy/eV
      -------------------------------------------------------------
         1        2.0000           -0.6712411             -18.2654
       ...           ...                  ...                  ...
       996        2.0000           -0.3607532              -9.8166
       997        2.0000           -0.3606050              -9.8126
       998        2.0000           -0.3604295              -9.8078
       999        2.0000           -0.3601591              -9.8004
      1000        2.0000           -0.3600883              -9.7985
      1001        2.0000           -0.3597695              -9.7898
      1002        2.0000           -0.3592008              -9.7744
      1003        2.0000           -0.3591082              -9.7718
      1004        2.0000           -0.3590426              -9.7700
      1005        2.0000           -0.3586005              -9.7580
      1006        2.0000           -0.3575827              -9.7303
      1007        2.0000           -0.3564471              -9.6994
      1008        2.0000           -0.3564222              -9.6987 (HOMO)
      1009                         -0.0579158              -1.5760 (LUMO)
      1010                         -0.0493282              -1.3423
      1011                         -0.0417776              -1.1368
      1012                         -0.0347433              -0.9454
      1013                         -0.0290528              -0.7906
      1014                         -0.0273900              -0.7453
      1015                         -0.0214395              -0.5834
      1016                         -0.0131126              -0.3568
      1017                         -0.0098170              -0.2671
      1018                         -0.0095698              -0.2604
      1019                         -0.0052817              -0.1437
       ...                                ...                  ...
      1512                          0.4823538              13.1255
      -------------------------------------------------------------
                  HL-Gap            0.2985064 Eh            8.1228 eV
             Fermi-level           -0.2071690 Eh           -5.6374 eV

     #   Z          covCN         q      C6AA      α(0)
     1   8 o        1.609    -0.695    27.583     7.088
     2   1 h        0.804     0.341     0.610     1.227
     3   1 h        0.804     0.340     0.612     1.229
     4   8 o        1.606    -0.682    27.225     7.042
     5   1 h        0.802     0.368     0.549     1.164
     6   1 h        0.805     0.314     0.681     1.296
     7   8 o        1.609    -0.666    26.829     6.991
     8   1 h        0.805     0.348     0.593     1.209
     9   1 h        0.804     0.357     0.571     1.187
    10   8 o        1.608    -0.686    27.347     7.058
    11   1 h        0.804     0.341     0.611     1.228
    12   1 h        0.804     0.347     0.597     1.213
    13   8 o        1.609    -0.684    27.280     7.049
    14   1 h        0.804     0.352     0.584     1.200
    15   1 h        0.805     0.324     0.652     1.268
    16   8 o        1.606    -0.713    28.052     7.148
    17   1 h        0.803     0.358     0.571     1.187
    18   1 h        0.804     0.349     0.590     1.206
    19   8 o        1.609    -0.669    26.888     6.998
    20   1 h        0.804     0.351     0.586     1.203
    21   1 h        0.804     0.338     0.617     1.234
    22   8 o        1.605    -0.656    26.562     6.956
    23   1 h        0.800     0.349     0.590     1.207
    24   1 h        0.803     0.365     0.555     1.171
    25   8 o        1.609    -0.671    26.963     7.008
    26   1 h        0.805     0.310     0.693     1.308
    27   1 h        0.803     0.354     0.578     1.195
    28   8 o        1.607    -0.690    27.453     7.072
    29   1 h        0.804     0.351     0.586     1.202
    30   1 h        0.803     0.350     0.589     1.206
    31   8 o        1.606    -0.663    26.754     6.981
    32   1 h        0.804     0.332     0.633     1.249
    33   1 h        0.803     0.335     0.625     1.242
    34   8 o        1.607    -0.711    28.008     7.143
    35   1 h        0.804     0.342     0.607     1.224
    36   1 h        0.803     0.353     0.582     1.198
    37   8 o        1.609    -0.667    26.859     6.995
    38   1 h        0.805     0.323     0.655     1.272
    39   1 h        0.804     0.343     0.606     1.223
    40   8 o        1.608    -0.694    27.562     7.086
    41   1 h        0.804     0.348     0.593     1.210
    42   1 h        0.803     0.351     0.585     1.202
    43   8 o        1.607    -0.713    28.050     7.148
    44   1 h        0.803     0.359     0.569     1.185
    45   1 h        0.804     0.343     0.605     1.222
    46   8 o        1.609    -0.671    26.954     7.007
    47   1 h        0.804     0.337     0.620     1.236
    48   1 h        0.805     0.347     0.595     1.212
    49   8 o        1.609    -0.668    26.885     6.998
    50   1 h        0.805     0.321     0.660     1.276
    51   1 h        0.803     0.354     0.580     1.196
    52   8 o        1.607    -0.684    27.296     7.051
    53   1 h        0.805     0.348     0.593     1.209
    54   1 h        0.803     0.355     0.578     1.194
    55   8 o        1.607    -0.689    27.432     7.069
    56   1 h        0.803     0.338     0.616     1.233
    57   1 h        0.804     0.345     0.600     1.217
    58   8 o        1.608    -0.687    27.359     7.059
    59   1 h        0.805     0.354     0.578     1.194
    60   1 h        0.803     0.358     0.570     1.186
    61   8 o        1.607    -0.683    27.266     7.047
    62   1 h        0.803     0.360     0.566     1.181
    63   1 h        0.804     0.325     0.650     1.266
    64   8 o        1.607    -0.695    27.585     7.088
    65   1 h        0.803     0.343     0.604     1.221
    66   1 h        0.804     0.365     0.555     1.170
    67   8 o        1.607    -0.701    27.726     7.107
    68   1 h        0.803     0.343     0.605     1.222
    69   1 h        0.804     0.337     0.620     1.237
    70   8 o        1.608    -0.685    27.320     7.054
    71   1 h        0.803     0.344     0.602     1.219
    72   1 h        0.804     0.350     0.589     1.205
    73   8 o        1.607    -0.689    27.408     7.066
    74   1 h        0.804     0.356     0.575     1.191
    75   1 h        0.803     0.341     0.609     1.226
    76   8 o        1.608    -0.690    27.435     7.069
    77   1 h        0.803     0.364     0.557     1.173
    78   1 h        0.805     0.332     0.632     1.248
    79   8 o        1.607    -0.689    27.432     7.069
    80   1 h        0.803     0.373     0.538     1.152
    81   1 h        0.804     0.328     0.642     1.259
    82   8 o        1.606    -0.686    27.331     7.056
    83   1 h        0.803     0.336     0.621     1.238
    84   1 h        0.803     0.358     0.571     1.187
    85   8 o        1.608    -0.681    27.222     7.042
    86   1 h        0.805     0.326     0.648     1.264
    87   1 h        0.803     0.346     0.598     1.215
    88   8 o        1.606    -0.696    27.602     7.091
    89   1 h        0.805     0.318     0.669     1.284
    90   1 h        0.802     0.361     0.563     1.179
    91   8 o        1.609    -0.672    26.980     7.010
    92   1 h        0.804     0.337     0.619     1.236
    93   1 h        0.805     0.331     0.634     1.251
    94   8 o        1.608    -0.680    27.178     7.036
    95   1 h        0.804     0.344     0.601     1.218
    96   1 h        0.804     0.345     0.599     1.216
    97   8 o        1.609    -0.685    27.320     7.054
    98   1 h        0.804     0.352     0.583     1.199
    99   1 h        0.803     0.362     0.561     1.176
   100   8 o        1.605    -0.695    27.583     7.088
   101   1 h        0.804     0.355     0.576     1.192
   102   1 h        0.803     0.322     0.658     1.274
   103   8 o        1.606    -0.684    27.283     7.050
   104   1 h        0.803     0.346     0.598     1.215
   105   1 h        0.803     0.333     0.631     1.247
   106   8 o        1.609    -0.673    27.014     7.015
   107   1 h        0.805     0.330     0.636     1.253
   108   1 h        0.804     0.342     0.608     1.225
   109   8 o        1.607    -0.686    27.348     7.058
   110   1 h        0.804     0.341     0.609     1.226
   111   1 h        0.804     0.343     0.605     1.222
   112   8 o        1.609    -0.687    27.375     7.062
   113   1 h        0.804     0.359     0.568     1.184
   114   1 h        0.805     0.347     0.595     1.211
   115   8 o        1.608    -0.685    27.327     7.055
   116   1 h        0.803     0.351     0.586     1.203
   117   1 h        0.805     0.328     0.642     1.259
   118   8 o        1.607    -0.678    27.124     7.029
   119   1 h        0.804     0.350     0.588     1.205
   120   1 h        0.804     0.332     0.633     1.250
   121   8 o        1.609    -0.651    26.440     6.940
   122   1 h        0.804     0.333     0.631     1.248
   123   1 h        0.805     0.320     0.663     1.279
   124   8 o        1.609    -0.706    27.865     7.125
   125   1 h        0.804     0.340     0.613     1.230
   126   1 h        0.804     0.350     0.588     1.204
   127   8 o        1.607    -0.708    27.933     7.133
   128   1 h        0.804     0.356     0.574     1.190
   129   1 h        0.804     0.349     0.591     1.208
   130   8 o        1.606    -0.699    27.676     7.100
   131   1 h        0.803     0.336     0.623     1.240
   132   1 h        0.802     0.343     0.606     1.223
   133   8 o        1.609    -0.654    26.511     6.949
   134   1 h        0.805     0.323     0.655     1.271
   135   1 h        0.803     0.332     0.633     1.250
   136   8 o        1.606    -0.683    27.274     7.048
   137   1 h        0.803     0.346     0.598     1.215
   138   1 h        0.804     0.324     0.654     1.270
   139   8 o        1.608    -0.683    27.260     7.047
   140   1 h        0.803     0.358     0.570     1.186
   141   1 h        0.805     0.338     0.618     1.235
   142   8 o        1.609    -0.674    27.037     7.018
   143   1 h        0.805     0.347     0.595     1.212
   144   1 h        0.804     0.323     0.657     1.273
   145   8 o        1.607    -0.694    27.540     7.083
   146   1 h        0.802     0.361     0.563     1.179
   147   1 h        0.804     0.321     0.661     1.277
   148   8 o        1.607    -0.688    27.407     7.066
   149   1 h        0.802     0.361     0.563     1.179
   150   1 h        0.805     0.338     0.617     1.233
   151   8 o        1.608    -0.662    26.718     6.976
   152   1 h        0.804     0.342     0.607     1.224
   153   1 h        0.804     0.316     0.674     1.290
   154   8 o        1.607    -0.696    27.599     7.090
   155   1 h        0.803     0.371     0.542     1.157
   156   1 h        0.803     0.337     0.619     1.235
   157   8 o        1.609    -0.655    26.529     6.952
   158   1 h        0.805     0.320     0.663     1.279
   159   1 h        0.804     0.341     0.610     1.227
   160   8 o        1.608    -0.674    27.041     7.018
   161   1 h        0.804     0.339     0.614     1.231
   162   1 h        0.804     0.338     0.617     1.234
   163   8 o        1.608    -0.688    27.384     7.063
   164   1 h        0.805     0.323     0.655     1.272
   165   1 h        0.803     0.349     0.590     1.207
   166   8 o        1.607    -0.691    27.478     7.075
   167   1 h        0.803     0.356     0.574     1.191
   168   1 h        0.803     0.349     0.592     1.208
   169   8 o        1.606    -0.676    27.070     7.022
   170   1 h        0.804     0.357     0.572     1.188
   171   1 h        0.803     0.327     0.646     1.262
   172   8 o        1.607    -0.671    26.945     7.006
   173   1 h        0.803     0.333     0.629     1.246
   174   1 h        0.804     0.330     0.637     1.254
   175   8 o        1.606    -0.703    27.798     7.116
   176   1 h        0.803     0.341     0.610     1.227
   177   1 h        0.803     0.346     0.598     1.215
   178   8 o        1.605    -0.688    27.392     7.064
   179   1 h        0.803     0.350     0.588     1.205
   180   1 h        0.802     0.339     0.614     1.231
   181   8 o        1.608    -0.653    26.499     6.948
   182   1 h        0.803     0.332     0.632     1.249
   183   1 h        0.804     0.331     0.634     1.251
   184   8 o        1.606    -0.692    27.497     7.077
   185   1 h        0.803     0.347     0.594     1.211
   186   1 h        0.803     0.342     0.608     1.225
   187   8 o        1.608    -0.688    27.390     7.063
   188   1 h        0.803     0.358     0.570     1.186
   189   1 h        0.805     0.315     0.676     1.292
   190   8 o        1.606    -0.698    27.651     7.097
   191   1 h        0.803     0.349     0.591     1.207
   192   1 h        0.803     0.339     0.616     1.233
   193   8 o        1.608    -0.684    27.280     7.049
   194   1 h        0.804     0.351     0.586     1.202
   195   1 h        0.804     0.351     0.587     1.203
   196   8 o        1.608    -0.675    27.048     7.019
   197   1 h        0.803     0.362     0.560     1.176
   198   1 h        0.805     0.322     0.659     1.275
   199   8 o        1.606    -0.700    27.718     7.106
   200   1 h        0.803     0.329     0.639     1.256
   201   1 h        0.803     0.358     0.571     1.187
   202   8 o        1.606    -0.675    27.069     7.022
   203   1 h        0.803     0.366     0.552     1.168
   204   1 h        0.805     0.326     0.649     1.265
   205   8 o        1.607    -0.685    27.317     7.054
   206   1 h        0.804     0.347     0.595     1.211
   207   1 h        0.802     0.364     0.557     1.173
   208   8 o        1.608    -0.683    27.265     7.047
   209   1 h        0.803     0.351     0.587     1.203
   210   1 h        0.805     0.325     0.650     1.266
   211   8 o        1.606    -0.679    27.157     7.033
   212   1 h        0.803     0.351     0.586     1.202
   213   1 h        0.803     0.334     0.628     1.245
   214   8 o        1.607    -0.696    27.593     7.090
   215   1 h        0.804     0.345     0.601     1.218
   216   1 h        0.803     0.331     0.634     1.251
   217   8 o        1.607    -0.702    27.770     7.112
   218   1 h        0.804     0.356     0.575     1.191
   219   1 h        0.804     0.348     0.592     1.209
   220   8 o        1.608    -0.675    27.052     7.020
   221   1 h        0.803     0.356     0.576     1.192
   222   1 h        0.804     0.336     0.622     1.239
   223   8 o        1.609    -0.688    27.403     7.065
   224   1 h        0.803     0.359     0.568     1.184
   225   1 h        0.804     0.345     0.599     1.216
   226   8 o        1.609    -0.670    26.927     7.004
   227   1 h        0.805     0.338     0.618     1.234
   228   1 h        0.804     0.348     0.593     1.209
   229   8 o        1.607    -0.685    27.316     7.054
   230   1 h        0.803     0.350     0.588     1.204
   231   1 h        0.804     0.321     0.661     1.277
   232   8 o        1.606    -0.706    27.866     7.125
   233   1 h        0.803     0.343     0.606     1.223
   234   1 h        0.803     0.363     0.558     1.174
   235   8 o        1.607    -0.671    26.949     7.006
   236   1 h        0.803     0.344     0.603     1.220
   237   1 h        0.803     0.337     0.619     1.236
   238   8 o        1.607    -0.672    26.979     7.010
   239   1 h        0.804     0.333     0.631     1.248
   240   1 h        0.803     0.343     0.604     1.221
   241   8 o        1.608    -0.697    27.642     7.096
   242   1 h        0.803     0.359     0.568     1.184
   243   1 h        0.805     0.321     0.662     1.278
   244   8 o        1.607    -0.671    26.944     7.006
   245   1 h        0.803     0.335     0.625     1.242
   246   1 h        0.803     0.342     0.608     1.225
   247   8 o        1.608    -0.667    26.847     6.993
   248   1 h        0.803     0.348     0.593     1.210
   249   1 h        0.805     0.320     0.664     1.280
   250   8 o        1.609    -0.678    27.131     7.030
   251   1 h        0.805     0.331     0.635     1.252
   252   1 h        0.804     0.333     0.631     1.248
   253   8 o        1.606    -0.707    27.911     7.130
   254   1 h        0.803     0.348     0.593     1.209
   255   1 h        0.803     0.347     0.596     1.213
   256   8 o        1.609    -0.685    27.322     7.055
   257   1 h        0.804     0.336     0.622     1.238
   258   1 h        0.805     0.331     0.636     1.252
   259   8 o        1.607    -0.679    27.152     7.033
   260   1 h        0.805     0.325     0.650     1.267
   261   1 h        0.802     0.343     0.606     1.223
   262   8 o        1.611    -0.666    26.830     6.991
   263   1 h        0.805     0.333     0.630     1.246
   264   1 h        0.803     0.357     0.572     1.188
   265   8 o        1.607    -0.664    26.778     6.984
   266   1 h        0.805     0.320     0.664     1.280
   267   1 h        0.802     0.341     0.611     1.228
   268   8 o        1.606    -0.685    27.321     7.054
   269   1 h        0.802     0.340     0.613     1.230
   270   1 h        0.804     0.335     0.625     1.242
   271   8 o        1.608    -0.675    27.045     7.019
   272   1 h        0.803     0.352     0.584     1.201
   273   1 h        0.804     0.353     0.581     1.197
   274   8 o        1.607    -0.693    27.538     7.082
   275   1 h        0.804     0.358     0.569     1.185
   276   1 h        0.805     0.354     0.580     1.196
   277   8 o        1.608    -0.693    27.533     7.082
   278   1 h        0.804     0.351     0.586     1.203
   279   1 h        0.804     0.359     0.568     1.184
   280   8 o        1.607    -0.668    26.872     6.996
   281   1 h        0.804     0.326     0.648     1.265
   282   1 h        0.803     0.336     0.623     1.240
   283   8 o        1.607    -0.655    26.542     6.953
   284   1 h        0.804     0.322     0.657     1.273
   285   1 h        0.803     0.338     0.617     1.234
   286   8 o        1.609    -0.668    26.882     6.998
   287   1 h        0.805     0.335     0.625     1.242
   288   1 h        0.805     0.344     0.602     1.219
   289   8 o        1.606    -0.707    27.886     7.127
   290   1 h        0.802     0.363     0.558     1.174
   291   1 h        0.804     0.334     0.626     1.243
   292   8 o        1.606    -0.678    27.140     7.031
   293   1 h        0.804     0.333     0.629     1.246
   294   1 h        0.802     0.333     0.631     1.248
   295   8 o        1.608    -0.667    26.841     6.992
   296   1 h        0.804     0.325     0.650     1.266
   297   1 h        0.804     0.359     0.567     1.183
   298   8 o        1.607    -0.700    27.703     7.104
   299   1 h        0.803     0.356     0.575     1.192
   300   1 h        0.804     0.349     0.592     1.208
   301   8 o        1.609    -0.657    26.583     6.959
   302   1 h        0.804     0.319     0.667     1.283
   303   1 h        0.805     0.342     0.607     1.224
   304   8 o        1.605    -0.691    27.469     7.074
   305   1 h        0.804     0.326     0.649     1.265
   306   1 h        0.802     0.337     0.620     1.237
   307   8 o        1.607    -0.692    27.496     7.077
   308   1 h        0.803     0.354     0.579     1.195
   309   1 h        0.803     0.346     0.597     1.214
   310   8 o        1.602    -0.708    27.921     7.131
   311   1 h        0.802     0.330     0.637     1.254
   312   1 h        0.802     0.361     0.564     1.180
   313   8 o        1.609    -0.670    26.931     7.004
   314   1 h        0.805     0.328     0.641     1.258
   315   1 h        0.804     0.338     0.617     1.234
   316   8 o        1.609    -0.676    27.075     7.023
   317   1 h        0.804     0.342     0.608     1.224
   318   1 h        0.805     0.327     0.644     1.261
   319   8 o        1.609    -0.674    27.032     7.017
   320   1 h        0.804     0.339     0.615     1.232
   321   1 h        0.805     0.352     0.583     1.199
   322   8 o        1.607    -0.699    27.695     7.103
   323   1 h        0.805     0.327     0.645     1.261
   324   1 h        0.803     0.367     0.551     1.166
   325   8 o        1.604    -0.713    28.074     7.151
   326   1 h        0.803     0.328     0.643     1.259
   327   1 h        0.803     0.360     0.566     1.182
   328   8 o        1.608    -0.642    26.228     6.912
   329   1 h        0.803     0.334     0.628     1.245
   330   1 h        0.805     0.322     0.658     1.274
   331   8 o        1.607    -0.686    27.347     7.058
   332   1 h        0.802     0.361     0.563     1.178
   333   1 h        0.805     0.313     0.683     1.298
   334   8 o        1.607    -0.689    27.411     7.066
   335   1 h        0.805     0.316     0.675     1.290
   336   1 h        0.802     0.364     0.556     1.172
   337   8 o        1.608    -0.673    27.002     7.013
   338   1 h        0.804     0.330     0.637     1.254
   339   1 h        0.804     0.341     0.609     1.226
   340   8 o        1.606    -0.681    27.217     7.041
   341   1 h        0.804     0.350     0.589     1.206
   342   1 h        0.803     0.326     0.648     1.265
   343   8 o        1.610    -0.680    27.179     7.036
   344   1 h        0.804     0.353     0.582     1.199
   345   1 h        0.804     0.317     0.671     1.287
   346   8 o        1.608    -0.687    27.368     7.061
   347   1 h        0.804     0.368     0.548     1.163
   348   1 h        0.804     0.347     0.594     1.211
   349   8 o        1.608    -0.676    27.072     7.022
   350   1 h        0.804     0.355     0.577     1.193
   351   1 h        0.804     0.331     0.636     1.253
   352   8 o        1.608    -0.689    27.417     7.067
   353   1 h        0.804     0.326     0.648     1.264
   354   1 h        0.804     0.328     0.642     1.258
   355   8 o        1.607    -0.688    27.395     7.064
   356   1 h        0.803     0.354     0.578     1.194
   357   1 h        0.804     0.325     0.650     1.267
   358   8 o        1.608    -0.694    27.545     7.083
   359   1 h        0.804     0.356     0.574     1.190
   360   1 h        0.805     0.318     0.671     1.286
   361   8 o        1.609    -0.677    27.098     7.026
   362   1 h        0.804     0.339     0.614     1.231
   363   1 h        0.804     0.330     0.638     1.254
   364   8 o        1.609    -0.645    26.282     6.919
   365   1 h        0.804     0.361     0.564     1.179
   366   1 h        0.805     0.323     0.657     1.273
   367   8 o        1.605    -0.700    27.703     7.104
   368   1 h        0.803     0.329     0.639     1.256
   369   1 h        0.802     0.354     0.579     1.196
   370   8 o        1.608    -0.691    27.481     7.075
   371   1 h        0.804     0.331     0.635     1.252
   372   1 h        0.804     0.354     0.579     1.195
   373   8 o        1.608    -0.674    27.031     7.017
   374   1 h        0.806     0.308     0.696     1.310
   375   1 h        0.802     0.355     0.576     1.193
   376   8 o        1.609    -0.685    27.311     7.053
   377   1 h        0.805     0.348     0.593     1.210
   378   1 h        0.804     0.340     0.611     1.228
   379   8 o        1.608    -0.680    27.195     7.038
   380   1 h        0.805     0.323     0.656     1.273
   381   1 h        0.803     0.352     0.585     1.201
   382   8 o        1.608    -0.687    27.362     7.060
   383   1 h        0.805     0.318     0.668     1.284
   384   1 h        0.803     0.351     0.585     1.202
   385   8 o        1.608    -0.669    26.907     7.001
   386   1 h        0.804     0.323     0.655     1.271
   387   1 h        0.804     0.352     0.583     1.199
   388   8 o        1.609    -0.653    26.488     6.946
   389   1 h        0.803     0.351     0.586     1.202
   390   1 h        0.805     0.317     0.673     1.288
   391   8 o        1.609    -0.677    27.114     7.028
   392   1 h        0.804     0.346     0.599     1.215
   393   1 h        0.804     0.337     0.620     1.236
   394   8 o        1.609    -0.695    27.586     7.089
   395   1 h        0.803     0.365     0.554     1.170
   396   1 h        0.804     0.339     0.615     1.232
   397   8 o        1.606    -0.698    27.651     7.097
   398   1 h        0.803     0.331     0.635     1.252
   399   1 h        0.803     0.355     0.578     1.194
   400   8 o        1.606    -0.700    27.699     7.103
   401   1 h        0.803     0.360     0.565     1.180
   402   1 h        0.803     0.345     0.600     1.217
   403   8 o        1.606    -0.701    27.730     7.107
   404   1 h        0.803     0.347     0.595     1.212
   405   1 h        0.804     0.357     0.571     1.187
   406   8 o        1.607    -0.669    26.908     7.001
   407   1 h        0.805     0.330     0.636     1.253
   408   1 h        0.803     0.345     0.601     1.218
   409   8 o        1.607    -0.688    27.399     7.065
   410   1 h        0.805     0.318     0.669     1.285
   411   1 h        0.802     0.362     0.560     1.176
   412   8 o        1.607    -0.706    27.875     7.126
   413   1 h        0.804     0.333     0.630     1.247
   414   1 h        0.802     0.363     0.560     1.175
   415   8 o        1.608    -0.690    27.451     7.071
   416   1 h        0.804     0.325     0.649     1.266
   417   1 h        0.803     0.344     0.602     1.219
   418   8 o        1.609    -0.684    27.291     7.051
   419   1 h        0.803     0.345     0.601     1.218
   420   1 h        0.805     0.326     0.648     1.264
   421   8 o        1.610    -0.664    26.758     6.982
   422   1 h        0.805     0.338     0.618     1.235
   423   1 h        0.804     0.345     0.600     1.217
   424   8 o        1.609    -0.673    26.998     7.013
   425   1 h        0.805     0.337     0.620     1.237
   426   1 h        0.804     0.362     0.561     1.176
   427   8 o        1.609    -0.669    26.896     6.999
   428   1 h        0.804     0.340     0.613     1.230
   429   1 h        0.805     0.329     0.640     1.257
   430   8 o        1.609    -0.669    26.907     7.001
   431   1 h        0.804     0.343     0.605     1.222
   432   1 h        0.805     0.327     0.646     1.262
   433   8 o        1.608    -0.681    27.215     7.041
   434   1 h        0.805     0.362     0.561     1.176
   435   1 h        0.803     0.341     0.611     1.228
   436   8 o        1.610    -0.653    26.478     6.945
   437   1 h        0.805     0.325     0.652     1.268
   438   1 h        0.805     0.331     0.635     1.252
   439   8 o        1.608    -0.695    27.577     7.088
   440   1 h        0.804     0.350     0.588     1.205
   441   1 h        0.803     0.352     0.583     1.200
   442   8 o        1.609    -0.666    26.820     6.990
   443   1 h        0.805     0.334     0.628     1.244
   444   1 h        0.805     0.329     0.641     1.257
   445   8 o        1.608    -0.675    27.053     7.020
   446   1 h        0.803     0.342     0.608     1.225
   447   1 h        0.805     0.328     0.641     1.258
   448   8 o        1.608    -0.677    27.114     7.028
   449   1 h        0.806     0.311     0.688     1.303
   450   1 h        0.802     0.354     0.579     1.195
   451   8 o        1.607    -0.674    27.033     7.017
   452   1 h        0.801     0.363     0.560     1.176
   453   1 h        0.806     0.309     0.693     1.308
   454   8 o        1.609    -0.676    27.087     7.024
   455   1 h        0.805     0.324     0.654     1.270
   456   1 h        0.804     0.342     0.607     1.224
   457   8 o        1.607    -0.661    26.704     6.974
   458   1 h        0.805     0.320     0.665     1.280
   459   1 h        0.802     0.341     0.610     1.227
   460   8 o        1.605    -0.647    26.354     6.929
   461   1 h        0.801     0.350     0.589     1.206
   462   1 h        0.806     0.307     0.701     1.315
   463   8 o        1.608    -0.697    27.644     7.096
   464   1 h        0.805     0.332     0.632     1.249
   465   1 h        0.803     0.342     0.608     1.225
   466   8 o        1.607    -0.663    26.753     6.981
   467   1 h        0.804     0.335     0.625     1.242
   468   1 h        0.803     0.336     0.622     1.239
   469   8 o        1.606    -0.662    26.715     6.976
   470   1 h        0.802     0.344     0.602     1.219
   471   1 h        0.806     0.317     0.673     1.288
   472   8 o        1.610    -0.653    26.480     6.945
   473   1 h        0.804     0.336     0.622     1.239
   474   1 h        0.805     0.328     0.643     1.260
   475   8 o        1.607    -0.677    27.119     7.028
   476   1 h        0.803     0.335     0.624     1.241
   477   1 h        0.804     0.343     0.605     1.221
   478   8 o        1.609    -0.689    27.423     7.068
   479   1 h        0.804     0.338     0.618     1.235
   480   1 h        0.805     0.328     0.643     1.259
   481   8 o        1.609    -0.680    27.176     7.036
   482   1 h        0.803     0.358     0.569     1.185
   483   1 h        0.804     0.340     0.613     1.229
   484   8 o        1.608    -0.682    27.226     7.042
   485   1 h        0.804     0.355     0.577     1.194
   486   1 h        0.804     0.331     0.636     1.252
   487   8 o        1.608    -0.681    27.197     7.039
   488   1 h        0.804     0.331     0.634     1.251
   489   1 h        0.803     0.357     0.571     1.187
   490   8 o        1.608    -0.672    26.970     7.009
   491   1 h        0.805     0.328     0.643     1.259
   492   1 h        0.803     0.340     0.614     1.230
   493   8 o        1.608    -0.658    26.614     6.963
   494   1 h        0.803     0.333     0.629     1.246
   495   1 h        0.804     0.331     0.634     1.251
   496   8 o        1.606    -0.703    27.796     7.116
   497   1 h        0.803     0.351     0.587     1.203
   498   1 h        0.803     0.362     0.560     1.176
   499   8 o        1.607    -0.685    27.324     7.055
   500   1 h        0.804     0.326     0.647     1.264
   501   1 h        0.803     0.358     0.570     1.186
   502   8 o        1.607    -0.685    27.319     7.054
   503   1 h        0.804     0.335     0.625     1.241
   504   1 h        0.803     0.338     0.618     1.235
   505   8 o        1.607    -0.689    27.433     7.069
   506   1 h        0.803     0.358     0.569     1.185
   507   1 h        0.804     0.345     0.600     1.217
   508   8 o        1.608    -0.685    27.313     7.053
   509   1 h        0.804     0.337     0.619     1.236
   510   1 h        0.804     0.347     0.596     1.213
   511   8 o        1.607    -0.697    27.635     7.095
   512   1 h        0.803     0.328     0.643     1.260
   513   1 h        0.804     0.360     0.564     1.180
   514   8 o        1.607    -0.683    27.256     7.046
   515   1 h        0.805     0.322     0.659     1.275
   516   1 h        0.802     0.359     0.567     1.183
   517   8 o        1.607    -0.683    27.272     7.048
   518   1 h        0.803     0.355     0.577     1.193
   519   1 h        0.804     0.322     0.659     1.276
   520   8 o        1.608    -0.689    27.413     7.066
   521   1 h        0.804     0.331     0.636     1.253
   522   1 h        0.804     0.345     0.600     1.217
   523   8 o        1.608    -0.693    27.527     7.081
   524   1 h        0.804     0.339     0.614     1.231
   525   1 h        0.804     0.328     0.642     1.258
   526   8 o        1.609    -0.674    27.036     7.018
   527   1 h        0.804     0.350     0.588     1.204
   528   1 h        0.805     0.327     0.645     1.262
   529   8 o        1.608    -0.687    27.357     7.059
   530   1 h        0.804     0.333     0.628     1.245
   531   1 h        0.804     0.341     0.611     1.228
   532   8 o        1.607    -0.682    27.230     7.043
   533   1 h        0.801     0.366     0.553     1.168
   534   1 h        0.806     0.302     0.716     1.329
   535   8 o        1.607    -0.692    27.505     7.078
   536   1 h        0.803     0.361     0.564     1.180
   537   1 h        0.804     0.335     0.625     1.241
   538   8 o        1.609    -0.682    27.230     7.043
   539   1 h        0.804     0.326     0.647     1.263
   540   1 h        0.804     0.325     0.651     1.267
   541   8 o        1.606    -0.706    27.860     7.124
   542   1 h        0.805     0.325     0.651     1.268
   543   1 h        0.802     0.356     0.574     1.190
   544   8 o        1.610    -0.659    26.643     6.967
   545   1 h        0.805     0.341     0.610     1.227
   546   1 h        0.805     0.331     0.634     1.251
   547   8 o        1.605    -0.715    28.109     7.155
   548   1 h        0.804     0.337     0.621     1.237
   549   1 h        0.802     0.359     0.567     1.183
   550   8 o        1.609    -0.671    26.956     7.007
   551   1 h        0.805     0.336     0.623     1.240
   552   1 h        0.804     0.337     0.619     1.235
   553   8 o        1.608    -0.651    26.440     6.940
   554   1 h        0.803     0.345     0.599     1.216
   555   1 h        0.805     0.328     0.643     1.259
   556   8 o        1.608    -0.672    26.971     7.009
   557   1 h        0.802     0.356     0.575     1.191
   558   1 h        0.806     0.312     0.685     1.300
   559   8 o        1.610    -0.666    26.811     6.988
   560   1 h        0.804     0.338     0.617     1.234
   561   1 h        0.805     0.337     0.620     1.237
   562   8 o        1.609    -0.680    27.174     7.036
   563   1 h        0.805     0.330     0.637     1.253
   564   1 h        0.804     0.347     0.595     1.212
   565   8 o        1.609    -0.682    27.231     7.043
   566   1 h        0.804     0.320     0.664     1.280
   567   1 h        0.804     0.351     0.586     1.202
   568   8 o        1.608    -0.664    26.765     6.982
   569   1 h        0.802     0.364     0.557     1.173
   570   1 h        0.806     0.315     0.677     1.292
   571   8 o        1.608    -0.664    26.771     6.983
   572   1 h        0.803     0.351     0.585     1.201
   573   1 h        0.804     0.332     0.632     1.249
   574   8 o        1.608    -0.714    28.079     7.152
   575   1 h        0.804     0.355     0.576     1.193
   576   1 h        0.804     0.349     0.590     1.207
   577   8 o        1.607    -0.690    27.435     7.069
   578   1 h        0.803     0.368     0.547     1.162
   579   1 h        0.804     0.332     0.632     1.249
   580   8 o        1.609    -0.662    26.707     6.975
   581   1 h        0.803     0.358     0.571     1.187
   582   1 h        0.806     0.305     0.707     1.320
   583   8 o        1.606    -0.686    27.338     7.057
   584   1 h        0.802     0.357     0.573     1.189
   585   1 h        0.803     0.347     0.596     1.213
   586   8 o        1.607    -0.672    26.969     7.009
   587   1 h        0.806     0.323     0.656     1.272
   588   1 h        0.802     0.375     0.534     1.148
   589   8 o        1.608    -0.698    27.670     7.099
   590   1 h        0.804     0.340     0.613     1.230
   591   1 h        0.804     0.337     0.620     1.237
   592   8 o        1.609    -0.657    26.583     6.959
   593   1 h        0.804     0.327     0.646     1.263
   594   1 h        0.805     0.326     0.648     1.264
   595   8 o        1.608    -0.667    26.845     6.993
   596   1 h        0.804     0.329     0.639     1.256
   597   1 h        0.805     0.328     0.642     1.258
   598   8 o        1.607    -0.689    27.431     7.069
   599   1 h        0.804     0.319     0.666     1.282
   600   1 h        0.803     0.361     0.564     1.179
   601   8 o        1.606    -0.703    27.795     7.115
   602   1 h        0.802     0.356     0.574     1.191
   603   1 h        0.804     0.325     0.650     1.267
   604   8 o        1.606    -0.696    27.612     7.092
   605   1 h        0.805     0.312     0.686     1.301
   606   1 h        0.802     0.368     0.548     1.163
   607   8 o        1.606    -0.695    27.567     7.086
   608   1 h        0.805     0.310     0.692     1.307
   609   1 h        0.801     0.364     0.558     1.173
   610   8 o        1.603    -0.719    28.222     7.170
   611   1 h        0.802     0.374     0.535     1.149
   612   1 h        0.803     0.335     0.624     1.241
   613   8 o        1.609    -0.672    26.985     7.011
   614   1 h        0.805     0.323     0.655     1.271
   615   1 h        0.804     0.335     0.624     1.240
   616   8 o        1.606    -0.688    27.399     7.064
   617   1 h        0.802     0.365     0.555     1.170
   618   1 h        0.805     0.312     0.685     1.300
   619   8 o        1.608    -0.672    26.980     7.010
   620   1 h        0.804     0.330     0.638     1.255
   621   1 h        0.804     0.354     0.580     1.196
   622   8 o        1.607    -0.702    27.772     7.113
   623   1 h        0.803     0.357     0.572     1.189
   624   1 h        0.804     0.323     0.657     1.273
   625   8 o        1.607    -0.688    27.399     7.065
   626   1 h        0.804     0.338     0.618     1.235
   627   1 h        0.803     0.332     0.633     1.250
   628   8 o        1.607    -0.678    27.141     7.031
   629   1 h        0.805     0.332     0.633     1.250
   630   1 h        0.803     0.338     0.618     1.235
   631   8 o        1.606    -0.680    27.176     7.036
   632   1 h        0.803     0.339     0.616     1.233
   633   1 h        0.804     0.350     0.588     1.205
   634   8 o        1.609    -0.660    26.668     6.970
   635   1 h        0.805     0.323     0.655     1.271
   636   1 h        0.804     0.325     0.651     1.267
   637   8 o        1.607    -0.667    26.845     6.993
   638   1 h        0.803     0.332     0.633     1.250
   639   1 h        0.804     0.333     0.631     1.248
   640   8 o        1.610    -0.654    26.506     6.949
   641   1 h        0.805     0.356     0.573     1.189
   642   1 h        0.805     0.324     0.653     1.270
   643   8 o        1.607    -0.668    26.883     6.998
   644   1 h        0.803     0.351     0.586     1.202
   645   1 h        0.804     0.323     0.656     1.273
   646   8 o        1.610    -0.650    26.405     6.935
   647   1 h        0.805     0.316     0.675     1.290
   648   1 h        0.804     0.332     0.633     1.250
   649   8 o        1.608    -0.647    26.330     6.925
   650   1 h        0.805     0.319     0.667     1.283
   651   1 h        0.803     0.341     0.610     1.227
   652   8 o        1.609    -0.675    27.063     7.021
   653   1 h        0.804     0.335     0.624     1.241
   654   1 h        0.804     0.358     0.569     1.185
   655   8 o        1.606    -0.670    26.926     7.003
   656   1 h        0.806     0.308     0.697     1.311
   657   1 h        0.801     0.365     0.555     1.170
   658   8 o        1.607    -0.707    27.897     7.129
   659   1 h        0.804     0.343     0.605     1.222
   660   1 h        0.804     0.360     0.565     1.180
   661   8 o        1.609    -0.644    26.264     6.917
   662   1 h        0.804     0.332     0.633     1.250
   663   1 h        0.805     0.334     0.627     1.244
   664   8 o        1.608    -0.676    27.080     7.023
   665   1 h        0.804     0.348     0.593     1.210
   666   1 h        0.805     0.335     0.624     1.240
   667   8 o        1.607    -0.688    27.405     7.065
   668   1 h        0.803     0.353     0.582     1.198
   669   1 h        0.805     0.321     0.660     1.276
   670   8 o        1.607    -0.681    27.222     7.042
   671   1 h        0.804     0.328     0.642     1.259
   672   1 h        0.803     0.350     0.589     1.205
   673   8 o        1.607    -0.686    27.348     7.058
   674   1 h        0.802     0.371     0.541     1.155
   675   1 h        0.805     0.322     0.659     1.275
   676   8 o        1.608    -0.688    27.395     7.064
   677   1 h        0.803     0.355     0.578     1.194
   678   1 h        0.804     0.344     0.601     1.218
   679   8 o        1.606    -0.687    27.359     7.059
   680   1 h        0.803     0.359     0.568     1.184
   681   1 h        0.804     0.330     0.637     1.253
   682   8 o        1.610    -0.675    27.053     7.020
   683   1 h        0.804     0.346     0.597     1.213
   684   1 h        0.805     0.320     0.664     1.280
   685   8 o        1.610    -0.676    27.078     7.023
   686   1 h        0.804     0.346     0.598     1.215
   687   1 h        0.805     0.341     0.611     1.227
   688   8 o        1.607    -0.682    27.237     7.044
   689   1 h        0.803     0.355     0.577     1.193
   690   1 h        0.804     0.331     0.634     1.251
   691   8 o        1.605    -0.670    26.936     7.005
   692   1 h        0.802     0.341     0.611     1.228
   693   1 h        0.804     0.329     0.639     1.256
   694   8 o        1.610    -0.673    26.991     7.012
   695   1 h        0.804     0.339     0.616     1.233
   696   1 h        0.805     0.336     0.622     1.239
   697   8 o        1.607    -0.684    27.293     7.051
   698   1 h        0.803     0.360     0.566     1.182
   699   1 h        0.803     0.326     0.649     1.265
   700   8 o        1.603    -0.682    27.249     7.045
   701   1 h        0.806     0.312     0.686     1.301
   702   1 h        0.801     0.355     0.577     1.193
   703   8 o        1.610    -0.659    26.644     6.967
   704   1 h        0.805     0.338     0.618     1.234
   705   1 h        0.805     0.339     0.615     1.232
   706   8 o        1.607    -0.698    27.666     7.099
   707   1 h        0.803     0.351     0.585     1.202
   708   1 h        0.804     0.318     0.670     1.286
   709   8 o        1.608    -0.682    27.234     7.043
   710   1 h        0.803     0.359     0.568     1.184
   711   1 h        0.805     0.329     0.639     1.256
   712   8 o        1.608    -0.676    27.093     7.025
   713   1 h        0.805     0.330     0.638     1.254
   714   1 h        0.803     0.339     0.615     1.232
   715   8 o        1.609    -0.682    27.245     7.045
   716   1 h        0.804     0.342     0.607     1.223
   717   1 h        0.805     0.335     0.624     1.241
   718   8 o        1.607    -0.691    27.471     7.074
   719   1 h        0.804     0.343     0.606     1.223
   720   1 h        0.803     0.364     0.557     1.172
   721   8 o        1.609    -0.646    26.305     6.922
   722   1 h        0.804     0.344     0.602     1.219
   723   1 h        0.805     0.322     0.658     1.274
   724   8 o        1.607    -0.681    27.219     7.041
   725   1 h        0.803     0.337     0.620     1.237
   726   1 h        0.803     0.358     0.571     1.187
   727   8 o        1.607    -0.674    27.030     7.017
   728   1 h        0.804     0.330     0.639     1.255
   729   1 h        0.803     0.334     0.627     1.244
   730   8 o        1.608    -0.675    27.067     7.022
   731   1 h        0.804     0.331     0.634     1.251
   732   1 h        0.804     0.344     0.602     1.219
   733   8 o        1.608    -0.688    27.382     7.062
   734   1 h        0.804     0.366     0.553     1.168
   735   1 h        0.805     0.324     0.652     1.269
   736   8 o        1.608    -0.648    26.356     6.929
   737   1 h        0.803     0.354     0.579     1.196
   738   1 h        0.806     0.308     0.698     1.312
   739   8 o        1.608    -0.692    27.512     7.079
   740   1 h        0.803     0.347     0.594     1.211
   741   1 h        0.804     0.339     0.615     1.232
   742   8 o        1.607    -0.715    28.124     7.157
   743   1 h        0.804     0.329     0.641     1.258
   744   1 h        0.803     0.350     0.589     1.206
   745   8 o        1.608    -0.669    26.905     7.001
   746   1 h        0.806     0.310     0.692     1.306
   747   1 h        0.802     0.360     0.566     1.182
   748   8 o        1.607    -0.682    27.249     7.045
   749   1 h        0.802     0.343     0.605     1.222
   750   1 h        0.805     0.329     0.640     1.257
   751   8 o        1.609    -0.671    26.957     7.007
   752   1 h        0.806     0.322     0.657     1.274
   753   1 h        0.803     0.355     0.576     1.192
   754   8 o        1.611    -0.672    26.973     7.010
   755   1 h        0.805     0.336     0.622     1.239
   756   1 h        0.805     0.336     0.622     1.239

 Mol. C6AA /au·bohr⁶  :    2900592.409830
 Mol. C8AA /au·bohr⁸  :   52637673.245928
 Mol. α(0) /au        :       2393.436719


Wiberg/Mayer (AO) data.
largest (>0.10) Wiberg bond orders for each atom

 ---------------------------------------------------------------------------
     #   Z sym  total        # sym  WBO       # sym  WBO       # sym  WBO
 ---------------------------------------------------------------------------
     1   8 o    1.811 --     3 h    0.841     2 h    0.834
     2   1 h    0.884 --     1 o    0.834
     3   1 h    0.884 --     1 o    0.841
     4   8 o    1.845 --     6 h    0.877     5 h    0.774
     5   1 h    0.865 --     4 o    0.774
     6   1 h    0.902 --     4 o    0.877
     7   8 o    1.862 --     8 h    0.854     9 h    0.826
     8   1 h    0.879 --     7 o    0.854
     9   1 h    0.872 --     7 o    0.826
    10   8 o    1.838 --    11 h    0.830    12 h    0.826
    11   1 h    0.884 --    10 o    0.830
    12   1 h    0.880 --    10 o    0.826
    13   8 o    1.821 --    15 h    0.863    14 h    0.802
    14   1 h    0.876 --    13 o    0.802
    15   1 h    0.895 --    13 o    0.863
    16   8 o    1.832 --    18 h    0.821    17 h    0.784
    17   1 h    0.872 --    16 o    0.784
    18   1 h    0.878 --    16 o    0.821
    19   8 o    1.871 --    21 h    0.841    20 h    0.816
    20   1 h    0.877 --    19 o    0.816
    21   1 h    0.886 --    19 o    0.841
    22   8 o    1.909 --    23 h    0.862    24 h    0.800
    23   1 h    0.878 --    22 o    0.862
    24   1 h    0.867 --    22 o    0.800
    25   8 o    1.834 --    26 h    0.871    27 h    0.802
    26   1 h    0.904 --    25 o    0.871
    27   1 h    0.874 --    25 o    0.802
    28   8 o    1.859 --    29 h    0.818    30 h    0.814
    29   1 h    0.877 --    28 o    0.818
    30   1 h    0.878 --    28 o    0.814
    31   8 o    1.892 --    32 h    0.830    33 h    0.811
    32   1 h    0.890 --    31 o    0.830
    33   1 h    0.888 --    31 o    0.811
    34   8 o    1.825 --    35 h    0.817    36 h    0.794
    35   1 h    0.883 --    34 o    0.817
    36   1 h    0.875 --    34 o    0.794
    37   8 o    1.821 --    38 h    0.867    39 h    0.836
    38   1 h    0.896 --    37 o    0.867
    39   1 h    0.883 --    37 o    0.836
    40   8 o    1.861 --    41 h    0.815    42 h    0.798
    41   1 h    0.879 --    40 o    0.815
    42   1 h    0.877 --    40 o    0.798
    43   8 o    1.861 --    45 h    0.806    44 h    0.780
    44   1 h    0.871 --    43 o    0.780
    45   1 h    0.882 --    43 o    0.806
    46   8 o    1.854 --    48 h    0.841    47 h    0.827
    47   1 h    0.886 --    46 o    0.827
    48   1 h    0.880 --    46 o    0.841
    49   8 o    1.827 --    50 h    0.878    51 h    0.822
    50   1 h    0.897 --    49 o    0.878
    51   1 h    0.875 --    49 o    0.822
    52   8 o    1.876 --    53 h    0.840    54 h    0.782
    53   1 h    0.879 --    52 o    0.840
    54   1 h    0.874 --    52 o    0.782
    55   8 o    1.850 --    57 h    0.821    56 h    0.816
    56   1 h    0.885 --    55 o    0.816
    57   1 h    0.881 --    55 o    0.821
    58   8 o    1.870 --    59 h    0.830    60 h    0.794
    59   1 h    0.874 --    58 o    0.830
    60   1 h    0.872 --    58 o    0.794
    61   8 o    1.860 --    63 h    0.839    62 h    0.794
    62   1 h    0.870 --    61 o    0.794
    63   1 h    0.894 --    61 o    0.839
    64   8 o    1.861 --    65 h    0.811    66 h    0.804
    65   1 h    0.882 --    64 o    0.811
    66   1 h    0.867 --    64 o    0.804
    67   8 o    1.794 --    69 h    0.842    68 h    0.800
    68   1 h    0.882 --    67 o    0.800
    69   1 h    0.886 --    67 o    0.842
    70   8 o    1.857 --    72 h    0.826    71 h    0.817
    71   1 h    0.881 --    70 o    0.817
    72   1 h    0.878 --    70 o    0.826
    73   8 o    1.850 --    75 h    0.824    74 h    0.813
    74   1 h    0.873 --    73 o    0.813
    75   1 h    0.883 --    73 o    0.824
    76   8 o    1.845 --    78 h    0.851    77 h    0.778
    77   1 h    0.868 --    76 o    0.778
    78   1 h    0.890 --    76 o    0.851
    79   8 o    1.867 --    81 h    0.831    80 h    0.784
    80   1 h    0.861 --    79 o    0.784
    81   1 h    0.892 --    79 o    0.831
    82   8 o    1.869 --    83 h    0.820    84 h    0.806
    83   1 h    0.887 --    82 o    0.820
    84   1 h    0.872 --    82 o    0.806
    85   8 o    1.837 --    86 h    0.849    87 h    0.807
    86   1 h    0.894 --    85 o    0.849
    87   1 h    0.880 --    85 o    0.807
    88   8 o    1.838 --    89 h    0.873    90 h    0.771
    89   1 h    0.899 --    88 o    0.873
    90   1 h    0.870 --    88 o    0.771
    91   8 o    1.813 --    93 h    0.856    92 h    0.854
    92   1 h    0.886 --    91 o    0.854
    93   1 h    0.890 --    91 o    0.856
    94   8 o    1.859 --    95 h    0.827    96 h    0.816
    95   1 h    0.881 --    94 o    0.827
    96   1 h    0.881 --    94 o    0.816
    97   8 o    1.881 --    98 h    0.830    99 h    0.792
    98   1 h    0.876 --    97 o    0.830
    99   1 h    0.869 --    97 o    0.792
   100   8 o    1.852 --   102 h    0.834   101 h    0.773
   101   1 h    0.874 --   100 o    0.773
   102   1 h    0.896 --   100 o    0.834
   103   8 o    1.866 --   105 h    0.826   104 h    0.801
   104   1 h    0.880 --   103 o    0.801
   105   1 h    0.889 --   103 o    0.826
   106   8 o    1.830 --   107 h    0.854   108 h    0.839
   107   1 h    0.891 --   106 o    0.854
   108   1 h    0.883 --   106 o    0.839
   109   8 o    1.864 --   110 h    0.814   111 h    0.805
   110   1 h    0.884 --   109 o    0.814
   111   1 h    0.882 --   109 o    0.805
   112   8 o    1.848 --   114 h    0.826   113 h    0.815
   113   1 h    0.871 --   112 o    0.815
   114   1 h    0.879 --   112 o    0.826
   115   8 o    1.819 --   117 h    0.869   116 h    0.804
   116   1 h    0.877 --   115 o    0.804
   117   1 h    0.892 --   115 o    0.869
   118   8 o    1.857 --   120 h    0.823   119 h    0.822
   119   1 h    0.877 --   118 o    0.822
   120   1 h    0.890 --   118 o    0.823
   121   8 o    1.840 --   123 h    0.875   122 h    0.834
   122   1 h    0.889 --   121 o    0.834
   123   1 h    0.897 --   121 o    0.875
   124   8 o    1.806 --   126 h    0.818   125 h    0.817
   125   1 h    0.885 --   124 o    0.817
   126   1 h    0.877 --   124 o    0.818
   127   8 o    1.844 --   128 h    0.803   129 h    0.789
   128   1 h    0.873 --   127 o    0.803
   129   1 h    0.878 --   127 o    0.789
   130   8 o    1.816 --   131 h    0.835   132 h    0.803
   131   1 h    0.887 --   130 o    0.835
   132   1 h    0.883 --   130 o    0.803
   133   8 o    1.853 --   134 h    0.861   135 h    0.832
   134   1 h    0.895 --   133 o    0.861
   135   1 h    0.890 --   133 o    0.832
   136   8 o    1.859 --   138 h    0.832   137 h    0.794
   137   1 h    0.880 --   136 o    0.794
   138   1 h    0.895 --   136 o    0.832
   139   8 o    1.855 --   141 h    0.834   140 h    0.809
   140   1 h    0.872 --   139 o    0.809
   141   1 h    0.886 --   139 o    0.834
   142   8 o    1.841 --   143 h    0.834   144 h    0.833
   143   1 h    0.880 --   142 o    0.834
   144   1 h    0.896 --   142 o    0.833
   145   8 o    1.829 --   147 h    0.858   146 h    0.789
   146   1 h    0.870 --   145 o    0.789
   147   1 h    0.897 --   145 o    0.858
   148   8 o    1.851 --   150 h    0.853   149 h    0.780
   149   1 h    0.870 --   148 o    0.780
   150   1 h    0.886 --   148 o    0.853
   151   8 o    1.851 --   153 h    0.848   152 h    0.835
   152   1 h    0.883 --   151 o    0.835
   153   1 h    0.900 --   151 o    0.848
   154   8 o    1.861 --   156 h    0.829   155 h    0.782
   155   1 h    0.863 --   154 o    0.782
   156   1 h    0.886 --   154 o    0.829
   157   8 o    1.826 --   158 h    0.881   159 h    0.844
   158   1 h    0.897 --   157 o    0.881
   159   1 h    0.884 --   157 o    0.844
   160   8 o    1.867 --   161 h    0.826   162 h    0.819
   161   1 h    0.885 --   160 o    0.826
   162   1 h    0.886 --   160 o    0.819
   163   8 o    1.820 --   164 h    0.861   165 h    0.813
   164   1 h    0.896 --   163 o    0.861
   165   1 h    0.878 --   163 o    0.813
   166   8 o    1.882 --   167 h    0.803   168 h    0.801
   167   1 h    0.873 --   166 o    0.803
   168   1 h    0.878 --   166 o    0.801
   169   8 o    1.879 --   171 h    0.824   170 h    0.819
   170   1 h    0.872 --   169 o    0.819
   171   1 h    0.893 --   169 o    0.824
   172   8 o    1.866 --   174 h    0.835   173 h    0.819
   173   1 h    0.889 --   172 o    0.819
   174   1 h    0.891 --   172 o    0.835
   175   8 o    1.839 --   176 h    0.815   177 h    0.813
   176   1 h    0.884 --   175 o    0.815
   177   1 h    0.880 --   175 o    0.813
   178   8 o    1.870 --   179 h    0.811   180 h    0.800
   179   1 h    0.877 --   178 o    0.811
   180   1 h    0.885 --   178 o    0.800
   181   8 o    1.878 --   183 h    0.851   182 h    0.828
   182   1 h    0.890 --   181 o    0.828
   183   1 h    0.890 --   181 o    0.851
   184   8 o    1.863 --   186 h    0.819   185 h    0.807
   185   1 h    0.879 --   184 o    0.807
   186   1 h    0.883 --   184 o    0.819
   187   8 o    1.806 --   189 h    0.877   188 h    0.809
   188   1 h    0.872 --   187 o    0.809
   189   1 h    0.900 --   187 o    0.877
   190   8 o    1.844 --   191 h    0.809   192 h    0.806
   191   1 h    0.878 --   190 o    0.809
   192   1 h    0.885 --   190 o    0.806
   193   8 o    1.867 --   195 h    0.820   194 h    0.818
   194   1 h    0.877 --   193 o    0.818
   195   1 h    0.877 --   193 o    0.820
   196   8 o    1.854 --   198 h    0.872   197 h    0.798
   197   1 h    0.869 --   196 o    0.798
   198   1 h    0.896 --   196 o    0.872
   199   8 o    1.851 --   200 h    0.823   201 h    0.781
   200   1 h    0.891 --   199 o    0.823
   201   1 h    0.872 --   199 o    0.781
   202   8 o    1.881 --   204 h    0.861   203 h    0.771
   203   1 h    0.866 --   202 o    0.771
   204   1 h    0.894 --   202 o    0.861
   205   8 o    1.880 --   206 h    0.841   207 h    0.778
   206   1 h    0.879 --   205 o    0.841
   207   1 h    0.868 --   205 o    0.778
   208   8 o    1.833 --   210 h    0.866   209 h    0.805
   209   1 h    0.877 --   208 o    0.805
   210   1 h    0.894 --   208 o    0.866
   211   8 o    1.882 --   213 h    0.813   212 h    0.812
   212   1 h    0.877 --   211 o    0.812
   213   1 h    0.889 --   211 o    0.813
   214   8 o    1.827 --   216 h    0.831   215 h    0.817
   215   1 h    0.881 --   214 o    0.817
   216   1 h    0.890 --   214 o    0.831
   217   8 o    1.830 --   219 h    0.824   218 h    0.802
   218   1 h    0.873 --   217 o    0.802
   219   1 h    0.879 --   217 o    0.824
   220   8 o    1.875 --   222 h    0.840   221 h    0.812
   221   1 h    0.874 --   220 o    0.812
   222   1 h    0.887 --   220 o    0.840
   223   8 o    1.864 --   225 h    0.828   224 h    0.803
   224   1 h    0.871 --   223 o    0.803
   225   1 h    0.881 --   223 o    0.828
   226   8 o    1.856 --   227 h    0.856   228 h    0.812
   227   1 h    0.886 --   226 o    0.856
   228   1 h    0.879 --   226 o    0.812
   229   8 o    1.844 --   231 h    0.847   230 h    0.799
   230   1 h    0.877 --   229 o    0.799
   231   1 h    0.897 --   229 o    0.847
   232   8 o    1.861 --   233 h    0.813   234 h    0.776
   233   1 h    0.882 --   232 o    0.813
   234   1 h    0.868 --   232 o    0.776
   235   8 o    1.885 --   236 h    0.823   237 h    0.817
   236   1 h    0.882 --   235 o    0.823
   237   1 h    0.886 --   235 o    0.817
   238   8 o    1.858 --   239 h    0.838   240 h    0.825
   239   1 h    0.889 --   238 o    0.838
   240   1 h    0.882 --   238 o    0.825
   241   8 o    1.807 --   243 h    0.870   242 h    0.799
   242   1 h    0.871 --   241 o    0.799
   243   1 h    0.897 --   241 o    0.870
   244   8 o    1.874 --   245 h    0.835   246 h    0.814
   245   1 h    0.888 --   244 o    0.835
   246   1 h    0.883 --   244 o    0.814
   247   8 o    1.853 --   249 h    0.858   248 h    0.811
   248   1 h    0.879 --   247 o    0.811
   249   1 h    0.898 --   247 o    0.858
   250   8 o    1.797 --   251 h    0.862   252 h    0.836
   251   1 h    0.890 --   250 o    0.862
   252   1 h    0.889 --   250 o    0.836
   253   8 o    1.852 --   254 h    0.795   255 h    0.791
   254   1 h    0.879 --   253 o    0.795
   255   1 h    0.880 --   253 o    0.791
   256   8 o    1.816 --   258 h    0.854   257 h    0.826
   257   1 h    0.887 --   256 o    0.826
   258   1 h    0.891 --   256 o    0.854
   259   8 o    1.815 --   260 h    0.868   261 h    0.813
   260   1 h    0.894 --   259 o    0.868
   261   1 h    0.882 --   259 o    0.813
   262   8 o    1.866 --   263 h    0.865   264 h    0.816   702 h    0.101
   263   1 h    0.889 --   262 o    0.865
   264   1 h    0.872 --   262 o    0.816
   265   8 o    1.843 --   266 h    0.887   267 h    0.803
   266   1 h    0.898 --   265 o    0.887
   267   1 h    0.884 --   265 o    0.803
   268   8 o    1.838 --   270 h    0.850   269 h    0.798
   269   1 h    0.884 --   268 o    0.798
   270   1 h    0.888 --   268 o    0.850
   271   8 o    1.878 --   273 h    0.841   272 h    0.816
   272   1 h    0.876 --   271 o    0.816
   273   1 h    0.875 --   271 o    0.841
   274   8 o    1.883 --   275 h    0.808   276 h    0.789
   275   1 h    0.872 --   274 o    0.808
   276   1 h    0.875 --   274 o    0.789
   277   8 o    1.855 --   278 h    0.815   279 h    0.811
   278   1 h    0.877 --   277 o    0.815
   279   1 h    0.871 --   277 o    0.811
   280   8 o    1.876 --   281 h    0.838   282 h    0.812
   281   1 h    0.894 --   280 o    0.838
   282   1 h    0.887 --   280 o    0.812
   283   8 o    1.871 --   284 h    0.857   285 h    0.820
   284   1 h    0.896 --   283 o    0.857
   285   1 h    0.885 --   283 o    0.820
   286   8 o    1.833 --   287 h    0.853   288 h    0.844
   287   1 h    0.888 --   286 o    0.853
   288   1 h    0.882 --   286 o    0.844
   289   8 o    1.843 --   291 h    0.841   290 h    0.786
   290   1 h    0.868 --   289 o    0.786
   291   1 h    0.888 --   289 o    0.841
   292   8 o    1.851 --   293 h    0.840   294 h    0.815
   293   1 h    0.889 --   292 o    0.840
   294   1 h    0.889 --   292 o    0.815
   295   8 o    1.869 --   296 h    0.840   297 h    0.829
   296   1 h    0.894 --   295 o    0.840
   297   1 h    0.871 --   295 o    0.829
   298   8 o    1.849 --   300 h    0.817   299 h    0.803
   299   1 h    0.873 --   298 o    0.803
   300   1 h    0.878 --   298 o    0.817
   301   8 o    1.852 --   303 h    0.848   302 h    0.840
   302   1 h    0.898 --   301 o    0.840
   303   1 h    0.883 --   301 o    0.848
   304   8 o    1.828 --   305 h    0.854   306 h    0.791
   305   1 h    0.894 --   304 o    0.854
   306   1 h    0.886 --   304 o    0.791
   307   8 o    1.874 --   309 h    0.811   308 h    0.798
   308   1 h    0.874 --   307 o    0.798
   309   1 h    0.880 --   307 o    0.811
   310   8 o    1.855 --   311 h    0.799   312 h    0.779
   311   1 h    0.891 --   310 o    0.799
   312   1 h    0.870 --   310 o    0.779
   313   8 o    1.813 --   314 h    0.879   315 h    0.840
   314   1 h    0.892 --   313 o    0.879
   315   1 h    0.886 --   313 o    0.840
   316   8 o    1.814 --   318 h    0.858   317 h    0.843
   317   1 h    0.883 --   316 o    0.843
   318   1 h    0.893 --   316 o    0.858
   319   8 o    1.863 --   320 h    0.829   321 h    0.822
   320   1 h    0.885 --   319 o    0.829
   321   1 h    0.876 --   319 o    0.822
   322   8 o    1.816 --   323 h    0.864   324 h    0.798
   323   1 h    0.893 --   322 o    0.864
   324   1 h    0.866 --   322 o    0.798
   325   8 o    1.835 --   326 h    0.827   327 h    0.765
   326   1 h    0.892 --   325 o    0.827
   327   1 h    0.871 --   325 o    0.765
   328   8 o    1.876 --   330 h    0.878   329 h    0.826
   329   1 h    0.889 --   328 o    0.826
   330   1 h    0.896 --   328 o    0.878
   331   8 o    1.824 --   333 h    0.874   332 h    0.791
   332   1 h    0.869 --   331 o    0.791
   333   1 h    0.902 --   331 o    0.874
   334   8 o    1.840 --   335 h    0.862   336 h    0.787
   335   1 h    0.900 --   334 o    0.862
   336   1 h    0.867 --   334 o    0.787
   337   8 o    1.839 --   338 h    0.850   339 h    0.828
   338   1 h    0.891 --   337 o    0.850
   339   1 h    0.883 --   337 o    0.828
   340   8 o    1.851 --   342 h    0.826   341 h    0.813
   341   1 h    0.878 --   340 o    0.813
   342   1 h    0.894 --   340 o    0.826
   343   8 o    1.850 --   345 h    0.844   344 h    0.802
   344   1 h    0.876 --   343 o    0.802
   345   1 h    0.899 --   343 o    0.844
   346   8 o    1.882 --   348 h    0.823   347 h    0.795
   347   1 h    0.865 --   346 o    0.795
   348   1 h    0.879 --   346 o    0.823
   349   8 o    1.859 --   351 h    0.843   350 h    0.816
   350   1 h    0.874 --   349 o    0.816
   351   1 h    0.891 --   349 o    0.843
   352   8 o    1.788 --   353 h    0.850   354 h    0.838
   353   1 h    0.894 --   352 o    0.850
   354   1 h    0.892 --   352 o    0.838
   355   8 o    1.837 --   357 h    0.837   356 h    0.807
   356   1 h    0.874 --   355 o    0.807
   357   1 h    0.894 --   355 o    0.837
   358   8 o    1.796 --   360 h    0.864   359 h    0.807
   359   1 h    0.873 --   358 o    0.807
   360   1 h    0.899 --   358 o    0.864
   361   8 o    1.824 --   363 h    0.853   362 h    0.842
   362   1 h    0.885 --   361 o    0.842
   363   1 h    0.891 --   361 o    0.853
   364   8 o    1.883 --   366 h    0.876   365 h    0.816
[...]
   369   1 h    0.875 --   367 o    0.788
   370   8 o    1.810 --   371 h    0.851   372 h    0.832
   371   1 h    0.890 --   370 o    0.851
   372   1 h    0.875 --   370 o    0.832
   373   8 o    1.814 --   374 h    0.899   375 h    0.802
   374   1 h    0.905 --   373 o    0.899
   375   1 h    0.874 --   373 o    0.802
   376   8 o    1.838 --   377 h    0.836   378 h    0.819
   377   1 h    0.879 --   376 o    0.836
   378   1 h    0.884 --   376 o    0.819
   379   8 o    1.821 --   380 h    0.877   381 h    0.818
   380   1 h    0.896 --   379 o    0.877
   381   1 h    0.876 --   379 o    0.818
   382   8 o    1.798 --   383 h    0.875   384 h    0.811
   383   1 h    0.899 --   382 o    0.875
   384   1 h    0.876 --   382 o    0.811
   385   8 o    1.872 --   386 h    0.836   387 h    0.806
   386   1 h    0.895 --   385 o    0.836
   387   1 h    0.876 --   385 o    0.806
   388   8 o    1.854 --   390 h    0.891   389 h    0.814
   389   1 h    0.877 --   388 o    0.814
   390   1 h    0.900 --   388 o    0.891
   391   8 o    1.842 --   393 h    0.846   392 h    0.845
   392   1 h    0.881 --   391 o    0.845
   393   1 h    0.886 --   391 o    0.846
   394   8 o    1.883 --   396 h    0.812   395 h    0.769
   395   1 h    0.867 --   394 o    0.769
   396   1 h    0.885 --   394 o    0.812
   397   8 o    1.851 --   398 h    0.826   399 h    0.811
   398   1 h    0.890 --   397 o    0.826
   399   1 h    0.874 --   397 o    0.811
   400   8 o    1.855 --   401 h    0.814   402 h    0.812
   401   1 h    0.870 --   400 o    0.814
   402   1 h    0.881 --   400 o    0.812
   403   8 o    1.851 --   405 h    0.814   404 h    0.801
   404   1 h    0.879 --   403 o    0.801
   405   1 h    0.872 --   403 o    0.814
   406   8 o    1.863 --   407 h    0.857   408 h    0.799
   407   1 h    0.891 --   406 o    0.857
   408   1 h    0.881 --   406 o    0.799
   409   8 o    1.816 --   410 h    0.876   411 h    0.798
   410   1 h    0.899 --   409 o    0.876
   411   1 h    0.869 --   409 o    0.798
   412   8 o    1.831 --   413 h    0.841   414 h    0.788
   413   1 h    0.889 --   412 o    0.841
   414   1 h    0.868 --   412 o    0.788
   415   8 o    1.807 --   416 h    0.855   417 h    0.828
   416   1 h    0.894 --   415 o    0.855
   417   1 h    0.882 --   415 o    0.828
   418   8 o    1.814 --   420 h    0.862   419 h    0.822
   419   1 h    0.881 --   418 o    0.822
   420   1 h    0.894 --   418 o    0.862
   421   8 o    1.854 --   422 h    0.864   423 h    0.837
   422   1 h    0.886 --   421 o    0.864
   423   1 h    0.881 --   421 o    0.837
   424   8 o    1.849 --   425 h    0.864   426 h    0.833
   425   1 h    0.886 --   424 o    0.864
   426   1 h    0.869 --   424 o    0.833
   427   8 o    1.824 --   429 h    0.872   428 h    0.839
   428   1 h    0.885 --   427 o    0.839
   429   1 h    0.892 --   427 o    0.872
   430   8 o    1.825 --   432 h    0.875   431 h    0.831
   431   1 h    0.882 --   430 o    0.831
   432   1 h    0.893 --   430 o    0.875
   433   8 o    1.855 --   434 h    0.829   435 h    0.815
   434   1 h    0.869 --   433 o    0.829
   435   1 h    0.884 --   433 o    0.815
   436   8 o    1.862 --   437 h    0.847   438 h    0.838
   437   1 h    0.895 --   436 o    0.847
   438   1 h    0.890 --   436 o    0.838
   439   8 o    1.845 --   440 h    0.823   441 h    0.807
   440   1 h    0.877 --   439 o    0.823
   441   1 h    0.876 --   439 o    0.807
   442   8 o    1.811 --   444 h    0.860   443 h    0.859
   443   1 h    0.889 --   442 o    0.859
   444   1 h    0.892 --   442 o    0.860
   445   8 o    1.840 --   447 h    0.858   446 h    0.819
   446   1 h    0.883 --   445 o    0.819
   447   1 h    0.892 --   445 o    0.858
   448   8 o    1.804 --   449 h    0.895   450 h    0.804
   449   1 h    0.903 --   448 o    0.895
   450   1 h    0.875 --   448 o    0.804
   451   8 o    1.838 --   453 h    0.900   452 h    0.785
   452   1 h    0.869 --   451 o    0.785
   453   1 h    0.904 --   451 o    0.900
   454   8 o    1.798 --   455 h    0.871   456 h    0.848
   455   1 h    0.895 --   454 o    0.871
   456   1 h    0.883 --   454 o    0.848
   457   8 o    1.850 --   458 h    0.874   459 h    0.815
   458   1 h    0.898 --   457 o    0.874
   459   1 h    0.884 --   457 o    0.815
   460   8 o    1.871 --   462 h    0.897   461 h    0.784
   461   1 h    0.877 --   460 o    0.784
   462   1 h    0.906 --   460 o    0.897
   463   8 o    1.808 --   464 h    0.856   465 h    0.819
   464   1 h    0.890 --   463 o    0.856
   465   1 h    0.883 --   463 o    0.819
   466   8 o    1.886 --   467 h    0.829   468 h    0.826
   467   1 h    0.888 --   466 o    0.829
   468   1 h    0.887 --   466 o    0.826
   469   8 o    1.847 --   471 h    0.888   470 h    0.796
   470   1 h    0.881 --   469 o    0.796
   471   1 h    0.900 --   469 o    0.888
   472   8 o    1.835 --   474 h    0.865   473 h    0.855
   473   1 h    0.887 --   472 o    0.855
   474   1 h    0.892 --   472 o    0.865
   475   8 o    1.833 --   477 h    0.851   476 h    0.823
   476   1 h    0.887 --   475 o    0.823
   477   1 h    0.882 --   475 o    0.851
   478   8 o    1.804 --   480 h    0.855   479 h    0.833
   479   1 h    0.886 --   478 o    0.833
   480   1 h    0.892 --   478 o    0.855
   481   8 o    1.894 --   483 h    0.834   482 h    0.787
   482   1 h    0.871 --   481 o    0.787
   483   1 h    0.884 --   481 o    0.834
   484   8 o    1.827 --   486 h    0.846   485 h    0.823
   485   1 h    0.874 --   484 o    0.823
   486   1 h    0.891 --   484 o    0.846
   487   8 o    1.859 --   488 h    0.847   489 h    0.804
   488   1 h    0.890 --   487 o    0.847
   489   1 h    0.872 --   487 o    0.804
   490   8 o    1.820 --   491 h    0.873   492 h    0.821
   491   1 h    0.892 --   490 o    0.873
   492   1 h    0.885 --   490 o    0.821
   493   8 o    1.861 --   495 h    0.854   494 h    0.821
   494   1 h    0.889 --   493 o    0.821
   495   1 h    0.890 --   493 o    0.854
   496   8 o    1.892 --   497 h    0.789   498 h    0.786
   497   1 h    0.877 --   496 o    0.789
   498   1 h    0.869 --   496 o    0.786
   499   8 o    1.847 --   500 h    0.842   501 h    0.808
   500   1 h    0.894 --   499 o    0.842
   501   1 h    0.872 --   499 o    0.808
   502   8 o    1.819 --   503 h    0.840   504 h    0.830
   503   1 h    0.888 --   502 o    0.840
   504   1 h    0.886 --   502 o    0.830
   505   8 o    1.872 --   507 h    0.822   506 h    0.798
   506   1 h    0.872 --   505 o    0.798
   507   1 h    0.881 --   505 o    0.822
   508   8 o    1.833 --   509 h    0.845   510 h    0.834
   509   1 h    0.886 --   508 o    0.845
   510   1 h    0.880 --   508 o    0.834
   511   8 o    1.819 --   512 h    0.830   513 h    0.807
   512   1 h    0.893 --   511 o    0.830
   513   1 h    0.870 --   511 o    0.807
   514   8 o    1.847 --   515 h    0.867   516 h    0.789
   515   1 h    0.896 --   514 o    0.867
   516   1 h    0.871 --   514 o    0.789
   517   8 o    1.851 --   519 h    0.827   518 h    0.809
   518   1 h    0.874 --   517 o    0.809
   519   1 h    0.896 --   517 o    0.827
   520   8 o    1.821 --   521 h    0.827   522 h    0.817
   521   1 h    0.891 --   520 o    0.827
   522   1 h    0.881 --   520 o    0.817
   523   8 o    1.789 --   524 h    0.840   525 h    0.838
   524   1 h    0.885 --   523 o    0.840
   525   1 h    0.892 --   523 o    0.838
   526   8 o    1.828 --   528 h    0.861   527 h    0.833
   527   1 h    0.877 --   526 o    0.833
   528   1 h    0.893 --   526 o    0.861
   529   8 o    1.826 --   530 h    0.849   531 h    0.836
   530   1 h    0.889 --   529 o    0.849
   531   1 h    0.884 --   529 o    0.836
   532   8 o    1.815 --   534 h    0.899   533 h    0.780
   533   1 h    0.866 --   532 o    0.780
   534   1 h    0.909 --   532 o    0.899
   535   8 o    1.845 --   537 h    0.845   536 h    0.815
   536   1 h    0.870 --   535 o    0.815
   537   1 h    0.888 --   535 o    0.845
   538   8 o    1.793 --   540 h    0.853   539 h    0.852
   539   1 h    0.893 --   538 o    0.852
   540   1 h    0.894 --   538 o    0.853
   541   8 o    1.829 --   542 h    0.861   543 h    0.775
   542   1 h    0.895 --   541 o    0.861
   543   1 h    0.873 --   541 o    0.775
   544   8 o    1.824 --   546 h    0.867   545 h    0.866
   545   1 h    0.884 --   544 o    0.866
   546   1 h    0.890 --   544 o    0.867
   547   8 o    1.831 --   548 h    0.834   549 h    0.786
   548   1 h    0.887 --   547 o    0.834
   549   1 h    0.871 --   547 o    0.786
   550   8 o    1.828 --   551 h    0.858   552 h    0.844
   551   1 h    0.887 --   550 o    0.858
   552   1 h    0.886 --   550 o    0.844
   553   8 o    1.881 --   555 h    0.861   554 h    0.820
   554   1 h    0.881 --   553 o    0.820
   555   1 h    0.892 --   553 o    0.861
   556   8 o    1.834 --   558 h    0.897   557 h    0.794
   557   1 h    0.873 --   556 o    0.794
   558   1 h    0.902 --   556 o    0.897
   559   8 o    1.851 --   561 h    0.852   560 h    0.838
   560   1 h    0.886 --   559 o    0.838
   561   1 h    0.887 --   559 o    0.852
   562   8 o    1.815 --   563 h    0.864   564 h    0.833
   563   1 h    0.891 --   562 o    0.864
   564   1 h    0.880 --   562 o    0.833
   565   8 o    1.851 --   566 h    0.845   567 h    0.801
   566   1 h    0.897 --   565 o    0.845
   567   1 h    0.877 --   565 o    0.801
   568   8 o    1.847 --   570 h    0.891   569 h    0.803
   569   1 h    0.868 --   568 o    0.803
   570   1 h    0.900 --   568 o    0.891
   571   8 o    1.882 --   573 h    0.843   572 h    0.813
   572   1 h    0.876 --   571 o    0.813
   573   1 h    0.890 --   571 o    0.843
   574   8 o    1.817 --   575 h    0.809   576 h    0.808
   575   1 h    0.874 --   574 o    0.809
   576   1 h    0.878 --   574 o    0.808
   577   8 o    1.862 --   579 h    0.835   578 h    0.797
   578   1 h    0.864 --   577 o    0.797
   579   1 h    0.889 --   577 o    0.835
   580   8 o    1.827 --   582 h    0.901   581 h    0.815
   581   1 h    0.872 --   580 o    0.815
   582   1 h    0.907 --   580 o    0.901
   583   8 o    1.903 --   585 h    0.815   584 h    0.786
   584   1 h    0.873 --   583 o    0.786
   585   1 h    0.880 --   583 o    0.815
   586   8 o    1.859 --   587 h    0.876   588 h    0.785
   587   1 h    0.896 --   586 o    0.876
   588   1 h    0.859 --   586 o    0.785
   589   8 o    1.805 --   591 h    0.843   590 h    0.832
   590   1 h    0.885 --   589 o    0.832
   591   1 h    0.886 --   589 o    0.843
   592   8 o    1.821 --   594 h    0.861   593 h    0.856
   593   1 h    0.893 --   592 o    0.856
   594   1 h    0.894 --   592 o    0.861
   595   8 o    1.836 --   597 h    0.856   596 h    0.834
   596   1 h    0.892 --   595 o    0.834
   597   1 h    0.892 --   595 o    0.856
   598   8 o    1.838 --   599 h    0.855   600 h    0.803
   599   1 h    0.898 --   598 o    0.855
   600   1 h    0.870 --   598 o    0.803
   601   8 o    1.810 --   603 h    0.846   602 h    0.790
   602   1 h    0.873 --   601 o    0.790
   603   1 h    0.894 --   601 o    0.846
   604   8 o    1.820 --   605 h    0.882   606 h    0.766
   605   1 h    0.903 --   604 o    0.882
   606   1 h    0.864 --   604 o    0.766
   607   8 o    1.812 --   608 h    0.893   609 h    0.766
   608   1 h    0.904 --   607 o    0.893
   609   1 h    0.868 --   607 o    0.766
   610   8 o    1.858 --   612 h    0.810   611 h    0.754
   611   1 h    0.860 --   610 o    0.754
   612   1 h    0.888 --   610 o    0.810
   613   8 o    1.814 --   614 h    0.865   615 h    0.835
   614   1 h    0.895 --   613 o    0.865
   615   1 h    0.887 --   613 o    0.835
   616   8 o    1.833 --   618 h    0.890   617 h    0.772
   617   1 h    0.867 --   616 o    0.772
   618   1 h    0.902 --   616 o    0.890
   619   8 o    1.866 --   620 h    0.844   621 h    0.813
   620   1 h    0.891 --   619 o    0.844
   621   1 h    0.875 --   619 o    0.813
   622   8 o    1.806 --   624 h    0.854   623 h    0.807
   623   1 h    0.873 --   622 o    0.807
   624   1 h    0.896 --   622 o    0.854
   625   8 o    1.816 --   626 h    0.837   627 h    0.833
   626   1 h    0.886 --   625 o    0.837
   627   1 h    0.890 --   625 o    0.833
   628   8 o    1.825 --   629 h    0.865   630 h    0.820
   629   1 h    0.890 --   628 o    0.865
   630   1 h    0.886 --   628 o    0.820
   631   8 o    1.882 --   632 h    0.812   633 h    0.811
   632   1 h    0.885 --   631 o    0.812
   633   1 h    0.877 --   631 o    0.811
   634   8 o    1.831 --   635 h    0.853   636 h    0.851
   635   1 h    0.895 --   634 o    0.853
   636   1 h    0.894 --   634 o    0.851
   637   8 o    1.851 --   639 h    0.844   638 h    0.831
   638   1 h    0.890 --   637 o    0.831
   639   1 h    0.889 --   637 o    0.844
   640   8 o    1.847 --   642 h    0.885   641 h    0.843
   641   1 h    0.873 --   640 o    0.843
   642   1 h    0.895 --   640 o    0.885
   643   8 o    1.885 --   645 h    0.832   644 h    0.804
   644   1 h    0.877 --   643 o    0.804
   645   1 h    0.896 --   643 o    0.832
   646   8 o    1.809 --   647 h    0.891   648 h    0.852
   647   1 h    0.900 --   646 o    0.891
   648   1 h    0.890 --   646 o    0.852
   649   8 o    1.862 --   650 h    0.889   651 h    0.817
   650   1 h    0.898 --   649 o    0.889
   651   1 h    0.884 --   649 o    0.817
   652   8 o    1.875 --   653 h    0.834   654 h    0.801
   653   1 h    0.888 --   652 o    0.834
   654   1 h    0.871 --   652 o    0.801
   655   8 o    1.844 --   656 h    0.898   657 h    0.778
   656   1 h    0.905 --   655 o    0.898
   657   1 h    0.867 --   655 o    0.778
   658   8 o    1.853 --   659 h    0.816   660 h    0.779
   659   1 h    0.882 --   658 o    0.816
   660   1 h    0.870 --   658 o    0.779
   661   8 o    1.874 --   663 h    0.856   662 h    0.848
   662   1 h    0.890 --   661 o    0.848
   663   1 h    0.888 --   661 o    0.856
   664   8 o    1.846 --   666 h    0.853   665 h    0.822
   665   1 h    0.879 --   664 o    0.822
   666   1 h    0.887 --   664 o    0.853
   667   8 o    1.820 --   669 h    0.860   668 h    0.804
   668   1 h    0.875 --   667 o    0.804
   669   1 h    0.897 --   667 o    0.860
   670   8 o    1.845 --   671 h    0.846   672 h    0.813
   671   1 h    0.892 --   670 o    0.846
   672   1 h    0.877 --   670 o    0.813
   673   8 o    1.839 --   675 h    0.882   674 h    0.787
   674   1 h    0.862 --   673 o    0.787
   675   1 h    0.896 --   673 o    0.882
   676   8 o    1.866 --   678 h    0.828   677 h    0.790
   677   1 h    0.874 --   676 o    0.790
   678   1 h    0.881 --   676 o    0.828
   679   8 o    1.868 --   681 h    0.843   680 h    0.781
   680   1 h    0.871 --   679 o    0.781
   681   1 h    0.891 --   679 o    0.843
   682   8 o    1.800 --   684 h    0.877   683 h    0.838
   683   1 h    0.880 --   682 o    0.838
   684   1 h    0.898 --   682 o    0.877
   685   8 o    1.854 --   687 h    0.842   686 h    0.819
   686   1 h    0.880 --   685 o    0.819
   687   1 h    0.884 --   685 o    0.842
   688   8 o    1.859 --   690 h    0.846   689 h    0.799
   689   1 h    0.874 --   688 o    0.799
   690   1 h    0.890 --   688 o    0.846
   691   8 o    1.877 --   693 h    0.842   692 h    0.799
   692   1 h    0.884 --   691 o    0.799
   693   1 h    0.891 --   691 o    0.842
   694   8 o    1.827 --   696 h    0.858   695 h    0.832
   695   1 h    0.885 --   694 o    0.832
   696   1 h    0.887 --   694 o    0.858
   697   8 o    1.851 --   699 h    0.841   698 h    0.803
   698   1 h    0.871 --   697 o    0.803
   699   1 h    0.894 --   697 o    0.841
   700   8 o    1.824 --   701 h    0.894   702 h    0.765
   701   1 h    0.902 --   700 o    0.894
   702   1 h    0.874 --   700 o    0.765   262 o    0.101
   703   8 o    1.838 --   705 h    0.865   704 h    0.863
   704   1 h    0.886 --   703 o    0.863
   705   1 h    0.885 --   703 o    0.865
   706   8 o    1.788 --   708 h    0.853   707 h    0.810
   707   1 h    0.876 --   706 o    0.810
   708   1 h    0.899 --   706 o    0.853
   709   8 o    1.837 --   711 h    0.865   710 h    0.806
   710   1 h    0.871 --   709 o    0.806
   711   1 h    0.892 --   709 o    0.865
   712   8 o    1.829 --   713 h    0.863   714 h    0.825
   713   1 h    0.891 --   712 o    0.863
   714   1 h    0.885 --   712 o    0.825
   715   8 o    1.814 --   717 h    0.852   716 h    0.824
   716   1 h    0.883 --   715 o    0.824
   717   1 h    0.888 --   715 o    0.852
   718   8 o    1.876 --   719 h    0.825   720 h    0.790
   719   1 h    0.883 --   718 o    0.825
   720   1 h    0.867 --   718 o    0.790
   721   8 o    1.872 --   723 h    0.875   722 h    0.831
   722   1 h    0.882 --   721 o    0.831
   723   1 h    0.896 --   721 o    0.875
   724   8 o    1.883 --   725 h    0.833   726 h    0.788
   725   1 h    0.887 --   724 o    0.833
   726   1 h    0.872 --   724 o    0.788
   727   8 o    1.846 --   728 h    0.834   729 h    0.825
   728   1 h    0.891 --   727 o    0.834
   729   1 h    0.888 --   727 o    0.825
   730   8 o    1.830 --   731 h    0.855   732 h    0.832
   731   1 h    0.890 --   730 o    0.855
   732   1 h    0.882 --   730 o    0.832
   733   8 o    1.821 --   735 h    0.862   734 h    0.819
   734   1 h    0.866 --   733 o    0.819
   735   1 h    0.895 --   733 o    0.862
   736   8 o    1.856 --   738 h    0.902   737 h    0.810
   737   1 h    0.875 --   736 o    0.810
   738   1 h    0.905 --   736 o    0.902
   739   8 o    1.837 --   741 h    0.842   740 h    0.820
   740   1 h    0.879 --   739 o    0.820
   741   1 h    0.885 --   739 o    0.842
   742   8 o    1.789 --   743 h    0.832   744 h    0.794
   743   1 h    0.892 --   742 o    0.832
   744   1 h    0.878 --   742 o    0.794
   745   8 o    1.838 --   746 h    0.897   747 h    0.788
   746   1 h    0.904 --   745 o    0.897
   747   1 h    0.870 --   745 o    0.788
   748   8 o    1.830 --   750 h    0.861   749 h    0.810
   749   1 h    0.882 --   748 o    0.810
   750   1 h    0.892 --   748 o    0.861
   751   8 o    1.824 --   752 h    0.891   753 h    0.808
   752   1 h    0.896 --   751 o    0.891
   753   1 h    0.874 --   751 o    0.808
   754   8 o    1.774 --   756 h    0.887   755 h    0.887
   755   1 h    0.887 --   754 o    0.887
   756   1 h    0.887 --   754 o    0.887
 ---------------------------------------------------------------------------

Topologies differ in total number of bonds
Writing topology from bond orders to xtbtopo.mol

molecular dipole:
                 x           y           z       tot (Debye)
 q only:       -2.690      -0.341       2.187
   full:       -3.476       0.964       2.950      11.843
molecular quadrupole (traceless):
                xx          xy          yy          xz          yz          zz
 q only:        3.341      -8.368     -48.986      31.985     -48.618      45.645
  q+dip:       10.706     -34.951     -79.900      37.521     -68.471      69.193
   full:       12.620     -36.186     -81.793      38.101     -67.757      69.173


           -------------------------------------------------
          | TOTAL ENERGY            -1283.588958529099 Eh   |
          | GRADIENT NORM               0.103980772902 Eh/α |
          | HOMO-LUMO GAP               8.122773699366 eV   |
           -------------------------------------------------

------------------------------------------------------------------------
 * finished run on 2022/11/24 at 09:28:08.884     
------------------------------------------------------------------------
 total:
 * wall-time:     0 d,  0 h,  0 min, 22.358 sec
 *  cpu-time:     0 d,  0 h,  0 min, 36.169 sec
 * ratio c/w:     1.618 speedup
 SCF:
 * wall-time:     0 d,  0 h,  0 min, 21.361 sec
 *  cpu-time:     0 d,  0 h,  0 min, 34.474 sec
 * ratio c/w:     1.614 speedup

