      -----------------------------------------------------------      
     |                   =====================                   |     
     |                           x T B                           |     
     |                   =====================                   |     
     |                         S. Grimme                         |     
     |          Mulliken Center for Theoretical Chemistry        |     
     |                    University of Bonn                     |     
      -----------------------------------------------------------      

   * xtb version 6.5.1 (579679a) compiled by 'ehlert@majestix' on 2022-07-11

   xtb is free software: you can redistribute it and/or modify it under
   the terms of the GNU Lesser General Public License as published by
   the Free Software Foundation, either version 3 of the License, or
   (at your option) any later version.
   
   xtb is distributed in the hope that it will be useful,
   but WITHOUT ANY WARRANTY; without even the implied warranty of
   MERCHANTABILITY or FITNESS FOR A PARTICULAR PURPOSE.  See the
   GNU Lesser General Public License for more details.
   
   Cite this work as:
   * C. Bannwarth, E. Caldeweyher, S. Ehlert, A. Hansen, P. Pracht,
     J. Seibert, S. Spicher, S. Grimme, WIREs Comput. Mol. Sci., 2020, 11,
     e01493. DOI: 10.1002/wcms.1493
   
   for GFN2-xTB:
   * C. Bannwarth, S. Ehlert and S. Grimme., J. Chem. Theory Comput., 2019,
     15, 1652-1671. DOI: 10.1021/acs.jctc.8b01176
   for GFN1-xTB:
   * S. Grimme, C. Bannwarth, P. Shushkov, J. Chem. Theory Comput., 2017,
     13, 1989-2009. DOI: 10.1021/acs.jctc.7b00118
   for GFN0-xTB:
   * P. Pracht, E. Caldeweyher, S. Ehlert, S. Grimme, ChemRxiv, 2019, preprint.
     DOI: 10.26434/chemrxiv.8326202.v1
   for GFN-FF:
   * S. Spicher and S. Grimme, Angew. Chem. Int. Ed., 2020, 59, 15665-15673.
     DOI: 10.1002/anie.202004239
   
   for ALPB and GBSA implicit solvation:
   * S. Ehlert, M. Stahn, S. Spicher, S. Grimme, J. Chem. Theory Comput.,
     2021, 17, 4250-4261. DOI: 10.1021/acs.jctc.1c00471
   
   for DFT-D4:
   * E. Caldeweyher, C. Bannwarth and S. Grimme, J. Chem. Phys., 2017,
     147, 034112. DOI: 10.1063/1.4993215
   * E. Caldeweyher, S. Ehlert, A. Hansen, H. Neugebauer, S. Spicher,
     C. Bannwarth and S. Grimme, J. Chem. Phys., 2019, 150, 154122.
     DOI: 10.1063/1.5090222
   * E. Caldeweyher, J.-M. Mewes, S. Ehlert and S. Grimme, Phys. Chem. Chem. Phys.
     2020, 22, 8499-8512. DOI: 10.1039/D0CP00502A
   
   for sTDA-xTB:
   * S. Grimme and C. Bannwarth, J. Chem. Phys., 2016, 145, 054103.
     DOI: 10.1063/1.4959605
   
   in the mass-spec context:
   * V. Asgeirsson, C. Bauer and S. Grimme, Chem. Sci., 2017, 8, 4879.
     DOI: 10.1039/c7sc00601b
   * J. Koopman and S. Grimme, ACS Omega 2019, 4, 12, 15120-15133.
     DOI: 10.1021/acsomega.9b02011
   
   for metadynamics refer to:
   * S. Grimme, J. Chem. Theory Comput., 2019, 155, 2847-2862
     DOI: 10.1021/acs.jctc.9b00143
   
   for SPH calculations refer to:
   * S. Spicher and S. Grimme, J. Chem. Theory Comput., 2021, 17, 1701-1714
     DOI: 10.1021/acs.jctc.0c01306
   
   with help from (in alphabetical order)
   P. Atkinson, C. Bannwarth, F. Bohle, G. Brandenburg, E. Caldeweyher
   M. Checinski, S. Dohm, S. Ehlert, S. Ehrlich, I. Gerasimov, C. Hölzer
   A. Katbashev, J. Koopman, C. Lavigne, S. Lehtola, F. März, M. Müller,
   F. Musil, H. Neugebauer, J. Pisarek, C. Plett, P. Pracht, F. Pultar,
   J. Seibert, P. Shushkov, S. Spicher, M. Stahn, M. Steiner, T. Strunk,
   J. Stückrath, T. Rose, and J. Unsleber
   
 * started run on 2022/11/24 at 09:28:10.076     

           -------------------------------------------------
          |                Calculation Setup                |
           -------------------------------------------------

          program call               : xtb solvent_cluster.coord --gfn2 --sp --lmo --chrg 0
          hostname                   : cn0341
          coordinate file            : solvent_cluster.coord
          omp threads                :                     2

   ID    Z sym.   atoms
    1    8 o      1, 4, 7, 10, 13, 16, 19, 22, 25, 28, 31, 34, 37, 40, 43,
                  46, 49, 52, 55, 58, 61, 64, 67, 70, 73, 76, 79, 82, 85, 88,
                  91, 94, 97, 100, 103, 106, 109, 112, 115, 118, 121, 124,
                  127, 130, 133, 136, 139, 142, 145, 148, 151, 154, 157, 160,
                  163, 166, 169, 172, 175, 178, 181, 184, 187, 190, 193, 196,
                  199, 202, 205, 208, 211, 214, 217, 220, 223, 226, 229, 232,
                  235, 238, 241, 244, 247, 250, 253, 256, 259, 262, 265, 268,
                  271, 274, 277, 280, 283, 286, 289, 292, 295, 298, 301, 304,
                  307, 310, 313, 316, 319, 322, 325, 328, 331, 334, 337, 340,
                  343, 346, 349, 352, 355, 358, 361, 364, 367, 370, 373, 376,
                  379, 382, 385, 388, 391, 394, 397, 400, 403, 406, 409, 412,
                  415, 418, 421, 424, 427, 430, 433, 436, 439, 442, 445, 448,
                  451, 454, 457, 460, 463, 466, 469, 472, 475, 478, 481, 484,
                  487, 490, 493, 496, 499, 502, 505, 508, 511, 514, 517, 520,
                  523, 526, 529, 532, 535, 538, 541, 544, 547, 550, 553, 556,
                  559, 562, 565, 568, 571, 574, 577, 580, 583, 586, 589, 592,
                  595, 598, 601, 604, 607, 610, 613, 616, 619, 622, 625, 628,
                  631, 634, 637, 640, 643, 646, 649, 652, 655, 658, 661, 664,
                  667, 670, 673, 676, 679, 682, 685, 688, 691, 694, 697, 700,
                  703, 706, 709, 712, 715, 718, 721, 724, 727, 730, 733, 736,
                  739, 742, 745, 748, 751, 754
    2    1 h      2, 3, 5, 6, 8, 9, 11, 12, 14, 15, 17, 18, 20, 21, 23, 24,
                  26, 27, 29, 30, 32, 33, 35, 36, 38, 39, 41, 42, 44, 45, 47,
                  48, 50, 51, 53, 54, 56, 57, 59, 60, 62, 63, 65, 66, 68, 69,
                  71, 72, 74, 75, 77, 78, 80, 81, 83, 84, 86, 87, 89, 90, 92,
                  93, 95, 96, 98, 99, 101, 102, 104, 105, 107, 108, 110, 111,
                  113, 114, 116, 117, 119, 120, 122, 123, 125, 126, 128, 129,
                  131, 132, 134, 135, 137, 138, 140, 141, 143, 144, 146, 147,
                  149, 150, 152, 153, 155, 156, 158, 159, 161, 162, 164, 165,
                  167, 168, 170, 171, 173, 174, 176, 177, 179, 180, 182, 183,
                  185, 186, 188, 189, 191, 192, 194, 195, 197, 198, 200, 201,
                  203, 204, 206, 207, 209, 210, 212, 213, 215, 216, 218, 219,
                  221, 222, 224, 225, 227, 228, 230, 231, 233, 234, 236, 237,
                  239, 240, 242, 243, 245, 246, 248, 249, 251, 252, 254, 255,
                  257, 258, 260, 261, 263, 264, 266, 267, 269, 270, 272, 273,
                  275, 276, 278, 279, 281, 282, 284, 285, 287, 288, 290, 291,
                  293, 294, 296, 297, 299, 300, 302, 303, 305, 306, 308, 309,
                  311, 312, 314, 315, 317, 318, 320, 321, 323, 324, 326, 327,
                  329, 330, 332, 333, 335, 336, 338, 339, 341, 342, 344, 345,
                  347, 348, 350, 351, 353, 354, 356, 357, 359, 360, 362, 363,
                  365, 366, 368, 369, 371, 372, 374, 375, 377, 378, 380, 381,
                  383, 384, 386, 387, 389, 390, 392, 393, 395, 396, 398, 399,
                  401, 402, 404, 405, 407, 408, 410, 411, 413, 414, 416, 417,
                  419, 420, 422, 423, 425, 426, 428, 429, 431, 432, 434, 435,
                  437, 438, 440, 441, 443, 444, 446, 447, 449, 450, 452, 453,
                  455, 456, 458, 459, 461, 462, 464, 465, 467, 468, 470, 471,
                  473, 474, 476, 477, 479, 480, 482, 483, 485, 486, 488, 489,
                  491, 492, 494, 495, 497, 498, 500, 501, 503, 504, 506, 507,
                  509, 510, 512, 513, 515, 516, 518, 519, 521, 522, 524, 525,
                  527, 528, 530, 531, 533, 534, 536, 537, 539, 540, 542, 543,
                  545, 546, 548, 549, 551, 552, 554, 555, 557, 558, 560, 561,
                  563, 564, 566, 567, 569, 570, 572, 573, 575, 576, 578, 579,
                  581, 582, 584, 585, 587, 588, 590, 591, 593, 594, 596, 597,
                  599, 600, 602, 603, 605, 606, 608, 609, 611, 612, 614, 615,
                  617, 618, 620, 621, 623, 624, 626, 627, 629, 630, 632, 633,
                  635, 636, 638, 639, 641, 642, 644, 645, 647, 648, 650, 651,
                  653, 654, 656, 657, 659, 660, 662, 663, 665, 666, 668, 669,
                  671, 672, 674, 675, 677, 678, 680, 681, 683, 684, 686, 687,
                  689, 690, 692, 693, 695, 696, 698, 699, 701, 702, 704, 705,
                  707, 708, 710, 711, 713, 714, 716, 717, 719, 720, 722, 723,
                  725, 726, 728, 729, 731, 732, 734, 735, 737, 738, 740, 741,
                  743, 744, 746, 747, 749, 750, 752, 753, 755, 756

molecular fragmentation (1/2 indicates fragments):
111222222222222222222222222222222222222222222222222222222222222222222222
222222222222222222222222222222222222222222222222222222222222222222222222
222222222222222222222222222222222222222222222222222222222222222222222222
222222222222222222222222222222222222222222222222222222222222222222222222
222222222222222222222222222222222222222222222222222222222222222222222222
222222222222222222222222222222222222222222222222222222222222222222222222
222222222222222222222222222222222222222222222222222222222222222222222222
222222222222222222222222222222222222222222222222222222222222222222222222
222222222222222222222222222222222222222222222222222222222222222222222222
222222222222222222222222222222222222222222222222222222222222222222222222
222222222222222222222222222222222222
# atoms in fragment 1/2:     3   753
 fragment masses (1/2) :       18.02     4521.84
CMA distance (Bohr)    :  17.368
constraining FC (au)   :  0.0500

           -------------------------------------------------
          |                 G F N 2 - x T B                 |
           -------------------------------------------------

        Reference                      10.1021/acs.jctc.8b01176
      * Hamiltonian:
        H0-scaling (s, p, d)           1.850000    2.230000    2.230000
        zeta-weighting                 0.500000
      * Dispersion:
        s8                             2.700000
        a1                             0.520000
        a2                             5.000000
        s9                             5.000000
      * Repulsion:
        kExp                           1.500000    1.000000
        rExp                           1.000000
      * Coulomb:
        alpha                          2.000000
        third order                    shell-resolved
        anisotropic                    true
        a3                             3.000000
        a5                             4.000000
        cn-shift                       1.200000
        cn-exp                         4.000000
        max-rad                        5.000000


          ...................................................
          :                      SETUP                      :
          :.................................................:
          :  # basis functions                1512          :
          :  # atomic orbitals                1512          :
          :  # shells                         1008          :
          :  # electrons                      2016          :
          :  max. iterations                   250          :
          :  Hamiltonian                  GFN2-xTB          :
          :  restarted?                      false          :
          :  GBSA solvation                  false          :
          :  PC potential                    false          :
          :  electronic temp.          300.0000000     K    :
          :  accuracy                    1.0000000          :
          :  -> integral cutoff          0.2500000E+02      :
          :  -> integral neglect         0.1000000E-07      :
          :  -> SCF convergence          0.1000000E-05 Eh   :
          :  -> wf. convergence          0.1000000E-03 e    :
          :  Broyden damping             0.4000000          :
          ...................................................

 iter      E             dE          RMSdq      gap      omega  full diag
   1  -1290.9866890 -0.129099E+04  0.406E+00    8.49       0.0  T
   2  -1291.0581893 -0.715003E-01  0.241E+00    8.46       1.0  T
   3  -1291.0888075 -0.306182E-01  0.208E-01    7.86       1.0  T
   4  -1291.0938591 -0.505157E-02  0.451E-02    8.08       1.0  T
   5  -1291.0939330 -0.739040E-04  0.304E-02    8.04       1.0  T
   6  -1291.0939705 -0.374969E-04  0.425E-03    8.06       1.0  T
   7  -1291.0939728 -0.231713E-05  0.783E-04    8.06       4.6  T
   8  -1291.0939729 -0.355421E-07  0.411E-04    8.06       8.9  T
   9  -1291.0939729 -0.165894E-07  0.636E-05    8.06      57.2  T

   *** convergence criteria satisfied after 9 iterations ***

         #    Occupation            Energy/Eh            Energy/eV
      -------------------------------------------------------------
         1        2.0000           -0.6880760             -18.7235
       ...           ...                  ...                  ...
      1002        2.0000           -0.4118985             -11.2083
      1003        2.0000           -0.4118499             -11.2070
      1004        2.0000           -0.4113312             -11.1929
      1005        2.0000           -0.4099069             -11.1541
      1006        2.0000           -0.4093035             -11.1377
      1007        2.0000           -0.4073962             -11.0858
      1008        2.0000           -0.4053283             -11.0295 (HOMO)
      1009                         -0.1091094              -2.9690 (LUMO)
      1010                         -0.0980207              -2.6673
      1011                         -0.0884909              -2.4080
      1012                         -0.0815955              -2.2203
      1013                         -0.0732075              -1.9921
       ...                                ...                  ...
      1512                          0.4208674              11.4524
      -------------------------------------------------------------
                  HL-Gap            0.2962189 Eh            8.0605 eV
             Fermi-level           -0.2572189 Eh           -6.9993 eV
 
 localization/xTB-IFF output generation
 averaging CT terms over            9  occ. levels
 averaging CT terms over            1  virt. levels
 dipole moment from electron density (au)
     X       Y       Z   
  -3.0988   0.9950   2.8174  total (Debye):   10.942
cpu  time for init local    0.86 s
wall time for init local    0.45 s
 doing rotations ...
 initialization of trafo matrix to unity

 converged in     16 iterations, threshold :   0.99999357D-06
 doing transformations ...
 lmo centers(Z=2) and atoms on file <lmocent.coord>
 LMO Fii/eV  ncent    charge center   contributions...
    1 LP   *******   0.00  -4.94650  -4.90522  10.25300  610O : 32.10   79O : 25.50  343O : 22.41  427O : 21.75  730O : 20.67  148O : 20.43  493O : 19.48  199O : 18.89  517O : 17.88   55O : 16.95  259O : 16.34  604O : 16.04
  706O : 15.56  331O : 15.04  496O : 14.71  586O : 14.38  328O : 14.33  622O : 14.22  325O : 14.10  247O : 13.99  718O : 13.67  571O : 13.57  406O : 13.41  103O : 13.18
  394O : 13.04  133O : 12.90  667O : 12.83  478O : 12.72  208O : 12.56  463O : 12.52  109O : 12.22  295O : 12.04  592O : 11.85  391O : 11.27   37O : 11.17  409O : 11.08
  715O : 10.72   25O : 10.60  445O : 10.37  364O : 10.10  220O : 10.09    4O : 10.02  316O :  9.96  733O :  9.82  469O :  9.82  397O :  9.81    1O :  9.80   52O :  9.69
   10O :  9.67  541O :  9.65  118O :  9.53  613O :  9.40   46O :  9.39  490O :  9.05  292O :  8.98  289O :  8.94  322O :  8.76  352O :  8.74  127O :  8.68  481O :  8.49
  106O :  8.47   40O :  8.47   76O :  8.46  676O :  8.31  535O :  8.24  205O :  8.22  403O :  8.21  457O :  8.04  412O :  7.99  385O :  7.87  688O :  7.74  589O :  7.62
  508O :  7.59  145O :  7.49  238O :  7.42  682O :  7.39  382O :  7.28  538O :  7.20  349O :  7.16  649O :  6.93  121O :  6.89  265O :  6.86  568O :  6.86  253O :  6.73
  172O :  6.66   58O :  6.62  388O :  6.50  214O :  6.35  742O :  6.27  526O :  6.16  193O :  6.15  157O :  6.12  124O :  6.07  547O :  5.98  298O :  5.95   22O :  5.82
  460O :  5.80   64O :  5.79  724O :  5.78  277O :  5.78   16O :  5.74  160O :  5.65  556O :  5.59   28O :  5.35  559O :  5.31  607O :  5.28  637O :  5.23  337O :  5.17
  136O :  5.17  739O :  5.17  319O :  5.01  139O :  4.95  211O :  4.93  736O :  4.86  379O :  4.82  754O :  4.80   34O :  4.77  361O :  4.73  643O :  4.66  580O :  4.66
  448O :  4.65  436O :  4.61    7O :  4.58  451O :  4.53  421O :  4.53  286O :  4.49   85O :  4.47  283O :  4.46  655O :  4.32  304O :  4.31  529O :  4.16  577O :  4.10
  187O :  4.08   67O :  4.04  400O :  3.98  196O :  3.95  439O :  3.95  115O :  3.88  433O :  3.86  712O :  3.84  166O :  3.81   31O :  3.80  268O :  3.76  154O :  3.63
  685O :  3.50  544O :  3.47  142O :  3.46  721O :  3.43  502O :  3.41  703O :  3.39  475O :  3.37  465H :  3.36  523O :  3.31  175O :  3.29  640O :  3.28  691O :  3.27
  694O :  3.24  151O :  3.23   97O :  3.20  646O :  3.19  520O :  3.16  583O :  3.12  601O :  3.10  727O :  3.08  367O :  3.06  574O :  3.02  184O :  2.98  631O :  2.97
  661O :  2.89  370O :  2.82  499O :  2.81  223O :  2.73  217O :  2.72   38H :  2.68  169O :  2.67  256O :  2.65  255H :  2.64  202O :  2.60  235O :  2.59   91O :  2.58
  232O :  2.55  709O :  2.52  616O :  2.40  595O :  2.39  280O :  2.36  751O :  2.35  163O :  2.32  358O :  2.31   70O :  2.30  748O :  2.27   19O :  2.24  679O :  2.24
  293H :  2.24  454O :  2.20  628O :  2.17  697O :  2.16  269H :  2.07   49O :  2.04  625O :  2.03  664O :  2.03  373O :  1.91  274O :  1.90  652O :  1.89  376O :  1.83
  472O :  1.81  307O :  1.81  326H :  1.73  428H :  1.73  429H :  1.73  271O :  1.72  624H :  1.71  310O :  1.68  565O :  1.64  658O :  1.62  634O :  1.61  466O :  1.61
  700O :  1.59   88O :  1.59  415O :  1.59  745O :  1.53  226O :  1.51  190O :  1.50  392H :  1.45  301O :  1.42  484O :  1.40  249H :  1.39  111H :  1.35    2H :  1.32
  543H :  1.32  334O :  1.32  262O :  1.24  677H :  1.24  582H :  1.21  100O :  1.19  619O :  1.19  398H :  1.18  598O :  1.18  505O :  1.15  570H :  1.14  550O :  1.11
  241O :  1.10  673O :  1.08  244O :  1.08  430O :  1.08  384H :  1.06  549H :  1.05  380H :  1.05   41H :  1.04  140H :  1.04  639H :  1.04  297H :  1.03  112O :  1.03
  553O :  1.02   13O :  1.01  285H :  0.99   87H :  0.97  678H :  0.96  708H :  0.95  250O :  0.95  340O :  0.93  404H :  0.91  471H :  0.91  458H :  0.91  229O :  0.90
  442O :  0.90   12H :  0.89  117H :  0.89    8H :  0.89  651H :  0.89  366H :  0.88  539H :  0.88  528H :  0.86  418O :  0.86  130O :  0.85   72H :  0.85  318H :  0.84
  207H :  0.83  606H :  0.83  511O :  0.83   56H :  0.80  608H :  0.80  355O :  0.80  152H :  0.80  593H :  0.79  396H :  0.79  605H :  0.78  725H :  0.78   98H :  0.77
  296H :  0.76  333H :  0.75  102H :  0.75  381H :  0.74  609H :  0.74  138H :  0.71   48H :  0.71  642H :  0.71  308H :  0.71  393H :  0.70   29H :  0.68  437H :  0.68
  178O :  0.67  540H :  0.66  506H :  0.66  665H :  0.66   43O :  0.65  663H :  0.64   23H :  0.62  507H :  0.62  228H :  0.61  749H :  0.60   82O :  0.59  162H :  0.58
   18H :  0.57  479H :  0.57  302H :  0.55  714H :  0.55  536H :  0.54  514O :  0.53    9H :  0.52  487O :  0.52   11H :  0.52  125H :  0.51  363H :  0.51   92H :  0.51
   73O :  0.50  149H :  0.50  201H :  0.49  647H :  0.49  562O :  0.49  222H :  0.48  122H :  0.47  180H :  0.47  362H :  0.47   61O :  0.46  557H :  0.46  711H :  0.46
   69H :  0.45   77H :  0.45  755H :  0.45  144H :  0.44  279H :  0.44  320H :  0.44  573H :  0.43  191H :  0.43   96H :  0.43  219H :  0.42  365H :  0.42  155H :  0.41
  470H :  0.40  670O :  0.40  611H :  0.40  278H :  0.40  483H :  0.39  492H :  0.39  612H :  0.39  369H :  0.39  482H :  0.38  173H :  0.38  689H :  0.37  260H :  0.37
   59H :  0.37  346O :  0.37  288H :  0.36  204H :  0.36  532O :  0.36  696H :  0.36  339H :  0.35  591H :  0.35  617H :  0.35  287H :  0.34  603H :  0.34  473H :  0.34
  354H :  0.34  188H :  0.34  459H :  0.34  203H :  0.33  248H :  0.33  174H :  0.33  614H :  0.33  282H :  0.33  726H :  0.33  129H :  0.32  401H :  0.31   42H :  0.30
  509H :  0.29  108H :  0.29  306H :  0.28  657H :  0.28  200H :  0.28  489H :  0.28  575H :  0.28   86H :  0.28  648H :  0.28  419H :  0.27  424O :  0.27   27H :  0.27
  185H :  0.27  750H :  0.26  587H :  0.26   89H :  0.26  738H :  0.26  669H :  0.26  563H :  0.26  377H :  0.26  267H :  0.25  527H :  0.25  632H :  0.25  501H :  0.25
  159H :  0.25   93H :  0.25  578H :  0.24  636H :  0.24  621H :  0.24  225H :  0.24  720H :  0.23  731H :  0.23   51H :  0.23  602H :  0.22  213H :  0.22  261H :  0.22
  723H :  0.22  486H :  0.22  687H :  0.21  440H :  0.21  383H :  0.21   99H :  0.21  345H :  0.21  137H :  0.20  560H :  0.20  176H :  0.20  597H :  0.20  674H :  0.20
  128H :  0.20   45H :  0.19  530H :  0.19  455H :  0.19  645H :  0.19  450H :  0.19  315H :  0.19  350H :  0.19  158H :  0.19  119H :  0.18  503H :  0.18  558H :  0.18
  552H :  0.18  239H :  0.17  555H :  0.17  336H :  0.17  732H :  0.17  747H :  0.16  181O :  0.16  480H :  0.16  498H :  0.16  311H :  0.16  114H :  0.16  569H :  0.16
  441H :  0.16  590H :  0.16   66H :  0.16  153H :  0.16  243H :  0.15   44H :  0.15  462H :  0.15  743H :  0.15  416H :  0.15  728H :  0.15   71H :  0.15  672H :  0.15
  500H :  0.15  581H :  0.14  719H :  0.14  693H :  0.14  170H :  0.14  135H :  0.14  210H :  0.14  734H :  0.14  231H :  0.14  134H :  0.14  348H :  0.14  356H :  0.14
  630H :  0.14  650H :  0.13  150H :  0.13  305H :  0.13  618H :  0.13  186H :  0.13  257H :  0.13  446H :  0.13  741H :  0.13  423H :  0.13   63H :  0.12  531H :  0.12
  387H :  0.12  246H :  0.12  434H :  0.12  300H :  0.12  615H :  0.12  524H :  0.12    3H :  0.12  705H :  0.12  272H :  0.12   57H :  0.12  435H :  0.12  251H :  0.12
  588H :  0.12  371H :  0.12  447H :  0.12  444H :  0.11  290H :  0.11  566H :  0.11  512H :  0.11   36H :  0.11  522H :  0.11  525H :  0.11  313O :  0.10  546H :  0.10
  161H :  0.10  594H :  0.10  192H :  0.10  395H :  0.10  324H :  0.10  194H :  0.10  284H :  0.10   24H :  0.10  168H :  0.10  584H :  0.10  746H :  0.09  303H :  0.09
  410H :  0.09  237H :  0.09  407H :  0.09   68H :  0.09  338H :  0.09  126H :  0.09  209H :  0.09  675H :  0.09  534H :  0.09  620H :  0.09  461H :  0.09  215H :  0.09
   35H :  0.09  537H :  0.08  698H :  0.08  156H :  0.08  309H :  0.08    6H :  0.08  660H :  0.08  147H :  0.08  662H :  0.08  735H :  0.08  107H :  0.08  120H :  0.08
  477H :  0.08  596H :  0.08  753H :  0.08  533H :  0.08  467H :  0.07  704H :  0.07  579H :  0.07  167H :  0.07  164H :  0.07  216H :  0.07  389H :  0.07  551H :  0.07
  623H :  0.07
    2 LP   *******   0.00  77.05546  -2.81184 -44.60698  610O : 21.44   79O : 20.33  730O : 19.47  343O : 17.87  427O : 17.34  148O : 16.29  493O : 15.54  199O : 15.06  517O : 14.26   55O : 13.52  259O : 13.03  604O : 12.79
  706O : 12.41  331O : 11.99  496O : 11.73  586O : 11.47  328O : 11.43  622O : 11.33  325O : 11.24  247O : 11.14  718O : 10.90  571O : 10.82  406O : 10.69  103O : 10.51
  394O : 10.40  667O : 10.23  478O : 10.15  133O : 10.04  208O : 10.02  463O :  9.98  109O :  9.74  295O :  9.60  592O :  9.45  391O :  8.95   37O :  8.91  409O :  8.83
  715O :  8.55   25O :  8.45  445O :  8.27  220O :  8.05  364O :  8.05    4O :  7.99  316O :  7.94  733O :  7.83  469O :  7.83  397O :  7.82    1O :  7.81   52O :  7.73
   10O :  7.71  541O :  7.69  118O :  7.60  613O :  7.49   46O :  7.49  490O :  7.22  292O :  7.17  289O :  7.13  322O :  6.99  352O :  6.97  127O :  6.92  481O :  6.77
   40O :  6.75   76O :  6.75  106O :  6.75  676O :  6.62  535O :  6.57  205O :  6.56  403O :  6.55  457O :  6.41  412O :  6.37  385O :  6.27  688O :  6.17  589O :  6.08
  508O :  6.05  145O :  5.97  238O :  5.91  682O :  5.89  382O :  5.80  538O :  5.74  349O :  5.71  649O :  5.52  121O :  5.50  568O :  5.47  265O :  5.40  253O :  5.37
  172O :  5.30   58O :  5.28  388O :  5.19  214O :  5.07  742O :  5.00  526O :  4.91  193O :  4.90  157O :  4.88  124O :  4.84  547O :  4.77  298O :  4.75   22O :  4.64
   64O :  4.63  460O :  4.63  724O :  4.62  277O :  4.61   16O :  4.58  160O :  4.51  556O :  4.46   28O :  4.26  559O :  4.24  607O :  4.21  637O :  4.17  337O :  4.12
  136O :  4.12  739O :  4.11  319O :  4.00  139O :  3.95  211O :  3.93  736O :  3.88   34O :  3.87  379O :  3.84  754O :  3.83  361O :  3.77  643O :  3.72  580O :  3.71
  448O :  3.71  436O :  3.67    7O :  3.65  451O :  3.62  421O :  3.61  286O :  3.58   85O :  3.57  283O :  3.56  655O :  3.48  304O :  3.44  529O :  3.32  577O :  3.27
  187O :  3.25   67O :  3.22  400O :  3.17  196O :  3.15  439O :  3.15  115O :  3.09  433O :  3.08  712O :  3.06  166O :  3.03   31O :  3.03  268O :  3.00  685O :  2.90
  154O :  2.89  544O :  2.77  142O :  2.76  721O :  2.73  502O :  2.72  703O :  2.70  475O :  2.69  465H :  2.68  523O :  2.64  175O :  2.62  640O :  2.61  691O :  2.61
  694O :  2.58  151O :  2.57   97O :  2.55  646O :  2.54  520O :  2.52  583O :  2.49  601O :  2.47  727O :  2.46  367O :  2.44  574O :  2.41  184O :  2.38  631O :  2.36
  370O :  2.33  661O :  2.31  499O :  2.24  223O :  2.18  217O :  2.17   38H :  2.13  169O :  2.13  256O :  2.12  255H :  2.10  202O :  2.08  235O :  2.07   91O :  2.06
  232O :  2.03  709O :  2.01  616O :  1.92  595O :  1.91  280O :  1.88  751O :  1.88  163O :  1.85  358O :  1.84   70O :  1.84  748O :  1.81   19O :  1.79  679O :  1.79
  293H :  1.78  454O :  1.76  628O :  1.73  697O :  1.72  269H :  1.65   49O :  1.63  625O :  1.62  664O :  1.62  373O :  1.53  274O :  1.51  652O :  1.51  376O :  1.46
  472O :  1.45  307O :  1.44  326H :  1.38  428H :  1.38  271O :  1.38  429H :  1.38  624H :  1.36  310O :  1.34  565O :  1.31  658O :  1.29  466O :  1.28  634O :  1.28
   88O :  1.26  415O :  1.26  700O :  1.26  745O :  1.22  226O :  1.21  301O :  1.20  392H :  1.16  190O :  1.16  484O :  1.12  249H :  1.11  111H :  1.07    2H :  1.05
  543H :  1.05  334O :  1.05  677H :  0.99  262O :  0.97  582H :  0.96  100O :  0.95  619O :  0.95  398H :  0.94  598O :  0.94  505O :  0.91  570H :  0.91  550O :  0.89
  241O :  0.88  673O :  0.86  244O :  0.86  430O :  0.86  384H :  0.84  549H :  0.84  380H :  0.83   41H :  0.83  140H :  0.83  639H :  0.83  297H :  0.82  112O :  0.82
  553O :  0.81   13O :  0.81  285H :  0.79   87H :  0.78  678H :  0.77  708H :  0.76  250O :  0.76  340O :  0.74  404H :  0.73  471H :  0.72  458H :  0.72  229O :  0.72
  442O :  0.72   12H :  0.71  651H :  0.71    8H :  0.71  117H :  0.71  366H :  0.70  539H :  0.70  528H :  0.69  418O :  0.69  130O :  0.68   72H :  0.68  318H :  0.67
  207H :  0.67  606H :  0.66  511O :  0.66   56H :  0.64  608H :  0.64  355O :  0.64  152H :  0.64  593H :  0.63  396H :  0.63  605H :  0.62  725H :  0.62   98H :  0.61
  296H :  0.61  333H :  0.60  102H :  0.60  381H :  0.59  609H :  0.59  138H :  0.57   48H :  0.57  642H :  0.57  308H :  0.56  393H :  0.55   29H :  0.54  437H :  0.54
  178O :  0.53  540H :  0.53  506H :  0.53  665H :  0.52   43O :  0.52  663H :  0.51   23H :  0.50  507H :  0.49  228H :  0.49  749H :  0.48  302H :  0.47   82O :  0.47
  162H :  0.46   18H :  0.45  479H :  0.45  714H :  0.44  536H :  0.43  514O :  0.42  487O :  0.42    9H :  0.42   11H :  0.41  125H :  0.41  363H :  0.41   92H :  0.40
   73O :  0.40  149H :  0.40  201H :  0.39  647H :  0.39  562O :  0.39  222H :  0.38  122H :  0.38  180H :  0.38  362H :  0.38   61O :  0.37  557H :  0.37  611H :  0.37
  612H :  0.36  711H :  0.36   69H :  0.36   77H :  0.36  755H :  0.36  144H :  0.35  279H :  0.35  320H :  0.35  573H :  0.34  219H :  0.34  365H :  0.33  155H :  0.33
  470H :  0.32  670O :  0.32  278H :  0.32  483H :  0.31  492H :  0.31  369H :  0.31  191H :  0.31  482H :  0.30  689H :  0.30  260H :  0.30   59H :  0.30  346O :  0.30
  173H :  0.30  288H :  0.29  204H :  0.29  532O :  0.29  696H :  0.29  339H :  0.28  591H :  0.28  617H :  0.28  603H :  0.27  287H :  0.27  473H :  0.27  354H :  0.27
  188H :  0.27  459H :  0.27  203H :  0.27  174H :  0.27  248H :  0.26  614H :  0.26  282H :  0.26  726H :  0.26  129H :  0.25  401H :  0.25   96H :  0.24   42H :  0.24
  509H :  0.23  108H :  0.23  657H :  0.23  306H :  0.22  200H :  0.22  489H :  0.22  575H :  0.22   86H :  0.22  648H :  0.22  419H :  0.22  424O :  0.22   27H :  0.22
  185H :  0.21  750H :  0.21   89H :  0.21  587H :  0.21  738H :  0.21  669H :  0.21  563H :  0.21  377H :  0.21  527H :  0.20  632H :  0.20  501H :  0.20  159H :  0.20
   93H :  0.20  267H :  0.20  578H :  0.19  621H :  0.19  636H :  0.19  225H :  0.19  720H :  0.18   51H :  0.18  602H :  0.18  213H :  0.18  261H :  0.17  723H :  0.17
  687H :  0.17  486H :  0.17  383H :  0.17  440H :  0.17   99H :  0.16  345H :  0.16  137H :  0.16  560H :  0.16  176H :  0.16  597H :  0.16  674H :  0.16  128H :  0.16
   45H :  0.15  530H :  0.15  645H :  0.15  455H :  0.15  450H :  0.15  315H :  0.15  350H :  0.15  158H :  0.15  119H :  0.15  503H :  0.15  558H :  0.14  552H :  0.14
  239H :  0.14  555H :  0.14  731H :  0.14  336H :  0.13  747H :  0.13  181O :  0.13  480H :  0.13  498H :  0.13  311H :  0.13  114H :  0.13  569H :  0.13  441H :  0.13
  590H :  0.13   66H :  0.12  153H :  0.12  243H :  0.12   44H :  0.12  462H :  0.12  743H :  0.12  416H :  0.12  728H :  0.12  500H :  0.12   71H :  0.12  672H :  0.12
  581H :  0.12  719H :  0.11  134H :  0.11  693H :  0.11  170H :  0.11  210H :  0.11  734H :  0.11  231H :  0.11  348H :  0.11  356H :  0.11  630H :  0.11  650H :  0.11
  150H :  0.11  305H :  0.11  618H :  0.10  186H :  0.10  257H :  0.10  446H :  0.10  741H :  0.10  423H :  0.10   63H :  0.10  531H :  0.10  387H :  0.10  246H :  0.10
  434H :  0.10  300H :  0.10  615H :  0.10  524H :  0.10    3H :  0.10  705H :  0.10  272H :  0.09  371H :  0.09   57H :  0.09  251H :  0.09  435H :  0.09  588H :  0.09
  447H :  0.09  135H :  0.09  444H :  0.09  290H :  0.09  566H :  0.09  512H :  0.09   36H :  0.09  732H :  0.09  522H :  0.08  525H :  0.08  313O :  0.08  546H :  0.08
  161H :  0.08  594H :  0.08  324H :  0.08  395H :  0.08  194H :  0.08  284H :  0.08  192H :  0.08  303H :  0.08   24H :  0.08  584H :  0.08  168H :  0.08  746H :  0.08
  410H :  0.07  237H :  0.07  620H :  0.07  407H :  0.07   68H :  0.07  338H :  0.07  126H :  0.07  209H :  0.07  534H :  0.07  675H :  0.07  461H :  0.07
    3 LP   *******   0.00  39.05607  34.46337 -46.87450  610O : 21.17   79O : 20.01  199O : 17.94  343O : 17.65  427O : 17.13  730O : 16.27  148O : 16.09  493O : 15.34  517O : 14.08   55O : 13.35  259O : 12.87  604O : 12.63
  706O : 12.25  331O : 11.84  496O : 11.58  586O : 11.32  328O : 11.28  622O : 11.19  325O : 11.10  247O : 11.00  718O : 10.76  571O : 10.68  406O : 10.56  103O : 10.38
  394O : 10.27  133O : 10.15  667O : 10.10  478O : 10.02  208O :  9.89  463O :  9.86  109O :  9.62  295O :  9.48  592O :  9.33  391O :  8.87   37O :  8.79  409O :  8.72
  715O :  8.45   25O :  8.34  445O :  8.17  220O :  7.95  364O :  7.95    4O :  7.89  316O :  7.84  733O :  7.73  469O :  7.73  397O :  7.72    1O :  7.71   52O :  7.63
   10O :  7.61  541O :  7.60  118O :  7.51  613O :  7.40   46O :  7.39  490O :  7.13  292O :  7.08  289O :  7.03  322O :  6.90  352O :  6.88  127O :  6.84  481O :  6.69
   40O :  6.67   76O :  6.67  106O :  6.66  676O :  6.54  535O :  6.49  205O :  6.48  403O :  6.46  457O :  6.33  412O :  6.29  385O :  6.20  688O :  6.10  589O :  6.00
  508O :  5.97  145O :  5.90  238O :  5.84  682O :  5.82  382O :  5.73  538O :  5.67  349O :  5.64  649O :  5.45  121O :  5.43  265O :  5.41  568O :  5.40  253O :  5.30
  172O :  5.23   58O :  5.22  388O :  5.12  214O :  5.00  742O :  4.94  526O :  4.85  193O :  4.84  157O :  4.82  124O :  4.79  547O :  4.71  298O :  4.69   22O :  4.58
  460O :  4.57  277O :  4.55  724O :  4.55   16O :  4.52  160O :  4.45  556O :  4.40   64O :  4.32   28O :  4.21  559O :  4.18  607O :  4.16  637O :  4.12  136O :  4.07
  337O :  4.07  739O :  4.06  319O :  3.95  139O :  3.90  211O :  3.88  736O :  3.83   34O :  3.82  379O :  3.79  754O :  3.78  361O :  3.72  643O :  3.67  580O :  3.67
  448O :  3.67  436O :  3.63    7O :  3.61  451O :  3.57  421O :  3.57  286O :  3.53   85O :  3.52  283O :  3.51  655O :  3.40  304O :  3.39  529O :  3.28  577O :  3.23
  187O :  3.21   67O :  3.18  400O :  3.13  196O :  3.11  439O :  3.11  115O :  3.06  433O :  3.04  712O :  3.02  166O :  3.00   31O :  2.99  268O :  2.96  685O :  2.87
  154O :  2.85  544O :  2.73  142O :  2.72  721O :  2.70  502O :  2.69  703O :  2.67  475O :  2.66  465H :  2.64  523O :  2.61  175O :  2.59  640O :  2.58  691O :  2.58
  694O :  2.55  151O :  2.54   97O :  2.52  646O :  2.51  520O :  2.49  583O :  2.46  601O :  2.44  727O :  2.43  367O :  2.41  574O :  2.38  184O :  2.35  631O :  2.34
  370O :  2.30  661O :  2.28  499O :  2.21  223O :  2.15  217O :  2.14   38H :  2.11  169O :  2.10  256O :  2.09  255H :  2.08  202O :  2.05  235O :  2.04   91O :  2.03
  232O :  2.01  709O :  1.98  616O :  1.89  595O :  1.88  280O :  1.86  751O :  1.85  163O :  1.83   70O :  1.81  358O :  1.77   19O :  1.77  679O :  1.77  293H :  1.76
  748O :  1.75  454O :  1.73  628O :  1.71  697O :  1.70  269H :  1.63   49O :  1.61  625O :  1.60  664O :  1.60  373O :  1.51  274O :  1.50  652O :  1.49  376O :  1.44
  472O :  1.43  307O :  1.42  326H :  1.36  428H :  1.36  429H :  1.36  271O :  1.36  624H :  1.34  310O :  1.32  658O :  1.32  565O :  1.29  634O :  1.27  466O :  1.27
  700O :  1.25   88O :  1.25  415O :  1.25  745O :  1.21  226O :  1.19  392H :  1.14  190O :  1.14  301O :  1.12  484O :  1.11  249H :  1.10  111H :  1.06    2H :  1.04
  543H :  1.04  334O :  1.04  262O :  0.98  677H :  0.98  582H :  0.95  100O :  0.94  619O :  0.94  398H :  0.93  598O :  0.93  505O :  0.90  570H :  0.90  550O :  0.88
  241O :  0.87  673O :  0.85  244O :  0.85  430O :  0.85  384H :  0.83  549H :  0.83  380H :  0.82   41H :  0.82  140H :  0.82  639H :  0.82  297H :  0.81  112O :  0.81
   13O :  0.80  553O :  0.80  250O :  0.79  285H :  0.78   87H :  0.77  678H :  0.76  708H :  0.75  340O :  0.73  404H :  0.72  471H :  0.71  458H :  0.71  229O :  0.71
  442O :  0.71   12H :  0.70  651H :  0.70  117H :  0.70    8H :  0.70  366H :  0.69  539H :  0.69  528H :  0.68  418O :  0.68  130O :  0.67   72H :  0.67  318H :  0.66
  207H :  0.66  606H :  0.65  511O :  0.65   56H :  0.63  608H :  0.63  355O :  0.63  152H :  0.63  593H :  0.62  396H :  0.62  605H :  0.61  725H :  0.61   98H :  0.60
  296H :  0.60  333H :  0.59  102H :  0.59  381H :  0.58  609H :  0.58  138H :  0.56   48H :  0.56  642H :  0.56  308H :  0.55  393H :  0.55   29H :  0.54  437H :  0.53
  178O :  0.53  540H :  0.52  506H :  0.52  665H :  0.52   43O :  0.51  663H :  0.50   23H :  0.49  507H :  0.49  228H :  0.48  749H :  0.48   82O :  0.46  162H :  0.45
   18H :  0.45  479H :  0.45  302H :  0.44  714H :  0.43  536H :  0.43  514O :  0.42  487O :  0.41    9H :  0.41   11H :  0.41  363H :  0.40  125H :  0.40   92H :  0.40
   73O :  0.40  149H :  0.39  647H :  0.38  562O :  0.38  222H :  0.38  122H :  0.37  180H :  0.37  362H :  0.37   61O :  0.37  557H :  0.37  611H :  0.36  612H :  0.36
  711H :  0.36   69H :  0.36   77H :  0.36  755H :  0.35  144H :  0.35  279H :  0.35  320H :  0.34  573H :  0.34  219H :  0.33  365H :  0.33  155H :  0.32  470H :  0.32
  670O :  0.32  278H :  0.31  483H :  0.31  492H :  0.31  369H :  0.30  191H :  0.30  201H :  0.30  482H :  0.30  689H :  0.29  260H :  0.29   59H :  0.29  346O :  0.29
  173H :  0.29  288H :  0.29  204H :  0.29  532O :  0.29  696H :  0.28  339H :  0.28  591H :  0.28  617H :  0.28  603H :  0.27  287H :  0.27  473H :  0.27  354H :  0.27
  188H :  0.27  459H :  0.26  203H :  0.26  174H :  0.26  248H :  0.26  614H :  0.26  282H :  0.26  726H :  0.26  129H :  0.25  401H :  0.25   96H :  0.24   42H :  0.23
  509H :  0.23  108H :  0.23  306H :  0.22  657H :  0.22  489H :  0.22  575H :  0.22  648H :  0.22   86H :  0.22  419H :  0.22   27H :  0.21  185H :  0.21   89H :  0.21
  587H :  0.21  738H :  0.20  669H :  0.20  563H :  0.20  377H :  0.20  750H :  0.20  267H :  0.20  527H :  0.20  632H :  0.20  501H :  0.20  159H :  0.20   93H :  0.19
  578H :  0.19  621H :  0.19  636H :  0.19  225H :  0.19  424O :  0.18  731H :  0.18  720H :  0.18   51H :  0.18  602H :  0.18  213H :  0.18  261H :  0.17  687H :  0.17
  486H :  0.17  723H :  0.17  200H :  0.17  383H :  0.16  440H :  0.16   99H :  0.16  345H :  0.16  137H :  0.16  560H :  0.16  176H :  0.16  597H :  0.16  128H :  0.15
   45H :  0.15  674H :  0.15  530H :  0.15  645H :  0.15  455H :  0.15  450H :  0.15  315H :  0.15  350H :  0.15  158H :  0.15  119H :  0.14  503H :  0.14  558H :  0.14
  552H :  0.14  239H :  0.14  555H :  0.14  336H :  0.13  732H :  0.13   66H :  0.13  747H :  0.13  181O :  0.13  480H :  0.13  498H :  0.13  311H :  0.13  114H :  0.13
  569H :  0.12  441H :  0.12  590H :  0.12  153H :  0.12  243H :  0.12   44H :  0.12  462H :  0.12  743H :  0.12  416H :  0.12  728H :  0.12  500H :  0.12   71H :  0.12
  672H :  0.11  581H :  0.11  719H :  0.11  693H :  0.11  170H :  0.11  210H :  0.11  135H :  0.11  734H :  0.11  231H :  0.11  348H :  0.11  134H :  0.11  356H :  0.11
  630H :  0.11  650H :  0.11  305H :  0.10  150H :  0.10  618H :  0.10  186H :  0.10  257H :  0.10  446H :  0.10  741H :  0.10  251H :  0.10  423H :  0.10   63H :  0.10
  531H :  0.10  387H :  0.10  246H :  0.10  434H :  0.10  300H :  0.10  615H :  0.09  524H :  0.09    3H :  0.09  705H :  0.09  272H :  0.09  371H :  0.09   57H :  0.09
  435H :  0.09  588H :  0.09  447H :  0.09  444H :  0.09  290H :  0.09  566H :  0.09  512H :  0.09   36H :  0.09  522H :  0.08  525H :  0.08  313O :  0.08  546H :  0.08
  161H :  0.08  594H :  0.08  395H :  0.08  324H :  0.08  194H :  0.08  284H :  0.08  192H :  0.08  168H :  0.08   24H :  0.08  584H :  0.08  746H :  0.07  303H :  0.07
  410H :  0.07  237H :  0.07  675H :  0.07  620H :  0.07  407H :  0.07   68H :  0.07  338H :  0.07  209H :  0.07  534H :  0.07
    4 LP   *******   0.00  -7.78395 -28.26278 -30.48858  610O : 20.18   79O : 19.14  343O : 18.81  427O : 16.33  730O : 15.51  148O : 15.34  493O : 14.62  199O : 14.18  517O : 13.43   55O : 12.74  259O : 12.27  604O : 12.04
  706O : 11.68  331O : 11.29  496O : 11.05  586O : 10.80  328O : 10.76  622O : 10.67  325O : 10.58  247O : 10.49  718O : 10.26  571O : 10.18  406O : 10.07  103O :  9.89
  394O :  9.79  133O :  9.68  667O :  9.63  478O :  9.56  208O :  9.43  463O :  9.40  109O :  9.17  295O :  9.04  592O :  8.90  391O :  8.46   37O :  8.39  409O :  8.32
  715O :  8.05   25O :  7.95  445O :  7.79  220O :  7.58  364O :  7.58    4O :  7.52  316O :  7.48  733O :  7.37  469O :  7.37    1O :  7.37  397O :  7.36   52O :  7.28
   10O :  7.26  541O :  7.24  118O :  7.15  613O :  7.05   46O :  7.05  490O :  6.80  292O :  6.75  289O :  6.71  322O :  6.58  352O :  6.56  127O :  6.52  481O :  6.37
   76O :  6.36   40O :  6.36  106O :  6.35  676O :  6.24  535O :  6.19  205O :  6.17  403O :  6.16  457O :  6.03  412O :  6.00  385O :  5.91  688O :  5.81  589O :  5.72
  508O :  5.70  145O :  5.62  238O :  5.57  682O :  5.55  382O :  5.46  538O :  5.41  349O :  5.40  649O :  5.20  121O :  5.17  265O :  5.15  568O :  5.15  253O :  5.06
  172O :  4.99   58O :  4.97  388O :  4.88  214O :  4.77  742O :  4.70  526O :  4.63  193O :  4.62  157O :  4.59  124O :  4.56  547O :  4.49  298O :  4.47   22O :  4.36
  460O :  4.36   64O :  4.35  724O :  4.34  277O :  4.34   16O :  4.28  160O :  4.24  556O :  4.20   28O :  4.01  559O :  3.99  607O :  3.96  637O :  3.93  337O :  3.88
  136O :  3.88  739O :  3.88  319O :  3.76  139O :  3.71  211O :  3.69   34O :  3.64  736O :  3.64  379O :  3.62  754O :  3.60  361O :  3.55  643O :  3.50  580O :  3.50
  448O :  3.49  436O :  3.46    7O :  3.44  451O :  3.40  421O :  3.40   85O :  3.36  286O :  3.36  283O :  3.35  655O :  3.24  304O :  3.24  529O :  3.12  577O :  3.08
  187O :  3.06   67O :  3.05  196O :  2.97  439O :  2.97  400O :  2.96  115O :  2.91  433O :  2.90  712O :  2.88  166O :  2.86   31O :  2.85  268O :  2.82  685O :  2.73
  154O :  2.72  544O :  2.61  142O :  2.60  721O :  2.57  502O :  2.56  703O :  2.55  475O :  2.53  640O :  2.53  465H :  2.52  523O :  2.49  175O :  2.47  691O :  2.46
  694O :  2.43  151O :  2.43   97O :  2.40  646O :  2.39  520O :  2.37  583O :  2.34  601O :  2.33  727O :  2.32  367O :  2.30  574O :  2.27  184O :  2.24  631O :  2.23
  370O :  2.19  661O :  2.17  499O :  2.11  223O :  2.05  217O :  2.05   38H :  2.01  169O :  2.01  256O :  1.99  255H :  1.98  202O :  1.97   91O :  1.94  232O :  1.91
  709O :  1.89  235O :  1.89  616O :  1.80  595O :  1.79  280O :  1.77  751O :  1.77  163O :  1.74  358O :  1.74   70O :  1.73  748O :  1.71   19O :  1.68  679O :  1.68
  293H :  1.68  454O :  1.65  628O :  1.63  697O :  1.62  269H :  1.56   49O :  1.53  625O :  1.52  664O :  1.52  373O :  1.44  274O :  1.42  652O :  1.42  376O :  1.37
  472O :  1.36  307O :  1.36  326H :  1.30  428H :  1.30  271O :  1.30  429H :  1.30  624H :  1.28  310O :  1.26  565O :  1.23  658O :  1.21  466O :  1.21  634O :  1.21
  700O :  1.19   88O :  1.19  415O :  1.19  745O :  1.15  226O :  1.11  392H :  1.09  190O :  1.09  301O :  1.07  484O :  1.06  249H :  1.05  111H :  1.01    2H :  0.99
  543H :  0.99  334O :  0.99  262O :  0.93  677H :  0.93  582H :  0.91  619O :  0.90  100O :  0.90  398H :  0.89  598O :  0.88  505O :  0.86  570H :  0.86  550O :  0.83
  241O :  0.83  673O :  0.81  244O :  0.81  430O :  0.81  549H :  0.79  384H :  0.79  380H :  0.79   41H :  0.78  140H :  0.78  639H :  0.78  297H :  0.78  112O :  0.77
  553O :  0.76   13O :  0.76  285H :  0.74   87H :  0.73  678H :  0.72  708H :  0.71  250O :  0.71  340O :  0.70  404H :  0.68  471H :  0.68  458H :  0.68  229O :  0.68
  442O :  0.68   12H :  0.67  117H :  0.67  651H :  0.67    8H :  0.67  366H :  0.66  539H :  0.66  528H :  0.65  418O :  0.65   72H :  0.64  130O :  0.64  318H :  0.63
  207H :  0.63  606H :  0.62  511O :  0.62   56H :  0.60  608H :  0.60  355O :  0.60  152H :  0.60  593H :  0.59  396H :  0.59  605H :  0.59  725H :  0.58   98H :  0.58
  296H :  0.57  333H :  0.57  102H :  0.56  381H :  0.56  609H :  0.55  642H :  0.55  138H :  0.54   48H :  0.54  308H :  0.53  393H :  0.52   29H :  0.51  437H :  0.51
  178O :  0.50  540H :  0.50  506H :  0.50  665H :  0.49   43O :  0.49  663H :  0.48   23H :  0.47  507H :  0.46  228H :  0.45  749H :  0.45   82O :  0.44  162H :  0.43
  479H :  0.42   18H :  0.42  302H :  0.42  714H :  0.41  536H :  0.41  514O :  0.40  487O :  0.39    9H :  0.39   11H :  0.39  125H :  0.38  363H :  0.38   92H :  0.38
   73O :  0.38  149H :  0.37  201H :  0.37  647H :  0.37  562O :  0.36  222H :  0.36  122H :  0.36  180H :  0.35  362H :  0.35   61O :  0.35  557H :  0.35  611H :  0.34
   69H :  0.34  612H :  0.34  711H :  0.34   77H :  0.34  755H :  0.34  144H :  0.33  279H :  0.33  320H :  0.33  573H :  0.32  219H :  0.32  365H :  0.31  155H :  0.31
  470H :  0.30  670O :  0.30  278H :  0.30  483H :  0.30  492H :  0.30  369H :  0.29  191H :  0.29  482H :  0.28  689H :  0.28  260H :  0.28   59H :  0.28  346O :  0.28
  173H :  0.28  288H :  0.27  532O :  0.27  696H :  0.27  339H :  0.26  591H :  0.26  204H :  0.26  617H :  0.26  459H :  0.26  603H :  0.26  287H :  0.26  473H :  0.26
  354H :  0.25  188H :  0.25  174H :  0.25  248H :  0.25  614H :  0.25  282H :  0.25  726H :  0.24  203H :  0.24  129H :  0.24   96H :  0.23  401H :  0.23   42H :  0.22
  509H :  0.22  108H :  0.22  306H :  0.21  657H :  0.21  200H :  0.21  489H :  0.21  575H :  0.21   86H :  0.21  648H :  0.21  419H :  0.21  424O :  0.20   27H :  0.20
  185H :  0.20  750H :  0.20   89H :  0.20  587H :  0.20  738H :  0.19  669H :  0.19  563H :  0.19  377H :  0.19  267H :  0.19  527H :  0.19  632H :  0.19  501H :  0.19
  159H :  0.19   93H :  0.19  578H :  0.18  621H :  0.18  636H :  0.18  225H :  0.18  720H :  0.17  731H :  0.17   51H :  0.17  602H :  0.17  213H :  0.17  261H :  0.16
  687H :  0.16  486H :  0.16  723H :  0.16  383H :  0.16  440H :  0.16   99H :  0.16  137H :  0.15  560H :  0.15  176H :  0.15  597H :  0.15  674H :  0.15  128H :  0.15
   45H :  0.15  530H :  0.14  645H :  0.14  455H :  0.14  450H :  0.14  315H :  0.14  158H :  0.14  350H :  0.14  119H :  0.14  503H :  0.14  558H :  0.14  552H :  0.14
  239H :  0.13  555H :  0.13  336H :  0.13  732H :  0.12  747H :  0.12  181O :  0.12  480H :  0.12  498H :  0.12  311H :  0.12  114H :  0.12  569H :  0.12  441H :  0.12
  590H :  0.12   66H :  0.12  743H :  0.12  153H :  0.12  243H :  0.12   44H :  0.12  462H :  0.12  728H :  0.11  416H :  0.11  500H :  0.11   71H :  0.11  672H :  0.11
  581H :  0.11  719H :  0.11  345H :  0.11  693H :  0.11  135H :  0.10  170H :  0.10  210H :  0.10  734H :  0.10  231H :  0.10  134H :  0.10  348H :  0.10  356H :  0.10
  650H :  0.10  630H :  0.10  150H :  0.10  305H :  0.10  618H :  0.10  186H :  0.10  257H :  0.10  446H :  0.10  741H :  0.09  423H :  0.09   63H :  0.09  531H :  0.09
  387H :  0.09  246H :  0.09  434H :  0.09  300H :  0.09  615H :  0.09  524H :  0.09  705H :  0.09  272H :  0.09  371H :  0.09  251H :  0.09   57H :  0.09  435H :  0.09
  588H :  0.09  447H :  0.09    3H :  0.09  444H :  0.08  290H :  0.08  566H :  0.08  512H :  0.08   36H :  0.08  522H :  0.08  525H :  0.08  237H :  0.08  313O :  0.08
  546H :  0.08  161H :  0.08  594H :  0.08  395H :  0.08  324H :  0.08  194H :  0.07  284H :  0.07  192H :  0.07   24H :  0.07  168H :  0.07  584H :  0.07  746H :  0.07
   68H :  0.07  303H :  0.07
    5 LP   *******   0.00  45.74387 -20.19946 -39.15946  610O : 19.61   79O : 18.63  493O : 16.47  343O : 16.35  427O : 15.63  730O : 15.08  148O : 14.91  199O : 13.78  517O : 13.05   55O : 12.37  259O : 11.92  604O : 11.70
  706O : 11.36  331O : 10.97  496O : 10.74  586O : 10.49  328O : 10.46  622O : 10.37  325O : 10.29  247O : 10.20  718O :  9.98  571O :  9.89  406O :  9.78  103O :  9.61
  394O :  9.51  133O :  9.41  667O :  9.36  478O :  9.27  208O :  9.17  463O :  9.11  109O :  8.91  295O :  8.78  592O :  8.65  391O :  8.22   37O :  8.15  409O :  8.08
  715O :  7.82   25O :  7.73  445O :  7.57  220O :  7.37  364O :  7.37    4O :  7.31  316O :  7.27  733O :  7.17  469O :  7.17  397O :  7.15    1O :  7.15   52O :  7.07
  541O :  7.04   10O :  7.00  613O :  6.86   46O :  6.84  490O :  6.61  118O :  6.56  292O :  6.56  289O :  6.53  322O :  6.40  352O :  6.37  127O :  6.33  481O :  6.20
   40O :  6.18   76O :  6.18  106O :  6.17  676O :  6.06  535O :  6.01  205O :  6.00  403O :  5.99  457O :  5.87  412O :  5.83  385O :  5.74  688O :  5.65  589O :  5.56
  508O :  5.54  145O :  5.46  238O :  5.41  682O :  5.39  382O :  5.31  538O :  5.25  349O :  5.22  649O :  5.05  121O :  5.03  265O :  5.01  568O :  5.00  253O :  4.91
  172O :  4.85   58O :  4.83  388O :  4.74  214O :  4.64  742O :  4.58  526O :  4.50  193O :  4.49  157O :  4.46  124O :  4.43  547O :  4.37  298O :  4.34   22O :  4.25
  460O :  4.23   64O :  4.23  724O :  4.22  277O :  4.22   16O :  4.19  160O :  4.12  556O :  4.08   28O :  3.90  559O :  3.88  607O :  3.85  637O :  3.82  337O :  3.77
  739O :  3.77  136O :  3.77  319O :  3.66  139O :  3.62  211O :  3.59  736O :  3.55   34O :  3.54  379O :  3.52  754O :  3.50  361O :  3.45  643O :  3.40  580O :  3.40
  448O :  3.40  436O :  3.36    7O :  3.34  451O :  3.31  421O :  3.31  286O :  3.27   85O :  3.26  283O :  3.25  655O :  3.16  304O :  3.14  529O :  3.04  577O :  2.99
  187O :  2.98   67O :  2.94  400O :  2.90  196O :  2.88  439O :  2.88  115O :  2.83  433O :  2.81  712O :  2.80  166O :  2.79   31O :  2.77  268O :  2.74  685O :  2.66
  154O :  2.65  544O :  2.53  142O :  2.52  721O :  2.50  502O :  2.49  703O :  2.47  475O :  2.46  465H :  2.45  523O :  2.42  175O :  2.40  640O :  2.39  691O :  2.39
  151O :  2.37  694O :  2.36   97O :  2.33  646O :  2.32  520O :  2.31  583O :  2.28  601O :  2.26  367O :  2.23  727O :  2.21  574O :  2.20  184O :  2.18  631O :  2.16
  370O :  2.13  661O :  2.11  499O :  2.05  223O :  1.99  217O :  1.99   38H :  1.96  169O :  1.95  256O :  1.93  255H :  1.92  202O :  1.90  235O :  1.89   91O :  1.89
  232O :  1.86  709O :  1.84  616O :  1.75  595O :  1.74  280O :  1.72  751O :  1.72  163O :  1.69  358O :  1.69   70O :  1.68  748O :  1.66   19O :  1.64  679O :  1.64
  293H :  1.63  454O :  1.61  628O :  1.58  697O :  1.58  269H :  1.51   49O :  1.49  625O :  1.48  664O :  1.48  373O :  1.40  274O :  1.38  652O :  1.38  376O :  1.33
  472O :  1.32  307O :  1.32  326H :  1.26  271O :  1.26  428H :  1.25  624H :  1.24  429H :  1.24  310O :  1.23  565O :  1.20  658O :  1.18  466O :  1.17  634O :  1.17
   88O :  1.16  415O :  1.16  700O :  1.15  745O :  1.12  226O :  1.10  392H :  1.06  190O :  1.06  301O :  1.04  484O :  1.03  249H :  1.02  111H :  0.98    2H :  0.96
  543H :  0.96  334O :  0.96  677H :  0.91  262O :  0.91  582H :  0.88  619O :  0.87  100O :  0.87  398H :  0.86  598O :  0.86  505O :  0.84  570H :  0.83  550O :  0.81
  241O :  0.81  673O :  0.79  244O :  0.79  430O :  0.79  384H :  0.77  549H :  0.77  380H :  0.76   41H :  0.76  140H :  0.76  639H :  0.76  297H :  0.75  112O :  0.75
  553O :  0.74  285H :  0.72   13O :  0.72   87H :  0.71  678H :  0.70  708H :  0.69  250O :  0.69  340O :  0.68  404H :  0.67  471H :  0.66  458H :  0.66  229O :  0.66
  442O :  0.66   12H :  0.65  651H :  0.65  117H :  0.65    8H :  0.65  366H :  0.64  539H :  0.64  528H :  0.63  418O :  0.63  130O :  0.62   72H :  0.62  318H :  0.61
  207H :  0.61  606H :  0.60  511O :  0.60   56H :  0.59  608H :  0.59  355O :  0.58  593H :  0.58  396H :  0.57  605H :  0.57  725H :  0.57   98H :  0.56  296H :  0.56
  333H :  0.55  102H :  0.55  381H :  0.54  609H :  0.54  152H :  0.52  138H :  0.52   48H :  0.52  642H :  0.52  308H :  0.52  393H :  0.51   29H :  0.50  437H :  0.49
  178O :  0.49  540H :  0.48  665H :  0.48  506H :  0.48   43O :  0.48  663H :  0.46  507H :  0.46   23H :  0.46  228H :  0.44  749H :  0.44   82O :  0.43  162H :  0.42
   18H :  0.41  479H :  0.41  302H :  0.40  714H :  0.40  536H :  0.40  514O :  0.39  487O :  0.38    9H :  0.38   11H :  0.38  125H :  0.37  363H :  0.37   92H :  0.37
   73O :  0.37  149H :  0.36  201H :  0.36  647H :  0.36  562O :  0.35  222H :  0.35  122H :  0.35  180H :  0.34  362H :  0.34   61O :  0.34  557H :  0.34  611H :  0.33
  612H :  0.33  711H :  0.33   69H :  0.33   77H :  0.33  755H :  0.33  144H :  0.32  279H :  0.32  320H :  0.32  573H :  0.31  219H :  0.31  365H :  0.30  155H :  0.30
  470H :  0.30  670O :  0.29  278H :  0.29  483H :  0.29  492H :  0.29  369H :  0.28  191H :  0.28  482H :  0.28  689H :  0.27  260H :  0.27   59H :  0.27  346O :  0.27
  173H :  0.27  288H :  0.27  204H :  0.27  532O :  0.26  696H :  0.26  339H :  0.26  591H :  0.26  617H :  0.26  603H :  0.25  287H :  0.25  473H :  0.25  354H :  0.25
  188H :  0.25  459H :  0.24  203H :  0.24  174H :  0.24  248H :  0.24  614H :  0.24  282H :  0.24  726H :  0.24  129H :  0.23  401H :  0.23   96H :  0.22   42H :  0.22
  509H :  0.21  108H :  0.21  306H :  0.21  657H :  0.21  200H :  0.20  489H :  0.20  575H :  0.20   86H :  0.20  648H :  0.20  419H :  0.20  424O :  0.20   27H :  0.20
  185H :  0.20  750H :  0.19   89H :  0.19  587H :  0.19  738H :  0.19  669H :  0.19  563H :  0.19  377H :  0.19  267H :  0.18  527H :  0.18  501H :  0.18  159H :  0.18
   93H :  0.18  632H :  0.18  578H :  0.18  621H :  0.18  636H :  0.17  225H :  0.17  720H :  0.17  731H :  0.17   51H :  0.17  602H :  0.16  213H :  0.16  261H :  0.16
  687H :  0.16  486H :  0.16  723H :  0.16  383H :  0.15   99H :  0.15  345H :  0.15  440H :  0.15  137H :  0.15  560H :  0.15  176H :  0.15  597H :  0.15  674H :  0.14
  128H :  0.14   45H :  0.14  530H :  0.14  645H :  0.14  455H :  0.14  450H :  0.14  315H :  0.14  158H :  0.14  350H :  0.14  503H :  0.13  119H :  0.13  558H :  0.13
  552H :  0.13  239H :  0.13  555H :  0.13  336H :  0.12  732H :  0.12  747H :  0.12  181O :  0.12  480H :  0.12  498H :  0.12  311H :  0.12  114H :  0.12  569H :  0.12
  441H :  0.12  590H :  0.11   66H :  0.11  153H :  0.11  243H :  0.11   44H :  0.11  462H :  0.11  743H :  0.11  416H :  0.11  500H :  0.11   71H :  0.11  672H :  0.11
  581H :  0.11  719H :  0.10  693H :  0.10  728H :  0.10  135H :  0.10  170H :  0.10  210H :  0.10  734H :  0.10  231H :  0.10  134H :  0.10  348H :  0.10  356H :  0.10
  630H :  0.10  650H :  0.10  150H :  0.10  305H :  0.10  618H :  0.10  186H :  0.09  257H :  0.09  446H :  0.09  741H :  0.09  423H :  0.09   63H :  0.09  531H :  0.09
  387H :  0.09  246H :  0.09  434H :  0.09  300H :  0.09  615H :  0.09  524H :  0.09    3H :  0.09  705H :  0.09  272H :  0.09  371H :  0.09   57H :  0.09  435H :  0.09
  251H :  0.09  588H :  0.09  447H :  0.08  444H :  0.08  290H :  0.08  566H :  0.08  512H :  0.08   36H :  0.08  522H :  0.08  525H :  0.08  313O :  0.08  546H :  0.07
  161H :  0.07  594H :  0.07  395H :  0.07  324H :  0.07  194H :  0.07  284H :  0.07  192H :  0.07   24H :  0.07  168H :  0.07  584H :  0.07
    6 LP   *******   0.00 -22.91935   0.77790 -27.87428  610O : 17.80   79O : 16.89  343O : 14.86  427O : 14.41   55O : 13.77  730O : 13.69  148O : 13.54  493O : 12.90  199O : 12.52  517O : 11.84  259O : 10.82  604O : 10.63
  706O : 10.31  331O :  9.96  496O :  9.75  586O :  9.53  328O :  9.49  622O :  9.42  325O :  9.34  247O :  9.28  718O :  9.06  571O :  8.99  406O :  8.88  103O :  8.73
  394O :  8.64  133O :  8.54  667O :  8.51  478O :  8.43  208O :  8.32  463O :  8.29  109O :  8.09  295O :  7.97  592O :  7.85  391O :  7.46   37O :  7.40  409O :  7.34
  715O :  7.10   25O :  7.02  445O :  6.87  220O :  6.69  364O :  6.69    4O :  6.64  316O :  6.60  733O :  6.51  469O :  6.51  397O :  6.50    1O :  6.49   10O :  6.40
  541O :  6.39   52O :  6.35  118O :  6.31  613O :  6.22   46O :  6.22  490O :  6.00  292O :  5.95  289O :  5.93  322O :  5.81  352O :  5.79  127O :  5.77  481O :  5.63
   40O :  5.61  106O :  5.61  676O :  5.50  535O :  5.46  205O :  5.44  403O :  5.44  457O :  5.33  412O :  5.29  385O :  5.21   76O :  5.18  688O :  5.13  589O :  5.05
  508O :  5.03  145O :  4.96  238O :  4.92  682O :  4.90  382O :  4.82  538O :  4.77  349O :  4.74  649O :  4.59  121O :  4.57  265O :  4.55  568O :  4.54  253O :  4.46
  172O :  4.40   58O :  4.37  388O :  4.31  214O :  4.21  742O :  4.15  526O :  4.08  193O :  4.07  157O :  4.05  124O :  4.02  547O :  3.96  298O :  3.94   22O :  3.85
  460O :  3.85   64O :  3.84  724O :  3.83  277O :  3.83   16O :  3.80  160O :  3.74  556O :  3.71   28O :  3.54  559O :  3.52  607O :  3.50  637O :  3.47  337O :  3.42
  136O :  3.42  739O :  3.42  319O :  3.32  139O :  3.28  211O :  3.26  736O :  3.22   34O :  3.21  379O :  3.19  754O :  3.18  361O :  3.13  643O :  3.09  580O :  3.08
  448O :  3.08  436O :  3.06    7O :  3.03  286O :  3.02  451O :  3.00  421O :  3.00  283O :  2.95   85O :  2.91  655O :  2.86  304O :  2.85  529O :  2.76  577O :  2.72
  187O :  2.70   67O :  2.68  400O :  2.64  115O :  2.63  439O :  2.62  196O :  2.61  433O :  2.55  712O :  2.54  166O :  2.52   31O :  2.51  268O :  2.49  685O :  2.41
  154O :  2.40  544O :  2.30  142O :  2.29  721O :  2.27  502O :  2.26  703O :  2.25  475O :  2.23  465H :  2.22  523O :  2.20  175O :  2.18  640O :  2.17  691O :  2.17
  694O :  2.14  151O :  2.14   97O :  2.12  646O :  2.11  520O :  2.10  583O :  2.07  601O :  2.05  727O :  2.04  367O :  2.03  574O :  2.00  184O :  1.97  631O :  1.96
  370O :  1.94  661O :  1.92  223O :  1.87  499O :  1.86  217O :  1.81   38H :  1.77  169O :  1.77  256O :  1.76  255H :  1.75  202O :  1.73  235O :  1.72   91O :  1.71
  232O :  1.69  709O :  1.67  616O :  1.59  595O :  1.58  280O :  1.56  751O :  1.56   70O :  1.55  163O :  1.54  358O :  1.53  748O :  1.51  679O :  1.49   19O :  1.49
  293H :  1.48  454O :  1.46  628O :  1.44  697O :  1.43  269H :  1.37   49O :  1.35  625O :  1.35  664O :  1.34  373O :  1.27  652O :  1.26  274O :  1.26  376O :  1.21
  472O :  1.20  307O :  1.20  326H :  1.15  428H :  1.15  429H :  1.14  271O :  1.14  624H :  1.13  310O :  1.12  565O :  1.09  658O :  1.07  466O :  1.07  634O :  1.07
  700O :  1.05   88O :  1.05  415O :  1.05  745O :  1.02  226O :  1.01  392H :  0.96  190O :  0.96  301O :  0.94  484O :  0.93  249H :  0.92  111H :  0.89    2H :  0.88
  543H :  0.87  334O :  0.87  262O :  0.82  677H :  0.82  582H :  0.80  100O :  0.79  619O :  0.79  398H :  0.78  598O :  0.78  505O :  0.76  570H :  0.76  550O :  0.74
  241O :  0.73  673O :  0.72  244O :  0.72  430O :  0.71  384H :  0.70  549H :  0.70  380H :  0.69   41H :  0.69  140H :  0.69  639H :  0.69  297H :  0.68  112O :  0.68
   13O :  0.67  553O :  0.67  285H :  0.66   87H :  0.65  678H :  0.64  708H :  0.63  250O :  0.63  340O :  0.63  404H :  0.60  471H :  0.60  458H :  0.60  229O :  0.60
  442O :  0.60   12H :  0.59  651H :  0.59  117H :  0.59    8H :  0.59  366H :  0.58  539H :  0.58  528H :  0.57  418O :  0.57  130O :  0.56  318H :  0.56   72H :  0.56
  207H :  0.55  511O :  0.55  606H :  0.55  608H :  0.53  355O :  0.53  152H :  0.53  593H :  0.52  396H :  0.52  605H :  0.52  725H :  0.51   98H :  0.51  296H :  0.51
  333H :  0.50  102H :  0.50  381H :  0.49  609H :  0.49   48H :  0.47  138H :  0.47  642H :  0.47  308H :  0.47  393H :  0.46   29H :  0.45  437H :  0.45  178O :  0.44
  540H :  0.44  506H :  0.44  665H :  0.44   56H :  0.43   43O :  0.43  228H :  0.43  663H :  0.42   23H :  0.41  507H :  0.41  749H :  0.40   82O :  0.39  162H :  0.38
   18H :  0.37  479H :  0.37  302H :  0.37  714H :  0.36  536H :  0.36  514O :  0.35  487O :  0.35    9H :  0.35   11H :  0.34  125H :  0.34  363H :  0.34   92H :  0.34
   73O :  0.33  149H :  0.33  201H :  0.32  647H :  0.32  562O :  0.32  222H :  0.32  122H :  0.31  362H :  0.31  180H :  0.31   61O :  0.31  557H :  0.31  611H :  0.30
   69H :  0.30  612H :  0.30  711H :  0.30  755H :  0.30  279H :  0.29  144H :  0.29  320H :  0.29  573H :  0.29  219H :  0.28  365H :  0.28  155H :  0.27  470H :  0.27
  670O :  0.27  278H :  0.26  483H :  0.26  492H :  0.26  369H :  0.26  191H :  0.25  482H :  0.25  689H :  0.25   59H :  0.25  260H :  0.25  173H :  0.25  346O :  0.25
  204H :  0.24  532O :  0.24  288H :  0.24  696H :  0.24  339H :  0.23  591H :  0.23  617H :  0.23  603H :  0.23  473H :  0.23  287H :  0.22  354H :  0.22  188H :  0.22
  459H :  0.22  203H :  0.22  174H :  0.22  248H :  0.22  614H :  0.22  282H :  0.22  726H :  0.22  129H :  0.21  401H :  0.21   96H :  0.20   42H :  0.20  509H :  0.19
  108H :  0.19  306H :  0.19  657H :  0.19  200H :  0.19   86H :  0.18  489H :  0.18  575H :  0.18  648H :  0.18  419H :  0.18  424O :  0.18   27H :  0.18  185H :  0.18
  750H :  0.17   77H :  0.17   89H :  0.17  587H :  0.17  738H :  0.17  669H :  0.17  563H :  0.17  377H :  0.17  267H :  0.17  527H :  0.17  632H :  0.17  501H :  0.17
  159H :  0.16   93H :  0.16  578H :  0.16  225H :  0.16  621H :  0.16  636H :  0.16  720H :  0.15  731H :  0.15   51H :  0.15  602H :  0.15  213H :  0.15  261H :  0.14
  687H :  0.14  486H :  0.14  723H :  0.14  383H :  0.14  440H :  0.14   99H :  0.14  345H :  0.14  137H :  0.13  560H :  0.13  176H :  0.13  597H :  0.13  674H :  0.13
  128H :  0.13   45H :  0.13  530H :  0.13  645H :  0.13  455H :  0.13  450H :  0.12  315H :  0.12  158H :  0.12  350H :  0.12  119H :  0.12  503H :  0.12  558H :  0.12
  552H :  0.12  239H :  0.12  555H :  0.12  336H :  0.11  732H :  0.11  747H :  0.11  181O :  0.11  480H :  0.11  498H :  0.11  311H :  0.11  114H :  0.11  569H :  0.11
  441H :  0.10  590H :  0.10   66H :  0.10  153H :  0.10  243H :  0.10   44H :  0.10  462H :  0.10  743H :  0.10  416H :  0.10  728H :  0.10  500H :  0.10   71H :  0.10
  672H :  0.10  581H :  0.10  719H :  0.09  693H :  0.09  135H :  0.09  170H :  0.09  210H :  0.09  734H :  0.09  231H :  0.09  134H :  0.09  348H :  0.09  356H :  0.09
  630H :  0.09  650H :  0.09  150H :  0.09  305H :  0.09  618H :  0.09  186H :  0.09  257H :  0.09  446H :  0.08  741H :  0.08  423H :  0.08   63H :  0.08  531H :  0.08
  387H :  0.08  246H :  0.08  434H :  0.08  300H :  0.08  615H :  0.08  524H :  0.08    3H :  0.08  705H :  0.08  272H :  0.08  371H :  0.08  435H :  0.08  251H :  0.08
  588H :  0.08  447H :  0.08  444H :  0.07  290H :  0.07  566H :  0.07  512H :  0.07   36H :  0.07  522H :  0.07  525H :  0.07
    7 LP   *******   0.00  55.77566 -28.98808 -32.46444  610O : 16.14  427O : 15.59   79O : 15.30  343O : 13.46  730O : 12.41  148O : 12.27  493O : 11.50  199O : 11.34  517O : 10.74   55O : 10.18  259O :  9.81  604O :  9.63
  706O :  9.34  331O :  9.03  496O :  8.83  586O :  8.63  328O :  8.60  622O :  8.48  325O :  8.46  247O :  8.39  718O :  8.21  571O :  8.14  406O :  8.05  103O :  7.91
  394O :  7.83  133O :  7.74  667O :  7.70  478O :  7.64  208O :  7.54  463O :  7.52  109O :  7.33  295O :  7.23  592O :  7.12  391O :  6.77   37O :  6.71  409O :  6.65
  715O :  6.44   25O :  6.36  445O :  6.23  220O :  6.06  364O :  6.06    4O :  6.02  316O :  5.98  733O :  5.90  469O :  5.90  397O :  5.89    1O :  5.88   52O :  5.82
   10O :  5.80  541O :  5.79  118O :  5.68  613O :  5.64   46O :  5.64  490O :  5.44  292O :  5.40  289O :  5.37  322O :  5.26  352O :  5.24  127O :  5.21  481O :  5.10
   40O :  5.08   76O :  5.08  106O :  5.08  676O :  4.99  535O :  4.95  205O :  4.94  403O :  4.93  457O :  4.83  412O :  4.80  385O :  4.72  688O :  4.65  589O :  4.58
  508O :  4.55  145O :  4.50  238O :  4.45  682O :  4.44  382O :  4.37  538O :  4.32  349O :  4.30  649O :  4.16  121O :  4.14  265O :  4.12  568O :  4.12  253O :  4.04
  172O :  3.99   58O :  3.98  388O :  3.90  214O :  3.81  742O :  3.77  526O :  3.70  193O :  3.69  157O :  3.67  124O :  3.65  547O :  3.59  298O :  3.57   22O :  3.49
  460O :  3.48   64O :  3.48  724O :  3.47  277O :  3.47   16O :  3.44  160O :  3.39  556O :  3.36   28O :  3.21  559O :  3.19  607O :  3.17  637O :  3.14  337O :  3.10
  136O :  3.10  739O :  3.10  319O :  3.01  139O :  2.97  211O :  2.96  736O :  2.92   34O :  2.91  379O :  2.89  754O :  2.88  361O :  2.84  643O :  2.80  580O :  2.80
  448O :  2.79  436O :  2.77    7O :  2.75  451O :  2.72  421O :  2.72  286O :  2.69   85O :  2.69  283O :  2.68  655O :  2.60  304O :  2.59  529O :  2.50  577O :  2.46
  187O :  2.45   67O :  2.42  400O :  2.39  439O :  2.37  196O :  2.37  115O :  2.33  433O :  2.32  712O :  2.30  166O :  2.28   31O :  2.28  268O :  2.26  685O :  2.19
  154O :  2.18  544O :  2.08  142O :  2.08  721O :  2.06  502O :  2.05  703O :  2.04  475O :  2.02  465H :  2.02  523O :  1.99  175O :  1.98  640O :  1.97  691O :  1.96
  694O :  1.94   97O :  1.92  646O :  1.91  151O :  1.91  520O :  1.90  583O :  1.87  601O :  1.86  727O :  1.86  367O :  1.84  574O :  1.81  184O :  1.79  631O :  1.78
  370O :  1.76  661O :  1.74  499O :  1.69  223O :  1.64  217O :  1.64   38H :  1.61  169O :  1.60  256O :  1.59  255H :  1.58  202O :  1.56  235O :  1.56   91O :  1.55
  232O :  1.53  709O :  1.47  616O :  1.44  595O :  1.44  280O :  1.42  751O :  1.41  163O :  1.39  358O :  1.39   70O :  1.38  748O :  1.36   19O :  1.35  679O :  1.35
  293H :  1.34  454O :  1.32  628O :  1.30  697O :  1.30  269H :  1.24  625O :  1.23   49O :  1.23  664O :  1.22  373O :  1.15  652O :  1.14  274O :  1.14  376O :  1.10
  472O :  1.09  307O :  1.08  326H :  1.04  271O :  1.04  624H :  1.01  310O :  1.01  565O :  0.99  658O :  0.97  466O :  0.97  634O :  0.97  700O :  0.95   88O :  0.95
  415O :  0.95  745O :  0.92  429H :  0.92  226O :  0.91  428H :  0.90  392H :  0.87  190O :  0.87  301O :  0.85  484O :  0.85  249H :  0.84  111H :  0.81    2H :  0.79
  543H :  0.79  334O :  0.79  262O :  0.75  677H :  0.75  582H :  0.73  100O :  0.72  619O :  0.72  398H :  0.71  598O :  0.71  505O :  0.70  570H :  0.68  550O :  0.67
  241O :  0.66  673O :  0.65  244O :  0.65  430O :  0.65  384H :  0.63  549H :  0.63  380H :  0.63   41H :  0.62  140H :  0.62  639H :  0.62  297H :  0.62  112O :  0.62
  553O :  0.61   13O :  0.61  285H :  0.60   87H :  0.58  678H :  0.58  708H :  0.57  250O :  0.57  340O :  0.56  404H :  0.55  471H :  0.54  458H :  0.54  229O :  0.54
  442O :  0.54   12H :  0.53  651H :  0.53    8H :  0.53  117H :  0.53  366H :  0.53  539H :  0.53  528H :  0.52  418O :  0.52  130O :  0.51   72H :  0.51  318H :  0.51
  207H :  0.50  606H :  0.50  511O :  0.50   56H :  0.48  608H :  0.48  152H :  0.48  355O :  0.48  593H :  0.47  396H :  0.47  605H :  0.47  725H :  0.47   98H :  0.46
  296H :  0.46  333H :  0.45  102H :  0.45  381H :  0.44  609H :  0.44  138H :  0.43   48H :  0.43  642H :  0.43  308H :  0.43  393H :  0.42   29H :  0.41  437H :  0.41
  178O :  0.40  506H :  0.40  540H :  0.40  665H :  0.39   43O :  0.39  663H :  0.38  507H :  0.38   23H :  0.37  228H :  0.37  749H :  0.36   82O :  0.35  162H :  0.35
   18H :  0.34  479H :  0.34  302H :  0.33  714H :  0.33  536H :  0.33  514O :  0.32  487O :  0.32    9H :  0.31   11H :  0.31  125H :  0.31  363H :  0.31   92H :  0.30
   73O :  0.30  149H :  0.30  201H :  0.29  647H :  0.29  562O :  0.29  222H :  0.29  122H :  0.28  180H :  0.28  362H :  0.28   61O :  0.28  557H :  0.28  611H :  0.28
  612H :  0.27   69H :  0.27   77H :  0.27  755H :  0.27  711H :  0.27  144H :  0.27  279H :  0.26  320H :  0.26  573H :  0.26  219H :  0.25  365H :  0.25  155H :  0.25
  470H :  0.24  670O :  0.24  278H :  0.24  483H :  0.24  492H :  0.24  369H :  0.23  191H :  0.23  482H :  0.23  689H :  0.22  260H :  0.22   59H :  0.22  346O :  0.22
  173H :  0.22  288H :  0.22  204H :  0.22  532O :  0.22  696H :  0.21  339H :  0.21  591H :  0.21  617H :  0.21  603H :  0.21  287H :  0.20  473H :  0.20  354H :  0.20
  188H :  0.20  459H :  0.20  203H :  0.20  174H :  0.20  248H :  0.20  614H :  0.20  282H :  0.20  726H :  0.20  129H :  0.19  401H :  0.19   96H :  0.18   42H :  0.18
  509H :  0.18  108H :  0.17  306H :  0.17  657H :  0.17  200H :  0.17  489H :  0.17  575H :  0.17   86H :  0.17  648H :  0.17  419H :  0.16  424O :  0.16   27H :  0.16
  185H :  0.16  750H :  0.16   89H :  0.16  587H :  0.16  738H :  0.16  669H :  0.15  563H :  0.15  377H :  0.15  267H :  0.15  527H :  0.15  501H :  0.15  632H :  0.15
  159H :  0.15   93H :  0.15  578H :  0.15  621H :  0.14  636H :  0.14  225H :  0.14  720H :  0.14  731H :  0.14   51H :  0.14  602H :  0.13  213H :  0.13  261H :  0.13
  687H :  0.13  486H :  0.13  723H :  0.13  383H :  0.12  440H :  0.12   99H :  0.12  345H :  0.12  137H :  0.12  560H :  0.12  176H :  0.12  597H :  0.12  674H :  0.12
  128H :  0.12   45H :  0.12  530H :  0.12  645H :  0.12  455H :  0.11  450H :  0.11  315H :  0.11  350H :  0.11  158H :  0.11  503H :  0.11  119H :  0.11  558H :  0.11
  552H :  0.11  239H :  0.10  555H :  0.10  336H :  0.10  732H :  0.10  747H :  0.10  181O :  0.10  480H :  0.10  498H :  0.10  311H :  0.10  114H :  0.10  441H :  0.10
  569H :  0.10  590H :  0.09   66H :  0.09  153H :  0.09  243H :  0.09   44H :  0.09  462H :  0.09  743H :  0.09  728H :  0.09  416H :  0.09  500H :  0.09   71H :  0.09
  672H :  0.09  581H :  0.09  719H :  0.09  693H :  0.09  170H :  0.08  135H :  0.08  210H :  0.08  734H :  0.08  231H :  0.08  134H :  0.08  348H :  0.08  356H :  0.08
  630H :  0.08  650H :  0.08  150H :  0.08  305H :  0.08  618H :  0.08  186H :  0.08  257H :  0.08  446H :  0.08  741H :  0.08  423H :  0.08   63H :  0.07  531H :  0.07
  387H :  0.07  246H :  0.07  434H :  0.07  300H :  0.07  615H :  0.07  524H :  0.07    3H :  0.07  705H :  0.07  272H :  0.07  371H :  0.07   57H :  0.07  435H :  0.07
  251H :  0.07
    8 LP   *******   0.00   6.73502  -0.68694 -11.69376   79O : 17.24  610O : 15.95  343O : 13.30  427O : 12.90  730O : 12.26  148O : 12.12  493O : 11.58  199O : 11.17  517O : 10.61   55O : 10.06  259O :  9.71  604O :  9.52
  706O :  9.07  331O :  8.84  496O :  8.73  586O :  8.53  328O :  8.50  622O :  8.43  325O :  8.36  247O :  8.29  718O :  8.11  571O :  8.04  406O :  7.95  103O :  7.82
  394O :  7.73  133O :  7.65  667O :  7.61  478O :  7.55  208O :  7.45  463O :  7.41  109O :  7.25  295O :  7.14  592O :  7.03  391O :  6.69   37O :  6.57  409O :  6.57
  715O :  6.36   25O :  6.29  445O :  6.16  220O :  5.99  364O :  5.99    4O :  5.94  316O :  5.91  733O :  5.83  469O :  5.83  397O :  5.82    1O :  5.81   52O :  5.75
   10O :  5.73  541O :  5.72  118O :  5.66   46O :  5.59  613O :  5.57  490O :  5.37  292O :  5.33  289O :  5.31  322O :  5.22  352O :  5.18  127O :  5.15  481O :  5.04
   40O :  5.02   76O :  5.02  106O :  5.02  676O :  4.93  535O :  4.89  205O :  4.88  403O :  4.87  457O :  4.77  412O :  4.74  385O :  4.67  688O :  4.59  589O :  4.52
  508O :  4.50  145O :  4.44  238O :  4.40  682O :  4.38  382O :  4.32  538O :  4.27  349O :  4.25  649O :  4.11  121O :  4.10  265O :  4.07  568O :  4.07  253O :  3.99
  172O :  3.94   58O :  3.93  388O :  3.86  214O :  3.77  742O :  3.72  526O :  3.66  193O :  3.65  157O :  3.63  124O :  3.60  547O :  3.55  298O :  3.53   22O :  3.45
  460O :  3.44  724O :  3.43  277O :  3.43   64O :  3.42   16O :  3.40  160O :  3.35  556O :  3.32   28O :  3.17  559O :  3.15  607O :  3.13  637O :  3.10  337O :  3.07
  136O :  3.06  739O :  3.06  319O :  2.97  139O :  2.94  211O :  2.92  736O :  2.88   34O :  2.88  379O :  2.86  754O :  2.85  361O :  2.81  643O :  2.77  580O :  2.76
  448O :  2.76  436O :  2.73    7O :  2.72  451O :  2.69  421O :  2.69  286O :  2.66   85O :  2.65  283O :  2.65  655O :  2.56  304O :  2.56  529O :  2.47  577O :  2.43
  187O :  2.42   67O :  2.39  400O :  2.36  196O :  2.35  439O :  2.34  115O :  2.30  433O :  2.29  712O :  2.28  166O :  2.26   31O :  2.25  268O :  2.23  685O :  2.16
  154O :  2.15  544O :  2.06  142O :  2.05  721O :  2.03  502O :  2.02  703O :  2.01  475O :  2.00  465H :  1.99  523O :  1.97  175O :  1.95  640O :  1.94  691O :  1.94
  694O :  1.92  151O :  1.92   97O :  1.89  646O :  1.89  520O :  1.88  574O :  1.86  583O :  1.85  601O :  1.84  727O :  1.83  367O :  1.82  184O :  1.77  631O :  1.76
  370O :  1.73  661O :  1.72  499O :  1.67  223O :  1.62  217O :  1.62  169O :  1.58  256O :  1.57  255H :  1.56   38H :  1.56  202O :  1.55  235O :  1.54   91O :  1.53
  232O :  1.51  709O :  1.49  616O :  1.43  595O :  1.42  280O :  1.40  751O :  1.39  163O :  1.38  358O :  1.37   70O :  1.37  748O :  1.35   19O :  1.33  679O :  1.33
  293H :  1.33  454O :  1.31  628O :  1.29  697O :  1.28  269H :  1.23   49O :  1.21  625O :  1.21  664O :  1.20  373O :  1.14  274O :  1.13  652O :  1.12  376O :  1.09
  307O :  1.08  472O :  1.08  326H :  1.03  428H :  1.03  271O :  1.02  429H :  1.02  624H :  1.01  310O :  1.00  565O :  0.97  658O :  0.96  466O :  0.95  634O :  0.95
  700O :  0.94   88O :  0.94  415O :  0.94  226O :  0.90  745O :  0.89  392H :  0.86  190O :  0.86  301O :  0.84  484O :  0.84  249H :  0.83  111H :  0.80    2H :  0.78
  543H :  0.78  334O :  0.78  262O :  0.74  677H :  0.74  582H :  0.72  100O :  0.71  619O :  0.71  398H :  0.70  598O :  0.70  505O :  0.68  570H :  0.68  550O :  0.66
  241O :  0.65  673O :  0.64  244O :  0.64  430O :  0.64  384H :  0.63  549H :  0.62  380H :  0.62   41H :  0.62  140H :  0.61  639H :  0.61  297H :  0.61  112O :  0.61
   13O :  0.60  553O :  0.60  285H :  0.59   87H :  0.58  678H :  0.57  708H :  0.56  250O :  0.56  340O :  0.55  404H :  0.54  471H :  0.54  458H :  0.54  229O :  0.54
  442O :  0.54   12H :  0.53    8H :  0.53  651H :  0.53  117H :  0.53  366H :  0.52  539H :  0.52  528H :  0.51  418O :  0.51   72H :  0.51  130O :  0.50  318H :  0.50
  207H :  0.50  606H :  0.49  511O :  0.49   56H :  0.48  608H :  0.48  355O :  0.47  593H :  0.47  396H :  0.47  152H :  0.47  605H :  0.46  725H :  0.46   98H :  0.45
  296H :  0.45  333H :  0.45  102H :  0.44  381H :  0.44  609H :  0.44   48H :  0.43  138H :  0.42  642H :  0.42  308H :  0.42  393H :  0.41   29H :  0.40  437H :  0.40
  178O :  0.40   43O :  0.39  540H :  0.39  506H :  0.39  665H :  0.39  663H :  0.38   23H :  0.37  507H :  0.37  228H :  0.36  749H :  0.35   82O :  0.35  162H :  0.34
  479H :  0.34   18H :  0.34  302H :  0.33  714H :  0.32  536H :  0.32  514O :  0.31  487O :  0.31    9H :  0.31   11H :  0.31  125H :  0.30  363H :  0.30   92H :  0.30
   73O :  0.30  149H :  0.29  201H :  0.29  647H :  0.29  562O :  0.29  222H :  0.28  122H :  0.28  180H :  0.28  362H :  0.28   61O :  0.28  557H :  0.28  611H :  0.27
  612H :  0.27  711H :  0.27   69H :  0.27   77H :  0.27  755H :  0.27  144H :  0.26  279H :  0.26  320H :  0.26  573H :  0.25  219H :  0.25  365H :  0.25  155H :  0.24
  470H :  0.24  670O :  0.24  278H :  0.24  483H :  0.23  492H :  0.23  369H :  0.23  191H :  0.23  482H :  0.22  689H :  0.22  260H :  0.22   59H :  0.22  346O :  0.22
  173H :  0.22  288H :  0.22  204H :  0.22  532O :  0.22  696H :  0.21  339H :  0.21  591H :  0.21  617H :  0.21  603H :  0.20  287H :  0.20  473H :  0.20  354H :  0.20
  188H :  0.20  459H :  0.20  203H :  0.20  174H :  0.20  248H :  0.20  614H :  0.19  282H :  0.19  726H :  0.19  129H :  0.19  401H :  0.19   96H :  0.18   42H :  0.18
  509H :  0.17  108H :  0.17  575H :  0.17  306H :  0.17  657H :  0.17  200H :  0.17  489H :  0.16   86H :  0.16  648H :  0.16  419H :  0.16  424O :  0.16   27H :  0.16
  185H :  0.16  750H :  0.16   89H :  0.16  587H :  0.16  738H :  0.15  669H :  0.15  563H :  0.15  377H :  0.15  267H :  0.15  527H :  0.15  632H :  0.15  501H :  0.15
  159H :  0.15   93H :  0.15  578H :  0.14  621H :  0.14  636H :  0.14  225H :  0.14  720H :  0.14  731H :  0.14   51H :  0.13  602H :  0.13  213H :  0.13  261H :  0.13
  687H :  0.13  486H :  0.13  723H :  0.13  383H :  0.12  440H :  0.12   99H :  0.12  345H :  0.12  137H :  0.12  560H :  0.12  176H :  0.12  597H :  0.12  674H :  0.12
  128H :  0.12   45H :  0.12  530H :  0.11  645H :  0.11  455H :  0.11  450H :  0.11  315H :  0.11  350H :  0.11  158H :  0.11  119H :  0.11  503H :  0.11  558H :  0.11
  552H :  0.11  239H :  0.10  555H :  0.10  336H :  0.10  732H :  0.10  480H :  0.10  181O :  0.10  498H :  0.10  311H :  0.09  114H :  0.09  569H :  0.09  441H :  0.09
   66H :  0.09  590H :  0.09  243H :  0.09   44H :  0.09  462H :  0.09  743H :  0.09  153H :  0.09  728H :  0.09  416H :  0.09  500H :  0.09   71H :  0.09  672H :  0.09
  581H :  0.09  719H :  0.09  693H :  0.08  135H :  0.08  210H :  0.08  170H :  0.08  747H :  0.08  734H :  0.08  231H :  0.08  134H :  0.08  348H :  0.08  356H :  0.08
  630H :  0.08  650H :  0.08  150H :  0.08  305H :  0.08  618H :  0.08  257H :  0.08  186H :  0.08  446H :  0.08  741H :  0.07  423H :  0.07   63H :  0.07  531H :  0.07
  387H :  0.07  246H :  0.07  434H :  0.07  300H :  0.07  615H :  0.07  524H :  0.07    3H :  0.07  705H :  0.07  272H :  0.07
    9 LP   *******   0.00  23.64140  12.56351 -69.15832  610O : 15.13   79O : 14.13  343O : 12.62  427O : 12.24  730O : 11.63  148O : 11.50  493O : 10.97  706O : 10.86  199O : 10.63  517O : 10.07   55O :  9.54  259O :  9.10
  604O :  9.03  331O :  8.47  496O :  8.28  586O :  8.10  328O :  8.07  622O :  8.00  325O :  7.93  247O :  7.87  718O :  7.70  571O :  7.55  406O :  7.55  103O :  7.42
  394O :  7.34  133O :  7.26  667O :  7.22  478O :  7.16  208O :  7.08  463O :  7.04  109O :  6.88  295O :  6.77  592O :  6.67  391O :  6.34   37O :  6.29  409O :  6.24
  715O :  6.04   25O :  5.96  445O :  5.84  220O :  5.68  364O :  5.68    4O :  5.64  316O :  5.61  733O :  5.53  469O :  5.53  397O :  5.52    1O :  5.51   52O :  5.46
   10O :  5.44  541O :  5.43  118O :  5.36  613O :  5.29   46O :  5.29  490O :  5.10  322O :  5.09  292O :  5.06  289O :  5.03  352O :  4.92  127O :  4.89  481O :  4.78
   40O :  4.77   76O :  4.77  106O :  4.76  676O :  4.68  535O :  4.64  205O :  4.63  403O :  4.62  457O :  4.53  412O :  4.50  385O :  4.43  688O :  4.36  589O :  4.29
  508O :  4.27  145O :  4.22  238O :  4.17  682O :  4.16  382O :  4.10  538O :  4.05  349O :  4.03  649O :  3.90  121O :  3.88  265O :  3.86  568O :  3.86  253O :  3.79
  172O :  3.74   58O :  3.73  388O :  3.66  214O :  3.58  742O :  3.53  526O :  3.47  193O :  3.46  157O :  3.44  124O :  3.42  547O :  3.37  298O :  3.35   22O :  3.27
   64O :  3.27  460O :  3.27  724O :  3.25  277O :  3.25   16O :  3.23  160O :  3.18  556O :  3.15   28O :  3.01  559O :  2.99  607O :  2.97  637O :  2.95  337O :  2.91
  136O :  2.91  739O :  2.91  319O :  2.82  139O :  2.79  211O :  2.77  736O :  2.74   34O :  2.73  379O :  2.71  754O :  2.70  361O :  2.66  643O :  2.62  580O :  2.62
  448O :  2.62  436O :  2.59    7O :  2.58  451O :  2.55  421O :  2.55  286O :  2.52   85O :  2.52  283O :  2.51  655O :  2.43  304O :  2.43  529O :  2.34  577O :  2.31
  187O :  2.30   67O :  2.27  400O :  2.24  196O :  2.23  439O :  2.22  115O :  2.18  433O :  2.17  712O :  2.16  166O :  2.14   31O :  2.14  268O :  2.12  685O :  2.05
  154O :  2.04  544O :  1.95  142O :  1.95  721O :  1.93  502O :  1.92  703O :  1.91  475O :  1.90  465H :  1.89  523O :  1.87  175O :  1.85  640O :  1.84  691O :  1.84
  694O :  1.82  151O :  1.82   97O :  1.80  646O :  1.79  520O :  1.78  583O :  1.76  601O :  1.75  727O :  1.74  367O :  1.72  574O :  1.70  184O :  1.68  631O :  1.67
  370O :  1.65  661O :  1.63  499O :  1.58  223O :  1.54  217O :  1.53   38H :  1.51  169O :  1.50  256O :  1.49  255H :  1.48  202O :  1.47  235O :  1.46   91O :  1.45
  232O :  1.43  709O :  1.42  616O :  1.35  595O :  1.35  280O :  1.33  751O :  1.32  358O :  1.31  163O :  1.31   70O :  1.30  748O :  1.28   19O :  1.26  679O :  1.26
  293H :  1.26  454O :  1.24  628O :  1.22  697O :  1.22  269H :  1.17   49O :  1.15  664O :  1.14  625O :  1.14  373O :  1.08  274O :  1.07  652O :  1.07  376O :  1.03
  472O :  1.02  307O :  1.02  326H :  0.97  428H :  0.97  429H :  0.97  271O :  0.97  624H :  0.96  310O :  0.95  565O :  0.92  658O :  0.91  466O :  0.91  634O :  0.91
  700O :  0.89   88O :  0.89  415O :  0.89  745O :  0.86  226O :  0.85  392H :  0.82  190O :  0.82  301O :  0.80  484O :  0.79  249H :  0.78  111H :  0.76    2H :  0.74
  543H :  0.74  334O :  0.74  262O :  0.70  677H :  0.70  582H :  0.68  100O :  0.67  619O :  0.67  398H :  0.67  598O :  0.66  505O :  0.65  570H :  0.64  550O :  0.63
  241O :  0.62  673O :  0.61  244O :  0.61  430O :  0.61  384H :  0.59  549H :  0.59  380H :  0.59   41H :  0.59  639H :  0.58  140H :  0.58  297H :  0.58  112O :  0.58
  553O :  0.57   13O :  0.57  285H :  0.56   87H :  0.55  678H :  0.54  250O :  0.53  340O :  0.52  404H :  0.51  471H :  0.51  458H :  0.51  229O :  0.51  442O :  0.51
   12H :  0.50  651H :  0.50  117H :  0.50    8H :  0.50  366H :  0.49  539H :  0.49  528H :  0.48  418O :  0.48   72H :  0.48  130O :  0.48  318H :  0.47  207H :  0.47
  606H :  0.46  511O :  0.46  708H :  0.46   56H :  0.45  608H :  0.45  355O :  0.45  152H :  0.45  593H :  0.45  396H :  0.44  605H :  0.44  725H :  0.44   98H :  0.43
  296H :  0.43  333H :  0.42  102H :  0.42  381H :  0.42  609H :  0.41  138H :  0.40   48H :  0.40  642H :  0.40  308H :  0.40  393H :  0.39   29H :  0.38  437H :  0.38
  178O :  0.38  540H :  0.37  506H :  0.37  665H :  0.37   43O :  0.37  663H :  0.36   23H :  0.35  507H :  0.35  228H :  0.34  749H :  0.34   82O :  0.33  162H :  0.32
   18H :  0.32  479H :  0.32  302H :  0.31  714H :  0.31  536H :  0.31  514O :  0.30  487O :  0.30    9H :  0.29   11H :  0.29  125H :  0.29  363H :  0.29   92H :  0.28
   73O :  0.28  149H :  0.28  201H :  0.28  647H :  0.28  562O :  0.27  222H :  0.27  122H :  0.27  180H :  0.27  362H :  0.27   61O :  0.26  557H :  0.26  611H :  0.26
  612H :  0.26  711H :  0.26   69H :  0.26   77H :  0.25  755H :  0.25  144H :  0.25  279H :  0.25  320H :  0.25  219H :  0.24  365H :  0.23  155H :  0.23  470H :  0.23
  670O :  0.23  278H :  0.22  483H :  0.22  492H :  0.22  573H :  0.22  369H :  0.22  191H :  0.22  482H :  0.21  260H :  0.21  689H :  0.21   59H :  0.21  346O :  0.21
[...]
   369   1 h    0.881 --   367 o    0.798
   370   8 o    1.829 --   371 h    0.854   372 h    0.846
   371   1 h    0.894 --   370 o    0.854
   372   1 h    0.886 --   370 o    0.846
   373   8 o    1.836 --   374 h    0.911   375 h    0.811
   374   1 h    0.916 --   373 o    0.911
   375   1 h    0.880 --   373 o    0.811
   376   8 o    1.836 --   377 h    0.843   378 h    0.814
   377   1 h    0.884 --   376 o    0.843
   378   1 h    0.881 --   376 o    0.814
   379   8 o    1.844 --   380 h    0.884   381 h    0.831
   380   1 h    0.903 --   379 o    0.884
   381   1 h    0.886 --   379 o    0.831
   382   8 o    1.815 --   383 h    0.878   384 h    0.825
   383   1 h    0.902 --   382 o    0.878
   384   1 h    0.887 --   382 o    0.825
   385   8 o    1.870 --   386 h    0.826   387 h    0.810
   386   1 h    0.888 --   385 o    0.826
   387   1 h    0.878 --   385 o    0.810
   388   8 o    1.869 --   390 h    0.896   389 h    0.822
   389   1 h    0.883 --   388 o    0.822
   390   1 h    0.904 --   388 o    0.896
   391   8 o    1.873 --   392 h    0.859   393 h    0.856
   392   1 h    0.893 --   391 o    0.859
   393   1 h    0.896 --   391 o    0.856
   394   8 o    1.881 --   396 h    0.800   395 h    0.776
   395   1 h    0.872 --   394 o    0.776
   396   1 h    0.878 --   394 o    0.800
   397   8 o    1.865 --   398 h    0.827   399 h    0.822
   398   1 h    0.891 --   397 o    0.827
   399   1 h    0.883 --   397 o    0.822
   400   8 o    1.859 --   401 h    0.827   402 h    0.811
   401   1 h    0.879 --   400 o    0.827
   402   1 h    0.880 --   400 o    0.811
   403   8 o    1.850 --   405 h    0.820   404 h    0.802
   404   1 h    0.882 --   403 o    0.802
   405   1 h    0.877 --   403 o    0.820
   406   8 o    1.853 --   407 h    0.851   408 h    0.792
   407   1 h    0.887 --   406 o    0.851
   408   1 h    0.878 --   406 o    0.792
   409   8 o    1.829 --   410 h    0.877   411 h    0.811
   410   1 h    0.901 --   409 o    0.877
   411   1 h    0.878 --   409 o    0.811
   412   8 o    1.850 --   413 h    0.843   414 h    0.805
   413   1 h    0.891 --   412 o    0.843
   414   1 h    0.880 --   412 o    0.805
   415   8 o    1.828 --   416 h    0.858   417 h    0.840
   416   1 h    0.897 --   415 o    0.858
   417   1 h    0.891 --   415 o    0.840
   418   8 o    1.840 --   420 h    0.871   419 h    0.836
   419   1 h    0.892 --   418 o    0.836
   420   1 h    0.901 --   418 o    0.871
   421   8 o    1.879 --   422 h    0.872   423 h    0.847
   422   1 h    0.893 --   421 o    0.872
   423   1 h    0.890 --   421 o    0.847
   424   8 o    1.866 --   425 h    0.869   426 h    0.846
   425   1 h    0.891 --   424 o    0.869
   426   1 h    0.879 --   424 o    0.846
   427   8 o    1.851 --   429 h    0.881   428 h    0.851
   428   1 h    0.894 --   427 o    0.851
   429   1 h    0.900 --   427 o    0.881
   430   8 o    1.844 --   432 h    0.881   431 h    0.837
   431   1 h    0.888 --   430 o    0.837
   432   1 h    0.899 --   430 o    0.881
   433   8 o    1.852 --   434 h    0.840   435 h    0.805
   434   1 h    0.878 --   433 o    0.840
   435   1 h    0.878 --   433 o    0.805
   436   8 o    1.856 --   437 h    0.840   438 h    0.836
   437   1 h    0.890 --   436 o    0.840
   438   1 h    0.890 --   436 o    0.836
   439   8 o    1.844 --   440 h    0.828   441 h    0.810
   440   1 h    0.882 --   439 o    0.828
   441   1 h    0.879 --   439 o    0.810
   442   8 o    1.825 --   443 h    0.866   444 h    0.865
   443   1 h    0.894 --   442 o    0.866
   444   1 h    0.896 --   442 o    0.865
   445   8 o    1.855 --   447 h    0.863   446 h    0.824
   446   1 h    0.886 --   445 o    0.824
   447   1 h    0.897 --   445 o    0.863
   448   8 o    1.823 --   449 h    0.905   450 h    0.809
   449   1 h    0.914 --   448 o    0.905
   450   1 h    0.879 --   448 o    0.809
   451   8 o    1.858 --   453 h    0.912   452 h    0.795
   452   1 h    0.874 --   451 o    0.795
   453   1 h    0.916 --   451 o    0.912
   454   8 o    1.823 --   455 h    0.880   456 h    0.861
   455   1 h    0.903 --   454 o    0.880
   456   1 h    0.895 --   454 o    0.861
   457   8 o    1.863 --   458 h    0.878   459 h    0.814
   458   1 h    0.902 --   457 o    0.878
   459   1 h    0.885 --   457 o    0.814
   460   8 o    1.868 --   462 h    0.902   461 h    0.771
   461   1 h    0.872 --   460 o    0.771
   462   1 h    0.911 --   460 o    0.902
   463   8 o    1.840 --   464 h    0.869   465 h    0.836
   464   1 h    0.901 --   463 o    0.869
   465   1 h    0.895 --   463 o    0.836
   466   8 o    1.882 --   467 h    0.825   468 h    0.822
   467   1 h    0.887 --   466 o    0.825
   468   1 h    0.886 --   466 o    0.822
   469   8 o    1.859 --   471 h    0.895   470 h    0.790
   470   1 h    0.880 --   469 o    0.790
   471   1 h    0.907 --   469 o    0.895
   472   8 o    1.845 --   474 h    0.869   473 h    0.857
   473   1 h    0.890 --   472 o    0.857
   474   1 h    0.897 --   472 o    0.869
   475   8 o    1.844 --   477 h    0.857   476 h    0.823
   476   1 h    0.889 --   475 o    0.823
   477   1 h    0.887 --   475 o    0.857
   478   8 o    1.829 --   480 h    0.863   479 h    0.849
   479   1 h    0.898 --   478 o    0.849
   480   1 h    0.899 --   478 o    0.863
   481   8 o    1.889 --   483 h    0.825   482 h    0.795
   482   1 h    0.878 --   481 o    0.795
   483   1 h    0.879 --   481 o    0.825
   484   8 o    1.839 --   486 h    0.844   485 h    0.832
   485   1 h    0.882 --   484 o    0.832
   486   1 h    0.890 --   484 o    0.844
   487   8 o    1.869 --   488 h    0.847   489 h    0.812
   488   1 h    0.891 --   487 o    0.847
   489   1 h    0.877 --   487 o    0.812
   490   8 o    1.833 --   491 h    0.877   492 h    0.821
   491   1 h    0.897 --   490 o    0.877
   492   1 h    0.887 --   490 o    0.821
   493   8 o    1.861 --   495 h    0.852   494 h    0.812
   494   1 h    0.883 --   493 o    0.812
   495   1 h    0.889 --   493 o    0.852
   496   8 o    1.891 --   498 h    0.795   497 h    0.788
   497   1 h    0.877 --   496 o    0.788
   498   1 h    0.875 --   496 o    0.795
   499   8 o    1.860 --   500 h    0.841   501 h    0.819
   500   1 h    0.894 --   499 o    0.841
   501   1 h    0.880 --   499 o    0.819
   502   8 o    1.830 --   503 h    0.845   504 h    0.832
   503   1 h    0.892 --   502 o    0.845
   504   1 h    0.888 --   502 o    0.832
   505   8 o    1.874 --   507 h    0.825   506 h    0.806
   506   1 h    0.877 --   505 o    0.806
   507   1 h    0.883 --   505 o    0.825
   508   8 o    1.860 --   509 h    0.859   510 h    0.843
   509   1 h    0.898 --   508 o    0.859
   510   1 h    0.887 --   508 o    0.843
   511   8 o    1.815 --   512 h    0.822   513 h    0.813
   512   1 h    0.889 --   511 o    0.822
   513   1 h    0.875 --   511 o    0.813
   514   8 o    1.865 --   515 h    0.866   516 h    0.803
   515   1 h    0.896 --   514 o    0.866
   516   1 h    0.879 --   514 o    0.803
   517   8 o    1.851 --   518 h    0.817   519 h    0.817
   518   1 h    0.880 --   517 o    0.817
   519   1 h    0.891 --   517 o    0.817
   520   8 o    1.824 --   521 h    0.823   522 h    0.823
   521   1 h    0.889 --   520 o    0.823
   522   1 h    0.885 --   520 o    0.823
   523   8 o    1.807 --   524 h    0.849   525 h    0.842
   524   1 h    0.893 --   523 o    0.849
   525   1 h    0.896 --   523 o    0.842
   526   8 o    1.843 --   528 h    0.861   527 h    0.843
   527   1 h    0.885 --   526 o    0.843
   528   1 h    0.894 --   526 o    0.861
   529   8 o    1.860 --   530 h    0.863   531 h    0.851
   530   1 h    0.901 --   529 o    0.863
   531   1 h    0.896 --   529 o    0.851
   532   8 o    1.835 --   534 h    0.905   533 h    0.791
   533   1 h    0.873 --   532 o    0.791
   534   1 h    0.915 --   532 o    0.905
   535   8 o    1.864 --   537 h    0.850   536 h    0.830
   536   1 h    0.882 --   535 o    0.830
   537   1 h    0.892 --   535 o    0.850
   538   8 o    1.810 --   539 h    0.860   540 h    0.859
   539   1 h    0.900 --   538 o    0.860
   540   1 h    0.900 --   538 o    0.859
   541   8 o    1.852 --   542 h    0.864   543 h    0.792
   542   1 h    0.898 --   541 o    0.864
   543   1 h    0.884 --   541 o    0.792
   544   8 o    1.847 --   545 h    0.879   546 h    0.875
   545   1 h    0.896 --   544 o    0.879
   546   1 h    0.898 --   544 o    0.875
   547   8 o    1.848 --   548 h    0.839   549 h    0.799
   548   1 h    0.891 --   547 o    0.839
   549   1 h    0.880 --   547 o    0.799
   550   8 o    1.849 --   551 h    0.870   552 h    0.847
   551   1 h    0.898 --   550 o    0.870
   552   1 h    0.890 --   550 o    0.847
   553   8 o    1.880 --   555 h    0.857   554 h    0.819
   554   1 h    0.882 --   553 o    0.819
   555   1 h    0.890 --   553 o    0.857
   556   8 o    1.855 --   558 h    0.909   557 h    0.804
   557   1 h    0.880 --   556 o    0.804
   558   1 h    0.914 --   556 o    0.909
   559   8 o    1.874 --   561 h    0.858   560 h    0.843
   560   1 h    0.891 --   559 o    0.843
   561   1 h    0.892 --   559 o    0.858
   562   8 o    1.833 --   563 h    0.871   564 h    0.842
   563   1 h    0.897 --   562 o    0.871
   564   1 h    0.887 --   562 o    0.842
   565   8 o    1.851 --   566 h    0.837   567 h    0.807
   566   1 h    0.893 --   565 o    0.837
   567   1 h    0.881 --   565 o    0.807
   568   8 o    1.865 --   570 h    0.900   569 h    0.811
   569   1 h    0.873 --   568 o    0.811
   570   1 h    0.910 --   568 o    0.900
   571   8 o    1.880 --   573 h    0.838   572 h    0.812
   572   1 h    0.876 --   571 o    0.812
   573   1 h    0.887 --   571 o    0.838
   574   8 o    1.818 --   575 h    0.814   576 h    0.811
   575   1 h    0.878 --   574 o    0.814
   576   1 h    0.880 --   574 o    0.811
   577   8 o    1.868 --   579 h    0.831   578 h    0.810
   578   1 h    0.873 --   577 o    0.810
   579   1 h    0.887 --   577 o    0.831
   580   8 o    1.841 --   582 h    0.909   581 h    0.822
   581   1 h    0.877 --   580 o    0.822
   582   1 h    0.915 --   580 o    0.909
   583   8 o    1.897 --   585 h    0.807   584 h    0.786
   584   1 h    0.874 --   583 o    0.786
   585   1 h    0.876 --   583 o    0.807
   586   8 o    1.864 --   587 h    0.881   588 h    0.792
   587   1 h    0.900 --   586 o    0.881
   588   1 h    0.863 --   586 o    0.792
   589   8 o    1.833 --   591 h    0.855   590 h    0.845
   590   1 h    0.894 --   589 o    0.845
   591   1 h    0.896 --   589 o    0.855
   592   8 o    1.823 --   594 h    0.864   593 h    0.854
   593   1 h    0.892 --   592 o    0.854
   594   1 h    0.896 --   592 o    0.864
   595   8 o    1.845 --   597 h    0.858   596 h    0.836
   596   1 h    0.894 --   595 o    0.836
   597   1 h    0.894 --   595 o    0.858
   598   8 o    1.849 --   599 h    0.854   600 h    0.814
   599   1 h    0.898 --   598 o    0.854
   600   1 h    0.878 --   598 o    0.814
   601   8 o    1.820 --   603 h    0.846   602 h    0.793
   602   1 h    0.875 --   601 o    0.793
   603   1 h    0.895 --   601 o    0.846
   604   8 o    1.834 --   605 h    0.884   606 h    0.779
   605   1 h    0.905 --   604 o    0.884
   606   1 h    0.872 --   604 o    0.779
   607   8 o    1.831 --   608 h    0.897   609 h    0.781
   608   1 h    0.909 --   607 o    0.897
   609   1 h    0.876 --   607 o    0.781
   610   8 o    1.857 --   612 h    0.804   611 h    0.763
   611   1 h    0.866 --   610 o    0.763
   612   1 h    0.886 --   610 o    0.804
   613   8 o    1.824 --   614 h    0.865   615 h    0.841
   614   1 h    0.896 --   613 o    0.865
   615   1 h    0.892 --   613 o    0.841
   616   8 o    1.853 --   618 h    0.895   617 h    0.787
   617   1 h    0.876 --   616 o    0.787
   618   1 h    0.907 --   616 o    0.895
   619   8 o    1.860 --   620 h    0.835   621 h    0.815
   620   1 h    0.886 --   619 o    0.835
   621   1 h    0.877 --   619 o    0.815
   622   8 o    1.826 --   624 h    0.858   623 h    0.823
   623   1 h    0.884 --   622 o    0.823
   624   1 h    0.899 --   622 o    0.858
   625   8 o    1.835 --   626 h    0.845   627 h    0.837
   626   1 h    0.893 --   625 o    0.845
   627   1 h    0.895 --   625 o    0.837
   628   8 o    1.841 --   629 h    0.873   630 h    0.821
   629   1 h    0.897 --   628 o    0.873
   630   1 h    0.888 --   628 o    0.821
   631   8 o    1.872 --   633 h    0.820   632 h    0.796
   632   1 h    0.877 --   631 o    0.796
   633   1 h    0.883 --   631 o    0.820
   634   8 o    1.841 --   636 h    0.856   635 h    0.855
   635   1 h    0.897 --   634 o    0.855
   636   1 h    0.899 --   634 o    0.856
   637   8 o    1.858 --   639 h    0.848   638 h    0.829
   638   1 h    0.890 --   637 o    0.829
   639   1 h    0.894 --   637 o    0.848
   640   8 o    1.869 --   642 h    0.891   641 h    0.856
   641   1 h    0.884 --   640 o    0.856
   642   1 h    0.901 --   640 o    0.891
   643   8 o    1.879 --   645 h    0.822   644 h    0.802
   644   1 h    0.875 --   643 o    0.802
   645   1 h    0.889 --   643 o    0.822
   646   8 o    1.816 --   647 h    0.895   648 h    0.853
   647   1 h    0.904 --   646 o    0.895
   648   1 h    0.891 --   646 o    0.853
   649   8 o    1.871 --   650 h    0.893   651 h    0.814
   650   1 h    0.903 --   649 o    0.893
   651   1 h    0.884 --   649 o    0.814
   652   8 o    1.873 --   653 h    0.825   654 h    0.803
   653   1 h    0.882 --   652 o    0.825
   654   1 h    0.874 --   652 o    0.803
   655   8 o    1.858 --   656 h    0.906   657 h    0.785
   656   1 h    0.913 --   655 o    0.906
   657   1 h    0.871 --   655 o    0.785
   658   8 o    1.849 --   659 h    0.811   660 h    0.788
   659   1 h    0.879 --   658 o    0.811
   660   1 h    0.876 --   658 o    0.788
   661   8 o    1.869 --   663 h    0.857   662 h    0.841
   662   1 h    0.885 --   661 o    0.841
   663   1 h    0.891 --   661 o    0.857
   664   8 o    1.866 --   666 h    0.858   665 h    0.830
   665   1 h    0.886 --   664 o    0.830
   666   1 h    0.892 --   664 o    0.858
   667   8 o    1.831 --   669 h    0.858   668 h    0.815
   668   1 h    0.882 --   667 o    0.815
   669   1 h    0.896 --   667 o    0.858
   670   8 o    1.859 --   671 h    0.848   672 h    0.819
   671   1 h    0.896 --   670 o    0.848
   672   1 h    0.882 --   670 o    0.819
   673   8 o    1.856 --   675 h    0.887   674 h    0.800
   674   1 h    0.870 --   673 o    0.800
   675   1 h    0.902 --   673 o    0.887
   676   8 o    1.861 --   678 h    0.826   677 h    0.794
   677   1 h    0.878 --   676 o    0.794
   678   1 h    0.881 --   676 o    0.826
   679   8 o    1.862 --   681 h    0.837   680 h    0.784
   680   1 h    0.873 --   679 o    0.784
   681   1 h    0.887 --   679 o    0.837
   682   8 o    1.819 --   684 h    0.885   683 h    0.849
   683   1 h    0.889 --   682 o    0.849
   684   1 h    0.905 --   682 o    0.885
   685   8 o    1.852 --   687 h    0.842   686 h    0.820
   686   1 h    0.882 --   685 o    0.820
   687   1 h    0.884 --   685 o    0.842
   688   8 o    1.856 --   690 h    0.837   689 h    0.807
   689   1 h    0.879 --   688 o    0.807
   690   1 h    0.884 --   688 o    0.837
   691   8 o    1.873 --   693 h    0.834   692 h    0.795
   692   1 h    0.884 --   691 o    0.795
   693   1 h    0.887 --   691 o    0.834
   694   8 o    1.827 --   696 h    0.860   695 h    0.833
   695   1 h    0.886 --   694 o    0.833
   696   1 h    0.889 --   694 o    0.860
   697   8 o    1.851 --   699 h    0.831   698 h    0.814
   698   1 h    0.878 --   697 o    0.814
   699   1 h    0.888 --   697 o    0.831
   700   8 o    1.838 --   701 h    0.909   702 h    0.760
   701   1 h    0.918 --   700 o    0.909
   702   1 h    0.873 --   700 o    0.760   262 o    0.106
   703   8 o    1.865 --   705 h    0.878   704 h    0.871
   704   1 h    0.893 --   703 o    0.871
   705   1 h    0.897 --   703 o    0.878
   706   8 o    1.802 --   708 h    0.853   707 h    0.822
   707   1 h    0.885 --   706 o    0.822
   708   1 h    0.900 --   706 o    0.853
   709   8 o    1.852 --   711 h    0.868   710 h    0.822
   710   1 h    0.883 --   709 o    0.822
   711   1 h    0.895 --   709 o    0.868
   712   8 o    1.851 --   713 h    0.869   714 h    0.834
   713   1 h    0.898 --   712 o    0.869
   714   1 h    0.892 --   712 o    0.834
   715   8 o    1.812 --   717 h    0.847   716 h    0.828
   716   1 h    0.886 --   715 o    0.828
   717   1 h    0.884 --   715 o    0.847
   718   8 o    1.876 --   719 h    0.819   720 h    0.804
   719   1 h    0.878 --   718 o    0.819
   720   1 h    0.877 --   718 o    0.804
   721   8 o    1.882 --   723 h    0.877   722 h    0.834
   722   1 h    0.885 --   721 o    0.834
   723   1 h    0.899 --   721 o    0.877
   724   8 o    1.875 --   725 h    0.828   726 h    0.790
   725   1 h    0.884 --   724 o    0.828
   726   1 h    0.874 --   724 o    0.790
   727   8 o    1.857 --   728 h    0.833   729 h    0.824
   728   1 h    0.891 --   727 o    0.833
   729   1 h    0.888 --   727 o    0.824
   730   8 o    1.849 --   731 h    0.859   732 h    0.842
   731   1 h    0.895 --   730 o    0.859
   732   1 h    0.890 --   730 o    0.842
   733   8 o    1.836 --   735 h    0.863   734 h    0.832
   734   1 h    0.877 --   733 o    0.832
   735   1 h    0.897 --   733 o    0.863
   736   8 o    1.866 --   738 h    0.914   737 h    0.809
   737   1 h    0.875 --   736 o    0.809
   738   1 h    0.917 --   736 o    0.914
   739   8 o    1.863 --   741 h    0.851   740 h    0.833
   740   1 h    0.889 --   739 o    0.833
   741   1 h    0.892 --   739 o    0.851
   742   8 o    1.798 --   743 h    0.834   744 h    0.805
   743   1 h    0.894 --   742 o    0.834
   744   1 h    0.885 --   742 o    0.805
   745   8 o    1.853 --   746 h    0.906   747 h    0.796
   746   1 h    0.913 --   745 o    0.906
   747   1 h    0.876 --   745 o    0.796
   748   8 o    1.849 --   750 h    0.868   749 h    0.815
   749   1 h    0.886 --   748 o    0.815
   750   1 h    0.899 --   748 o    0.868
   751   8 o    1.826 --   752 h    0.893   753 h    0.810
   752   1 h    0.898 --   751 o    0.893
   753   1 h    0.877 --   751 o    0.810
   754   8 o    1.839 --   755 h    0.919   756 h    0.919
   755   1 h    0.920 --   754 o    0.919
   756   1 h    0.920 --   754 o    0.919
 ---------------------------------------------------------------------------

Topologies differ in total number of bonds
Writing topology from bond orders to xtbtopo.mol

molecular dipole:
                 x           y           z       tot (Debye)
 q only:       -2.165      -0.363       2.020
   full:       -3.099       0.995       2.817      10.942
molecular quadrupole (traceless):
                xx          xy          yy          xz          yz          zz
 q only:       10.538      -4.526     -43.674      25.403     -42.299      33.136
  q+dip:       15.938     -33.108     -77.276      33.086     -64.535      61.339
   full:       17.842     -34.370     -79.161      33.659     -63.838      61.318


           -------------------------------------------------
          | TOTAL ENERGY            -1283.317167724184 Eh   |
          | GRADIENT NORM               0.047524753528 Eh/α |
          | HOMO-LUMO GAP               8.060525835618 eV   |
           -------------------------------------------------

------------------------------------------------------------------------
 * finished run on 2022/11/24 at 09:29:08.488     
------------------------------------------------------------------------
 total:
 * wall-time:     0 d,  0 h,  0 min, 58.412 sec
 *  cpu-time:     0 d,  0 h,  1 min, 13.559 sec
 * ratio c/w:     1.259 speedup
 SCF:
 * wall-time:     0 d,  0 h,  0 min, 57.397 sec
 *  cpu-time:     0 d,  0 h,  1 min, 11.855 sec
 * ratio c/w:     1.252 speedup

