      -----------------------------------------------------------      
     |                   =====================                   |     
     |                           x T B                           |     
     |                   =====================                   |     
     |                         S. Grimme                         |     
     |          Mulliken Center for Theoretical Chemistry        |     
     |                    University of Bonn                     |     
      -----------------------------------------------------------      

   * xtb version 6.5.1 (579679a) compiled by 'ehlert@majestix' on 2022-07-11

   xtb is free software: you can redistribute it and/or modify it under
   the terms of the GNU Lesser General Public License as published by
   the Free Software Foundation, either version 3 of the License, or
   (at your option) any later version.
   
   xtb is distributed in the hope that it will be useful,
   but WITHOUT ANY WARRANTY; without even the implied warranty of
   MERCHANTABILITY or FITNESS FOR A PARTICULAR PURPOSE.  See the
   GNU Lesser General Public License for more details.
   
   Cite this work as:
   * C. Bannwarth, E. Caldeweyher, S. Ehlert, A. Hansen, P. Pracht,
     J. Seibert, S. Spicher, S. Grimme, WIREs Comput. Mol. Sci., 2020, 11,
     e01493. DOI: 10.1002/wcms.1493
   
   for GFN2-xTB:
   * C. Bannwarth, S. Ehlert and S. Grimme., J. Chem. Theory Comput., 2019,
     15, 1652-1671. DOI: 10.1021/acs.jctc.8b01176
   for GFN1-xTB:
   * S. Grimme, C. Bannwarth, P. Shushkov, J. Chem. Theory Comput., 2017,
     13, 1989-2009. DOI: 10.1021/acs.jctc.7b00118
   for GFN0-xTB:
   * P. Pracht, E. Caldeweyher, S. Ehlert, S. Grimme, ChemRxiv, 2019, preprint.
     DOI: 10.26434/chemrxiv.8326202.v1
   for GFN-FF:
   * S. Spicher and S. Grimme, Angew. Chem. Int. Ed., 2020, 59, 15665-15673.
     DOI: 10.1002/anie.202004239
   
   for ALPB and GBSA implicit solvation:
   * S. Ehlert, M. Stahn, S. Spicher, S. Grimme, J. Chem. Theory Comput.,
     2021, 17, 4250-4261. DOI: 10.1021/acs.jctc.1c00471
   
   for DFT-D4:
   * E. Caldeweyher, C. Bannwarth and S. Grimme, J. Chem. Phys., 2017,
     147, 034112. DOI: 10.1063/1.4993215
   * E. Caldeweyher, S. Ehlert, A. Hansen, H. Neugebauer, S. Spicher,
     C. Bannwarth and S. Grimme, J. Chem. Phys., 2019, 150, 154122.
     DOI: 10.1063/1.5090222
   * E. Caldeweyher, J.-M. Mewes, S. Ehlert and S. Grimme, Phys. Chem. Chem. Phys.
     2020, 22, 8499-8512. DOI: 10.1039/D0CP00502A
   
   for sTDA-xTB:
   * S. Grimme and C. Bannwarth, J. Chem. Phys., 2016, 145, 054103.
     DOI: 10.1063/1.4959605
   
   in the mass-spec context:
   * V. Asgeirsson, C. Bauer and S. Grimme, Chem. Sci., 2017, 8, 4879.
     DOI: 10.1039/c7sc00601b
   * J. Koopman and S. Grimme, ACS Omega 2019, 4, 12, 15120-15133.
     DOI: 10.1021/acsomega.9b02011
   
   for metadynamics refer to:
   * S. Grimme, J. Chem. Theory Comput., 2019, 155, 2847-2862
     DOI: 10.1021/acs.jctc.9b00143
   
   for SPH calculations refer to:
   * S. Spicher and S. Grimme, J. Chem. Theory Comput., 2021, 17, 1701-1714
     DOI: 10.1021/acs.jctc.0c01306
   
   with help from (in alphabetical order)
   P. Atkinson, C. Bannwarth, F. Bohle, G. Brandenburg, E. Caldeweyher
   M. Checinski, S. Dohm, S. Ehlert, S. Ehrlich, I. Gerasimov, C. Hölzer
   A. Katbashev, J. Koopman, C. Lavigne, S. Lehtola, F. März, M. Müller,
   F. Musil, H. Neugebauer, J. Pisarek, C. Plett, P. Pracht, F. Pultar,
   J. Seibert, P. Shushkov, S. Spicher, M. Stahn, M. Steiner, T. Strunk,
   J. Stückrath, T. Rose, and J. Unsleber
   
 * started run on 2022/11/24 at 09:07:52.365     

           -------------------------------------------------
          |                Calculation Setup                |
           -------------------------------------------------

          program call               : xtb solvent_cluster.coord --gfn2 --input xcontrol --opt 1
          hostname                   : cn0341
          coordinate file            : solvent_cluster.coord
          omp threads                :                     2

   ID    Z sym.   atoms
    1    8 o      1, 4, 7, 10, 13, 16, 19, 22, 25, 28, 31, 34, 37, 40, 43,
                  46, 49, 52, 55, 58, 61, 64, 67, 70, 73, 76, 79, 82, 85, 88,
                  91, 94, 97, 100, 103, 106, 109, 112, 115, 118, 121, 124,
                  127, 130, 133, 136, 139, 142, 145, 148, 151, 154, 157, 160,
                  163, 166, 169, 172, 175, 178, 181, 184, 187, 190, 193, 196,
                  199, 202, 205, 208, 211, 214, 217, 220, 223, 226, 229, 232,
                  235, 238, 241, 244, 247, 250, 253, 256, 259, 262, 265, 268,
                  271, 274, 277, 280, 283, 286, 289, 292, 295, 298, 301, 304,
                  307, 310, 313, 316, 319, 322, 325, 328, 331, 334, 337, 340,
                  343, 346, 349, 352, 355, 358, 361, 364, 367, 370, 373, 376,
                  379, 382, 385, 388, 391, 394, 397, 400, 403, 406, 409, 412,
                  415, 418, 421, 424, 427, 430, 433, 436, 439, 442, 445, 448,
                  451, 454, 457, 460, 463, 466, 469, 472, 475, 478, 481, 484,
                  487, 490, 493, 496, 499, 502, 505, 508, 511, 514, 517, 520,
                  523, 526, 529, 532, 535, 538, 541, 544, 547, 550, 553, 556,
                  559, 562, 565, 568, 571, 574, 577, 580, 583, 586, 589, 592,
                  595, 598, 601, 604, 607, 610, 613, 616, 619, 622, 625, 628,
                  631, 634, 637, 640, 643, 646, 649, 652, 655, 658, 661, 664,
                  667, 670, 673, 676, 679, 682, 685, 688, 691, 694, 697, 700,
                  703, 706, 709, 712, 715, 718, 721, 724, 727, 730, 733, 736,
                  739, 742, 745, 748, 751, 754
    2    1 h      2, 3, 5, 6, 8, 9, 11, 12, 14, 15, 17, 18, 20, 21, 23, 24,
                  26, 27, 29, 30, 32, 33, 35, 36, 38, 39, 41, 42, 44, 45, 47,
                  48, 50, 51, 53, 54, 56, 57, 59, 60, 62, 63, 65, 66, 68, 69,
                  71, 72, 74, 75, 77, 78, 80, 81, 83, 84, 86, 87, 89, 90, 92,
                  93, 95, 96, 98, 99, 101, 102, 104, 105, 107, 108, 110, 111,
                  113, 114, 116, 117, 119, 120, 122, 123, 125, 126, 128, 129,
                  131, 132, 134, 135, 137, 138, 140, 141, 143, 144, 146, 147,
                  149, 150, 152, 153, 155, 156, 158, 159, 161, 162, 164, 165,
                  167, 168, 170, 171, 173, 174, 176, 177, 179, 180, 182, 183,
                  185, 186, 188, 189, 191, 192, 194, 195, 197, 198, 200, 201,
                  203, 204, 206, 207, 209, 210, 212, 213, 215, 216, 218, 219,
                  221, 222, 224, 225, 227, 228, 230, 231, 233, 234, 236, 237,
                  239, 240, 242, 243, 245, 246, 248, 249, 251, 252, 254, 255,
                  257, 258, 260, 261, 263, 264, 266, 267, 269, 270, 272, 273,
                  275, 276, 278, 279, 281, 282, 284, 285, 287, 288, 290, 291,
                  293, 294, 296, 297, 299, 300, 302, 303, 305, 306, 308, 309,
                  311, 312, 314, 315, 317, 318, 320, 321, 323, 324, 326, 327,
                  329, 330, 332, 333, 335, 336, 338, 339, 341, 342, 344, 345,
                  347, 348, 350, 351, 353, 354, 356, 357, 359, 360, 362, 363,
                  365, 366, 368, 369, 371, 372, 374, 375, 377, 378, 380, 381,
                  383, 384, 386, 387, 389, 390, 392, 393, 395, 396, 398, 399,
                  401, 402, 404, 405, 407, 408, 410, 411, 413, 414, 416, 417,
                  419, 420, 422, 423, 425, 426, 428, 429, 431, 432, 434, 435,
                  437, 438, 440, 441, 443, 444, 446, 447, 449, 450, 452, 453,
                  455, 456, 458, 459, 461, 462, 464, 465, 467, 468, 470, 471,
                  473, 474, 476, 477, 479, 480, 482, 483, 485, 486, 488, 489,
                  491, 492, 494, 495, 497, 498, 500, 501, 503, 504, 506, 507,
                  509, 510, 512, 513, 515, 516, 518, 519, 521, 522, 524, 525,
                  527, 528, 530, 531, 533, 534, 536, 537, 539, 540, 542, 543,
                  545, 546, 548, 549, 551, 552, 554, 555, 557, 558, 560, 561,
                  563, 564, 566, 567, 569, 570, 572, 573, 575, 576, 578, 579,
                  581, 582, 584, 585, 587, 588, 590, 591, 593, 594, 596, 597,
                  599, 600, 602, 603, 605, 606, 608, 609, 611, 612, 614, 615,
                  617, 618, 620, 621, 623, 624, 626, 627, 629, 630, 632, 633,
                  635, 636, 638, 639, 641, 642, 644, 645, 647, 648, 650, 651,
                  653, 654, 656, 657, 659, 660, 662, 663, 665, 666, 668, 669,
                  671, 672, 674, 675, 677, 678, 680, 681, 683, 684, 686, 687,
                  689, 690, 692, 693, 695, 696, 698, 699, 701, 702, 704, 705,
                  707, 708, 710, 711, 713, 714, 716, 717, 719, 720, 722, 723,
                  725, 726, 728, 729, 731, 732, 734, 735, 737, 738, 740, 741,
                  743, 744, 746, 747, 749, 750, 752, 753, 755, 756

molecular fragmentation (1/2 indicates fragments):
111222222222222222222222222222222222222222222222222222222222222222222222
222222222222222222222222222222222222222222222222222222222222222222222222
222222222222222222222222222222222222222222222222222222222222222222222222
222222222222222222222222222222222222222222222222222222222222222222222222
222222222222222222222222222222222222222222222222222222222222222222222222
222222222222222222222222222222222222222222222222222222222222222222222222
222222222222222222222222222222222222222222222222222222222222222222222222
222222222222222222222222222222222222222222222222222222222222222222222222
222222222222222222222222222222222222222222222222222222222222222222222222
222222222222222222222222222222222222222222222222222222222222222222222222
222222222222222222222222222222222222
# atoms in fragment 1/2:     3   753
 fragment masses (1/2) :       18.02     4521.84
CMA distance (Bohr)    :  17.826
constraining FC (au)   :  0.0500

           -------------------------------------------------
          |                 G F N 2 - x T B                 |
           -------------------------------------------------

        Reference                      10.1021/acs.jctc.8b01176
      * Hamiltonian:
        H0-scaling (s, p, d)           1.850000    2.230000    2.230000
        zeta-weighting                 0.500000
      * Dispersion:
        s8                             2.700000
        a1                             0.520000
        a2                             5.000000
        s9                             5.000000
      * Repulsion:
        kExp                           1.500000    1.000000
        rExp                           1.000000
      * Coulomb:
        alpha                          2.000000
        third order                    shell-resolved
        anisotropic                    true
        a3                             3.000000
        a5                             4.000000
        cn-shift                       1.200000
        cn-exp                         4.000000
        max-rad                        5.000000


          ...................................................
          :                      SETUP                      :
          :.................................................:
          :  # basis functions                1512          :
          :  # atomic orbitals                1512          :
          :  # shells                         1008          :
          :  # electrons                      2016          :
          :  max. iterations                   250          :
          :  Hamiltonian                  GFN2-xTB          :
          :  restarted?                      false          :
          :  GBSA solvation                  false          :
          :  PC potential                    false          :
          :  electronic temp.          300.0000000     K    :
          :  accuracy                    1.0000000          :
          :  -> integral cutoff          0.2500000E+02      :
          :  -> integral neglect         0.1000000E-07      :
          :  -> SCF convergence          0.1000000E-05 Eh   :
          :  -> wf. convergence          0.1000000E-03 e    :
          :  Broyden damping             0.4000000          :
          ...................................................

 iter      E             dE          RMSdq      gap      omega  full diag
   1  -1291.0271093 -0.129103E+04  0.406E+00    8.41       0.0  T
   2  -1291.0956637 -0.685544E-01  0.241E+00    8.39       1.0  T
   3  -1291.1258290 -0.301653E-01  0.205E-01    8.11       1.0  T
   4  -1291.1307060 -0.487705E-02  0.449E-02    8.27       1.0  T
   5  -1291.1307698 -0.637675E-04  0.302E-02    8.26       1.0  T
   6  -1291.1308055 -0.356706E-04  0.398E-03    8.27       1.0  T
   7  -1291.1308075 -0.202877E-05  0.761E-04    8.27       4.8  T
   8  -1291.1308075 -0.338459E-07  0.390E-04    8.27       9.3  T
   9  -1291.1308075 -0.148052E-07  0.624E-05    8.27      58.3  T

   *** convergence criteria satisfied after 9 iterations ***

         #    Occupation            Energy/Eh            Energy/eV
      -------------------------------------------------------------
         1        2.0000           -0.6879089             -18.7190
       ...           ...                  ...                  ...
      1002        2.0000           -0.4116793             -11.2024
      1003        2.0000           -0.4103360             -11.1658
      1004        2.0000           -0.4094752             -11.1424
      1005        2.0000           -0.4091588             -11.1338
      1006        2.0000           -0.4088779             -11.1261
      1007        2.0000           -0.4086149             -11.1190
      1008        2.0000           -0.4082773             -11.1098 (HOMO)
      1009                         -0.1042828              -2.8377 (LUMO)
      1010                         -0.0905306              -2.4635
      1011                         -0.0799173              -2.1747
      1012                         -0.0752701              -2.0482
      1013                         -0.0717963              -1.9537
       ...                                ...                  ...
      1512                          0.4227339              11.5032
      -------------------------------------------------------------
                  HL-Gap            0.3039946 Eh            8.2721 eV
             Fermi-level           -0.2562800 Eh           -6.9737 eV

 SCC (total)                   0 d,  0 h,  0 min, 22.283 sec
 SCC setup                      ...        0 min,  0.042 sec (  0.190%)
 Dispersion                     ...        0 min,  0.121 sec (  0.545%)
 classical contributions        ...        0 min,  0.023 sec (  0.104%)
 integral evaluation            ...        0 min,  0.617 sec (  2.770%)
 iterations                     ...        0 min,  8.946 sec ( 40.148%)
 molecular gradient             ...        0 min, 12.463 sec ( 55.932%)
 printout                       ...        0 min,  0.069 sec (  0.311%)

         :::::::::::::::::::::::::::::::::::::::::::::::::::::
         ::                     SUMMARY                     ::
         :::::::::::::::::::::::::::::::::::::::::::::::::::::
         :: total energy           -1283.372095312583 Eh    ::
         :: gradient norm              0.047514651838 Eh/a0 ::
         :: HOMO-LUMO gap              8.272113855957 eV    ::
         ::.................................................::
         :: SCC energy             -1291.130807544968 Eh    ::
         :: -> isotropic ES            7.161520877793 Eh    ::
         :: -> anisotropic ES         -1.636905836288 Eh    ::
         :: -> anisotropic XC         -0.127085158525 Eh    ::
         :: -> dispersion             -0.792738359847 Eh    ::
         :: repulsion energy           7.601857674062 Eh    ::
         :: add. restraining           0.000000000000 Eh    ::
         :: total charge               0.000000000000 e     ::
         :::::::::::::::::::::::::::::::::::::::::::::::::::::

      ----------------------------------------------------------- 
     |                       L-ANC optimizer                     |
      ----------------------------------------------------------- 
          low memory version by Sebastian Ehlert

          ...................................................
          :                      SETUP                      :
          :.................................................:
          :   energy convergence        0.1000000E-05 Eh    :
          :   grad. convergence         0.8000000E-03 Eh/a0 :
          :   optimization log               true           :
          :   writing optlog all                1     steps :
          :   Hessian reset                    20     steps :
          :   maximium step len.        1.0000000     a0    :
          :   LBFGS images                     20           :
          ...................................................
 * calculating model hessian...
Using Lindh-Hessian (1995)
 Shifting diagonal of input Hessian by   1.000009409568236E-002
 Lowest  eigenvalues of input Hessian
    0.010000    0.010000   -0.000000   -0.000000   -0.000000   -0.000000
   -0.000000   -0.000000   -0.000000   -0.000000   -0.000000   -0.000000
   -0.000000   -0.000000   -0.000000   -0.000000   -0.000000   -0.000000
 Highest eigenvalues
    0.322374    0.329257    1.210727    1.230170    1.452777    1.454683
 

........................................................................
.............................. CYCLE    1 ..............................
........................................................................
   1  -1291.1232305 -0.129112E+04  0.390E-02    8.24       0.0  T
   2  -1291.1232479 -0.174231E-04  0.241E-02    8.24       1.0  T
   3  -1291.1232559 -0.803961E-05  0.204E-03    8.25       1.8  T
   4  -1291.1232563 -0.328677E-06  0.543E-04    8.24       6.7  T
   5  -1291.1232563 -0.669593E-08  0.679E-05    8.24      53.5  T
     SCC iter.                  ...        0 min,  3.830 sec
     gradient                   ...        0 min, 12.421 sec
 * total energy  : -1283.3732562 Eh     change       -0.1160855E-02 Eh
   gradient norm :     0.0283695 Eh/a0  converged?    E=F G=F D=F
   step length   :     0.3590855 a0

........................................................................
.............................. CYCLE    2 ..............................
........................................................................
   1  -1291.1292677 -0.129113E+04  0.175E-02    8.27       0.0  T
   2  -1291.1292735 -0.580522E-05  0.106E-02    8.27       1.0  T
   3  -1291.1292754 -0.185285E-05  0.142E-03    8.27       2.6  T
   4  -1291.1292756 -0.176771E-06  0.321E-04    8.27      11.3  T
   5  -1291.1292756 -0.196178E-08  0.391E-05    8.27      93.1  T
     SCC iter.                  ...        0 min,  3.755 sec
     gradient                   ...        0 min, 12.680 sec
 * total energy  : -1283.3737595 Eh     change       -0.5033413E-03 Eh
   gradient norm :     0.0097863 Eh/a0  converged?    E=F G=F D=F
   step length   :     0.1724758 a0

........................................................................
.............................. CYCLE    3 ..............................
........................................................................
   1  -1291.1299953 -0.129113E+04  0.113E-02    8.27       0.0  T
   2  -1291.1299971 -0.177225E-05  0.697E-03    8.27       1.0  T
   3  -1291.1299979 -0.785925E-06  0.704E-04    8.27       5.2  T
   4  -1291.1299979 -0.425821E-07  0.208E-04    8.27      17.5  T
     SCC iter.                  ...        0 min,  2.862 sec
     gradient                   ...        0 min, 12.786 sec
 * total energy  : -1283.3739523 Eh     change       -0.1927629E-03 Eh
   gradient norm :     0.0096750 Eh/a0  converged?    E=F G=F D=F
   step length   :     0.1481126 a0

........................................................................
.............................. CYCLE    4 ..............................
........................................................................
   1  -1291.1283383 -0.129113E+04  0.118E-02    8.27       0.0  T
   2  -1291.1283417 -0.345670E-05  0.725E-03    8.27       1.0  T
   3  -1291.1283425 -0.799142E-06  0.100E-03    8.27       3.6  T
   4  -1291.1283426 -0.118194E-06  0.199E-04    8.27      18.3  T
     SCC iter.                  ...        0 min,  2.851 sec
     gradient                   ...        0 min, 12.799 sec
 * total energy  : -1283.3741665 Eh     change       -0.2142231E-03 Eh
   gradient norm :     0.0097718 Eh/a0  converged?    E=F G=F D=F
   step length   :     0.1795746 a0

........................................................................
.............................. CYCLE    5 ..............................
........................................................................
   1  -1291.1299843 -0.129113E+04  0.355E-03    8.27       0.0  T
   2  -1291.1299845 -0.253935E-06  0.214E-03    8.27       1.7  T
   3  -1291.1299846 -0.116474E-06  0.296E-04    8.27      12.3  T
   4  -1291.1299846 -0.738783E-08  0.100E-04    8.27      36.3  T
     SCC iter.                  ...        0 min,  2.829 sec
     gradient                   ...        0 min, 12.410 sec
 * total energy  : -1283.3742136 Eh     change       -0.4706164E-04 Eh
   gradient norm :     0.0035912 Eh/a0  converged?    E=F G=F D=F
   step length   :     0.0538313 a0

........................................................................
.............................. CYCLE    6 ..............................
........................................................................
   1  -1291.1300714 -0.129113E+04  0.264E-03    8.27       0.0  T
   2  -1291.1300716 -0.108621E-06  0.159E-03    8.27       2.3  T
   3  -1291.1300716 -0.305786E-07  0.174E-04    8.27      20.8  T
   4  -1291.1300716 -0.390355E-08  0.492E-05    8.27      73.9  T
     SCC iter.                  ...        0 min,  2.581 sec
     gradient                   ...        0 min, 12.384 sec
 * total energy  : -1283.3742470 Eh     change       -0.3339934E-04 Eh
   gradient norm :     0.0017713 Eh/a0  converged?    E=F G=F D=F
   step length   :     0.0475519 a0

........................................................................
.............................. CYCLE    7 ..............................
........................................................................
   1  -1291.1299470 -0.129113E+04  0.541E-03    8.27       0.0  T
   2  -1291.1299473 -0.251639E-06  0.332E-03    8.27       1.1  T
   3  -1291.1299474 -0.129464E-06  0.255E-04    8.27      14.2  T
   4  -1291.1299474 -0.461091E-08  0.830E-05    8.27      43.8  T
     SCC iter.                  ...        0 min,  2.586 sec
     gradient                   ...        0 min, 12.407 sec
 * total energy  : -1283.3742655 Eh     change       -0.1852080E-04 Eh
   gradient norm :     0.0027539 Eh/a0  converged?    E=F G=F D=F
   step length   :     0.0932004 a0

........................................................................
.............................. CYCLE    8 ..............................
........................................................................
   1  -1291.1303006 -0.129113E+04  0.826E-04    8.27       0.0  T
   2  -1291.1303006 -0.171108E-07  0.496E-04    8.27       7.3  T
   3  -1291.1303006 -0.476462E-08  0.722E-05    8.27      50.4  T
     SCC iter.                  ...        0 min,  1.951 sec
     gradient                   ...        0 min, 12.513 sec
 * total energy  : -1283.3742716 Eh     change       -0.6085182E-05 Eh
   gradient norm :     0.0010274 Eh/a0  converged?    E=F G=F D=F
   step length   :     0.0138381 a0

........................................................................
.............................. CYCLE    9 ..............................
........................................................................
   1  -1291.1305164 -0.129113E+04  0.100E-03    8.27       0.0  T
   2  -1291.1305165 -0.908803E-07  0.587E-04    8.27       6.2  T
   3  -1291.1305165 -0.150485E-07  0.177E-04    8.27      20.6  T
     SCC iter.                  ...        0 min,  1.970 sec
     gradient                   ...        0 min, 12.482 sec
 * total energy  : -1283.3742756 Eh     change       -0.4006259E-05 Eh
   gradient norm :     0.0009945 Eh/a0  converged?    E=F G=F D=F
   step length   :     0.0292640 a0

........................................................................
.............................. CYCLE   10 ..............................
........................................................................
   1  -1291.1304505 -0.129113E+04  0.668E-04    8.27       0.0  T
   2  -1291.1304505 -0.576233E-08  0.409E-04    8.27       8.9  T
   3  -1291.1304505 -0.194427E-08  0.403E-05    8.27      90.2  T
     SCC iter.                  ...        0 min,  1.983 sec
     gradient                   ...        0 min, 12.544 sec
 * total energy  : -1283.3742770 Eh     change       -0.1460333E-05 Eh
   gradient norm :     0.0003206 Eh/a0  converged?    E=F G=T D=F
   step length   :     0.0134671 a0

........................................................................
.............................. CYCLE   11 ..............................
........................................................................
   1  -1291.1304021 -0.129113E+04  0.105E-03    8.27       0.0  T
   2  -1291.1304021 -0.113848E-07  0.643E-04    8.27       5.7  T
   3  -1291.1304021 -0.348086E-08  0.552E-05    8.27      65.9  T
     SCC iter.                  ...        0 min,  1.888 sec
     gradient                   ...        0 min, 12.621 sec
 * total energy  : -1283.3742776 Eh     change       -0.5425466E-06 Eh
   gradient norm :     0.0007584 Eh/a0  converged?    E=T G=T D=F
   step length   :     0.0178379 a0

   *** GEOMETRY OPTIMIZATION CONVERGED AFTER 11 CYCLES ***

------------------------------------------------------------------------
 total energy gain   :        -0.0021823 Eh       -1.3694 kcal/mol
 total RMSD          :         0.0229182 a0        0.0121 Å
 total power (kW/mol):        -0.5208654 (step)   -0.0306 (real)
------------------------------------------------------------------------

 L-ANCopt (total)              0 d,  0 h,  3 min,  7.294 sec
 setup                          ...        0 min,  0.030 sec (  0.016%)
 model hessian                  ...        0 min,  7.860 sec (  4.197%)
 ANC generation                 ...        0 min,  2.620 sec (  1.399%)
 coordinate transformation      ...        0 min,  0.001 sec (  0.001%)
 Rational function              ...        0 min,  0.000 sec (  0.000%)
 singlepoint calculation        ...        2 min, 56.698 sec ( 94.343%)
 optimization log               ...        0 min,  0.079 sec (  0.042%)
 hessian update                 ...        0 min,  0.000 sec (  0.000%)

================
 final structure:
================
$coord
      -10.01248709402200      -12.88014577553800       -7.07394095279200      o
      -10.62836739224200      -11.82847557395000       -8.42798644560000      h
       -8.25705846732700      -13.21965231385800       -7.44461118529500      h
        7.83291361934200       -6.05641752727600        3.40409458240900      o
        7.96963886997000       -5.29369094053700        1.72666651284300      h
        9.01771674221200       -5.19879785310500        4.53264350021400      h
        3.34081986516200        4.22289352305100       -3.91954296505500      o
        3.02170984841600        4.56771175390300       -2.14523898589300      h
        5.08097384853600        3.67254596257600       -4.10918332318400      h
        5.47139749637000       -0.14915373952400       -0.59895446603300      o
        6.39247051923600        0.67000323464400       -1.95218924335500      h
        3.70544494466800       -0.09567454183500       -1.08080376469700      h
        4.01476687981600       -1.06711757190800       -5.37385779804700      o
        5.13787736211500       -2.44995646222600       -5.81738854594800      h
        4.25912689124200        0.16025618674500       -6.70685691293700      h
       -4.22604925975100       -8.47631541215500        0.69654149651100      o
       -2.54138935051700       -9.15657203486000        0.55540985926000      h
       -4.13491726364100       -6.76972259049800       -0.01336915101000      h
        7.77148072916100       -0.42358162650500        3.96383415738600      o
        8.27468710087800        1.02220582645600        4.95918833417000      h
        6.91224180853900        0.15145967553500        2.44459713896200      h
        1.83832245777200       -4.93127210757300        0.19930866454800      o
        1.19391377494200       -3.30446034245700       -0.32214631804100      h
        2.57208860618800       -5.69806380247700       -1.29670328161900      h
        5.79287391884500       -9.90643720574800        0.86894652275900      o
        6.15887812601800       -8.32691665907900        1.72239233333600      h
        6.82715285346900      -11.12333577750500        1.77865799675500      h
       -1.09249011531600        4.89119955475800        4.65636104280100      o
       -1.35876133131600        3.22561581312100        5.40048119150100      h
       -2.69730102215700        5.50961733692000        4.01867894871400      h
       -1.09096460664200        6.70144113165400        9.30428149558100      o
       -0.71175983129000        6.30944652667000        7.53683220855000      h
       -1.64773837126000        8.45932752136800        9.40963764013600      h
       -2.30987223241600        0.52586784209100        6.90787760362200      o
       -2.28333286468100        0.14782599993100        8.70450086479500      h
       -2.01906423189800       -1.03419973110700        5.97221135655000      h
        1.46887764168100       -6.42613602425000       -8.72296896374600      o
        1.38950786868700       -4.67461281102700       -9.31043206278400      h
        2.29168537419800       -6.38797327572200       -7.07192799497800      h
       -6.66443941166300        2.26470353147800        5.31395366951300      o
       -7.35925668952600        0.71757668517400        4.57430860275400      h
       -5.11165224975800        1.72568530703700        6.17465441939100      h
       10.96657507580700        2.49727429803000        0.03816366145400      o
        9.31882012654900        3.22203470496800        0.39815373888100      h
       12.16983154793900        3.88290271751300        0.12695762739300      h
        1.46053505398200       -1.51666207935700      -10.06210285528900      o
        0.48939983607800       -0.88569921560900      -11.50346515154500      h
        3.21099801680800       -1.31790200376300      -10.52011884429800      h
       -3.82575737060200       -1.80517156746300       -8.42781856083500      o
       -4.96364588266700       -0.36767389267600       -8.46273227330300      h
       -4.78900972256400       -3.14110636708000       -7.58538769674300      h
      -13.75991780410200       -1.87767293156200       -0.22836054425300      o
      -15.18291365184500       -2.25537993110300        0.83634454795000      h
      -12.52910802062800       -3.23864659792800       -0.05170442622600      h
       -9.49041213335600       -4.75772382377100       -0.04616221849700      o
       -9.66251535430700       -6.42189764522400        0.72841936802000      h
       -8.54092905333800       -3.75087518254300        1.18732958101800      h
      -13.09533941216600        2.38159596011400        5.99248730283700      o
      -12.07407918945700        1.71238254436700        4.58881945305100      h
      -11.92673806958400        3.46625072645800        6.94769243806900      h
       -4.40759432595400        4.60278017615500       -5.35628949059500      o
       -5.81750522499800        3.68547459446800       -6.10124577802200      h
       -2.90092278719600        3.82564623279500       -6.07755283399700      h
        8.13057555269900        2.19782280156900       -4.38064354730600      o
        8.87978858124000        2.01394737937200       -6.05381958363100      h
        9.04280452659700        3.57888046701000       -3.56096459662700      h
       -3.68847547530700       -3.98236234603100       -1.19754380753200      o
       -2.24495294941400       -3.61211222965200       -2.28660283814900      h
       -4.76850384708500       -2.40886654294300       -1.13330767728000      h
       -5.62835317640100       -5.59748639274500       -5.55328632092000      o
       -7.38918989206000       -6.13399429238500       -5.39822996985900      h
       -5.03531876369700       -5.22529907407600       -3.84600214604800      h
       -2.19528967835800       -3.50806686137600        3.78780471046700      o
       -1.25792753566200       -4.99199512239100        4.36398328548700      h
       -2.17667952776400       -3.55999712969500        1.95490162048900      h
      -10.02201728112800       -2.10318071188500       -4.25600523045900      o
      -10.76759478289000       -0.62201872223300       -3.46594618805000      h
       -9.56835699818200       -3.22796374659000       -2.86590063904100      h
        6.47726302524800       -2.58274464968500      -12.38115800081800      o
        8.28411908554000       -2.26457647858900      -12.51174937335700      h
        6.19206024593700       -4.30157165143500      -13.05481706262300      h
        9.23693554878000       -9.57943533250100       -2.85010459935500      o
        7.76404264593700       -9.67955870042500       -1.73825857653100      h
        8.66407658806000       -9.60008372865500       -4.59756944960200      h
      -13.69199450086000       -7.98397108655000       -1.56303250389100      o
      -13.63417931375200       -9.78999868947500       -1.89191685863400      h
      -12.45071568910600       -7.25977151644800       -2.71113423638000      h
        8.80909115274500        7.36043777863800        4.60243645182300      o
        9.27745092806900        8.62492691995100        3.33117078009000      h
       10.34853418455700        6.42366019375100        4.97589979017600      h
      -19.70269486580000       -5.04749078031100       -8.69706093001800      o
      -20.99911918021600       -4.84059164749400       -7.40726813752400      h
      -18.55044965556500       -6.30426449069300       -8.00982999874200      h
      -10.43554260986200       -3.03582868300100       12.80622673695400      o
       -9.22718525282100       -2.31692115209200       11.56076717828000      h
      -10.77615587790000       -4.75219891818500       12.23492384328800      h
        5.35171930857300        9.06167560525900       -1.64341773945500      o
        5.42051528933800        7.39368239954200       -0.86348312208300      h
        3.66977308718800        9.76180831655500       -1.36540178502800      h
       10.36335791394400       -3.72906425117400        7.02221961370800      o
       10.83708015779100       -5.17109651404900        8.05295452907400      h
        8.99036044349300       -2.87704949774300        7.91752666488400      h
       11.66652199151600       -2.22918423025200        1.56551886356600      o
       11.82060687207200       -0.59920862207900        0.71462458950000      h
       10.23545391481900       -1.90680207498000        2.69979361376900      h
       -9.67327641025200       -8.87330373814600        2.86080038530000      o
       -8.12382972975800       -8.91202509476700        3.83548762979700      h
      -10.08967818175000      -10.60618442296600        2.39077249785800      h
       -1.50522688578900       10.16784518915300        3.56582858038900      o
       -2.54301153719300        9.99156999452300        5.05748295401100      h
        0.26101966683100       10.07960059470400        4.06351889705200      h
        3.43679478101500       -3.03657480236400        4.61019114785800      o
        5.24565838581200       -2.75135223743400        4.60906877196500      h
        2.98833777494500       -3.89686759026600        3.03824564645900      h
      -10.64015977292800        1.47272469701400        1.79624006878100      o
      -10.66918693615100        3.18282350530300        1.12467246551800      h
      -11.88092160876300        0.45387229829200        0.87263870994800      h
       11.12134776501900       -1.93666662377000       -3.65183229339800      o
       12.73129516241900       -1.15567762794600       -3.16962083631500      h
        9.95567194459600       -0.53006965699900       -3.85527942565000      h
        7.47525343606000      -14.66657520714300       -6.82390554631900      o
        9.25368821970900      -14.22480547633500       -7.14091439870300      h
        6.65168145868600      -14.67315872908100       -8.43485704034200      h
        6.87626032513200        6.48147128374300       -7.31510237344700      o
        8.52569342208700        6.46265706561200       -8.19334777745400      h
        5.95114475969700        7.83438930633600       -8.10587778053800      h
       -7.81285393234800        1.44318866819800       -7.36734594774500      o
       -9.04454936744600        1.93480852994300       -8.63396477581100      h
       -8.52354377113600       -0.00081473814700       -6.48543398652500      h
       -6.70221677023700        0.23212947869300      -14.89412681848800      o
       -8.46058494161300       -0.20346049828400      -14.68236723645300      h
       -5.76533160740900       -1.27740197830900      -14.39152936541500      h
       17.10388012591500       -0.36975677337300      -12.19597103832500      o
       18.65251692107900        0.49152187964400      -11.73762873238400      h
       16.57191107399400       -1.17490197934800      -10.61905121754500      h
       14.04502198299300        4.73873006825700       -5.43990229493200      o
       12.77753427121900        5.77636543962600       -4.57572981556300      h
       14.98483349454600        5.81284049016000       -6.59781917272900      h
        7.48737726844100       -4.55969369507700       -1.37640854106200      o
        8.99779641910500       -3.87891807010000       -2.17145783286300      h
        6.46617491859000       -3.04650730664400       -1.01098047391500      h
      -18.08554326408500       -1.48170234204700       -3.84979807144400      o
      -18.41964228338200       -3.11093544023400       -3.01548508131300      h
      -17.60964413984800       -0.35891024720100       -2.45960084074700      h
       -7.66228950371000       11.22770859182400        1.74424583229400      o
       -6.44137545706300       12.52278739169600        2.21323519041600      h
       -7.66957800529800       11.21736283773800       -0.08376774164500      h
       -3.41664483145000        9.32700587039600       -6.42902763149700      o
       -3.98406299809600        7.56318967825600       -6.30847077177900      h
       -1.58778716946400        9.22258641272700       -6.16736868681800      h
        7.64665658724600       -9.31109440228000       -7.74367350365700      o
        8.96745019580000       -9.03717715156500       -8.99939177488500      h
        6.98311314908000       -7.60883582072300       -7.43187694989000      h
       -0.07818346805000        2.71521830019700       -7.33750796585600      o
        0.29946608117700        1.11738518129100       -8.16949542162900      h
        1.23783555287300        3.00660065646100       -6.08092306026200      h
        9.98829516143600       13.03380185573400        5.81234774657600      o
        8.63112673435700       13.17355351834300        4.56446759276800      h
        9.24524662756700       12.17969761550200        7.24670309321300      h
        9.09314866251100        2.98676003311300        7.75672768629600      o
        8.34997193416800        1.53779455356800        8.64421822585500      h
       10.50213597273600        3.49518675953700        8.80117682872500      h
        6.32965019755400        5.25574831012200       12.02418802349900      o
        4.70358798599900        5.68462471781200       12.75232630725700      h
        6.86936112447500        6.73932785755000       11.08688187527200      h
       15.36036471389600       -2.04467046769900       -7.77727936911000      o
       16.09815376250300       -2.69991309112600       -6.21615789461600      h
       14.22886175853400       -0.69532516287600       -7.30056761320400      h
       -9.57334504755600        5.21820399085200        7.95596916371700      o
       -9.64236545028400        4.92484553134400        9.76588687635600      h
       -8.29807683553900        4.04740361065400        7.27806009464600      h
       -7.41387190012700       -1.02391025324900        9.47525237875900      o
       -6.14385591512400       -2.31332313958500        9.14260579337800      h
       -6.54986785656700        0.53897040322600        9.87231676225100      h
      -14.32118807618500       -3.82451217593900       -6.18504805875400      o
      -12.73225314311500       -3.28944319716200       -5.39859940769200      h
      -15.64447303310000       -2.76832096205300       -5.42866530942800      h
      -23.34300580111900        2.40186666789100       -0.18906070094500      o
      -23.59090338594700        1.51362774451000        1.39098311688600      h
      -23.45156863788900        4.18063270009000        0.16210152624500      h
        9.87673787683200      -11.99409294666200        3.12842075092200      o
       11.03750208257200      -10.72950720104600        3.78617740452400      h
       10.69261697847700      -12.70051430384600        1.60741390701500      h
      -11.80758233885600        2.83567692383500      -10.54287577625700      o
      -11.68273641766100        1.35534237109900      -11.66347989008400      h
      -13.00530431882100        2.36555656756700       -9.19616142594600      h
       -4.94517246130300        3.70460689353900      -11.65651604171400      o
       -6.23325767532000        4.84850158224900      -10.99386660738200      h
       -5.80784584262000        2.62068103285500      -12.88543537830800      h
        2.21410998197500       -5.66615382074400       13.08728300815500      o
        2.45910228039700       -7.49587370987900       12.82992792037200      h
        0.58010926414300       -5.47485356778200       13.89397322609800      h
      -13.61063200561600        0.40654057243500       11.04586581044700      o
      -12.61528143348400       -0.98464813680800       11.78818448245500      h
      -13.47316435460600        0.20204354775200        9.21933723909500      h
      -18.15307682646800        1.80082038786000       -0.05244722420600      o
      -19.95139821560000        2.11668206925600       -0.27930663536100      h
      -17.25430191274700        3.29587253220200       -0.66445155542000      h
        9.65923372557600       10.12467646795700        0.58901740656800      o
        7.91278675277900       10.17875234944900       -0.01612978286300      h
       10.35095768419800       11.81008084209800        0.35632722445400      h
       -5.29338090529400       -8.56908362464400        5.44001742346200      o
       -4.78169993812700       -7.10010063433200        6.45102530558500      h
       -4.67660106275200       -8.26843485035600        3.70417931620900      h
      -15.25533985096000        1.93794798344100       -7.06881271239800      o
      -16.65492177989700        0.97737494710200       -7.82157370689000      h
      -15.87171494406200        3.67448835915600       -6.90305948993300      h
       -3.86319692176500       -3.67596836530700      -13.15602385465300      o
       -2.17679205433000       -4.10510593180100      -13.73070151842900      h
       -3.68517364276000       -3.01160877963700      -11.42515041746100      h
        1.00710405186300       -4.42306277578900      -14.83220352495900      o
        1.74277024810200       -2.84363005054300      -15.39608189985300      h
        2.34733811464200       -5.64590912088700      -14.81913858070900      h
       -0.34872857650800       -3.42532599889100       -4.87797821773400      o
       -1.32158183365600       -2.82197421654100       -6.30913301263200      h
        1.28579012200900       -2.54692186999900       -4.96455687986300      h
        1.41902910548300        6.02217526051700        0.48310241789300      o
        0.76671733645500        5.20298193954900        2.00625115448100      h
       -0.02837229929300        6.92738774375900       -0.20681265479900      h
        0.72202532588000       -3.42664018574800        8.82067018733900      o
        1.82136527314100       -3.63278947587400        7.35524880358600      h
        1.48157125005700       -4.32390482897900       10.24673006735000      h
      -12.00426265085500        2.49652072180900       -3.41705752624400      o
      -13.19073257966500        1.97241479915400       -4.72742572555000      h
      -13.03032651403000        3.54547855155400       -2.30938789754500      h
       -1.00139224614500       -8.61325173118700       -3.92259867780400      o
       -0.72985219754200       -6.84668238295000       -4.34482958923800      h
       -0.03656226875700       -8.92554988133800       -2.38954557797900      h
       -5.58969428353700        9.56048849585900        6.75715002266000      o
       -5.95221954000800        8.79287142705300        8.38662146272100      h
       -6.52411086466600       11.14925318880900        6.72998121385600      h
       -5.09356360740100        3.78878320565000       10.41906016539700      o
       -3.46305171503400        4.51367551111300        9.97276479000600      h
       -6.02624321649800        5.17704455705400       11.13322160782200      h
      -10.45084032371300       -5.11526105864800        6.34695916978700      o
      -10.92927360068300       -6.33282154584600        5.04882053435200      h
      -11.86261586335000       -3.90807292664100        6.43046227874600      h
      -20.26298962412000        5.69252900644300       -3.84998743124400      o
      -19.12748468405500        6.25528354449700       -5.17329302491200      h
      -21.07306872956000        4.17322480542700       -4.48366706951800      h
       -5.86833380916600       11.27974842361900      -10.39198693704300      o
       -4.95045336528600       10.66383722819100       -8.90417721861300      h
       -6.89444974959800        9.85371248719200      -10.89085497948300      h
      -23.16876744779200       -4.36227107056700       -4.90047666069400      o
      -23.01475380744800       -4.24839111019200       -3.06553008494700      h
      -23.58145873766400       -2.66021282585000       -5.41168490252200      h
      -14.31163655086000       -7.08832688124200        3.42090606331000      o
      -15.77485766603000       -5.97248175063300        3.39126894719600      h
      -13.88527941601300       -7.44027612789000        1.66614559798000      h
        4.65773734683900       10.66311769632700       -9.60015327718400      o
        3.17203865714100       11.49741061322200      -10.24660418155500      h
        5.39303636894800       11.67778295972100       -8.23533336164100      h
        3.44559252017000        9.04964729474600        3.99989018575700      o
        2.95833684104300        8.01891653356400        2.54559052726500      h
        3.89635415985200        7.84462733716100        5.31746729385200      h
        5.27446147893800        2.19331074430500       -9.38992716315900      o
        4.21812723604200        2.89999974791100      -10.73663691217600      h
        5.77903014577800        3.66610424624100       -8.38536657395300      h
        3.03170421438700        4.45082429940400      -13.28301481700100      o
        1.53207578194100        5.26931159645800      -12.56175966234800      h
        2.44358539253900        3.02991122993500      -14.27921605210300      h
       18.41896794544800       -8.07025629086900       -6.83287814219400      o
       19.96689082180100       -7.36172816930900       -7.46897538038600      h
       17.77583241124200       -6.71920556809300       -5.69687885435600      h
       20.18341923025900        2.64531082495900       -9.18357067932200      o
       19.82697343608500        1.65631684815800       -7.64833464253500      h
       19.02359171915300        4.04710211243800       -9.18829080372800      h
       -2.01945229940500       11.59734008600400       10.26066579750600      o
       -0.19445303186300       11.76428025554200       10.20637305748900      h
       -2.63895229681600       12.92958922800300        9.14496974340900      h
       15.26636849984800        0.65771929296400       -2.79802641538300      o
       14.90791011333300        2.26781565405900       -3.63083713839100      h
       15.58607757313700        1.09527859946200       -1.04534655249500      h
       15.49024802955400       -4.50650714752900        3.73216675637200      o
       16.75600332410400       -4.39719426964800        2.40033092975300      h
       14.03440669294800       -3.52505592114800        3.11400197714500      h
        6.40420283781700        4.71697061510200        1.06903240078800      o
        7.06727177940300        5.66506706165000        2.51307721764200      h
        5.04886382098100        3.65638189592700        1.71974432896100      h
       -8.87798364162500       -3.48244478702700       -9.33028110958500      o
       -9.67342475260600       -3.93665832655000       -7.76137826708600      h
       -8.20402251393000       -5.01732100903200      -10.09941344985200      h
      -17.87837754951900       -3.47856588830000        2.98917660804200      o
      -18.54586387366700       -4.26174498673700        1.45232993987700      h
      -19.16058349389400       -3.67155636865400        4.29812979321900      h
       -7.14791265822700       -2.46475056524500        3.74603448114900      o
       -8.15446831691100       -3.34344072967200        5.02293908434400      h
       -5.39527499556600       -2.98360448463000        3.97264952484900      h
        6.22471136628200       15.62760439365800       -1.61382846458700      o
        4.56676486797600       16.37656897293700       -1.44902999460000      h
        6.34789934284000       14.59379716203200       -0.08634611547700      h
       -6.10353087810300        1.85634458555500       15.20583593936000      o
       -5.28811181002000        3.35578316725100       15.80283310265400      h
       -7.60411405149900        2.41012746182600       14.28491871249300      h
       13.40452924999100        5.23662695880000        5.29346651025800      o
       13.05853483386600        3.42123236115600        5.41289157965700      h
       13.89104315347900        5.60709630587700        3.53656638401300      h
        2.78747219410000        1.83305348873100        3.50208078895900      o
        3.11390034843900        2.96233178973000        4.92197867194800      h
        2.93425271864500        0.10706343806200        4.14660486185700      h
       19.79411196637600        0.07763203694700       -4.86898937947600      o
       18.15764950217200        0.27486443351700       -4.00192609202400      h
       21.06517318280100        0.84034832827100       -3.77090311193600      h
       16.55525430684600        7.07052207515500       -9.18733703731000      o
       15.76052243987200        6.00598830002600      -10.51519700789900      h
       15.86371251383700        8.72644090866600       -9.44307614711200      h
       11.94354192544100       -5.66248476380100       -6.80009633142600      o
       11.73379806985700       -4.51433674417500       -5.36126976355700      h
       13.25685557179800       -4.86341313343700       -7.79910409944700      h
      -22.24976377631900        0.94274432276200       -5.12414556211300      o
      -23.13294079360100        1.18496315450100       -3.54391266378300      h
      -20.69674602533000       -0.00091840416600       -4.66289164730900      h
      -20.75586121784600        7.06810721855300        1.05381192268200      o
      -20.57744631165700        6.69739099465500       -0.74057838842100      h
      -19.50103129904000        8.33978904781400        1.44310495617300      h
      -11.94561607409200       14.29685365486000        3.63497640034600      o
      -13.39333385168500       13.60587724839100        4.49854900265400      h
      -11.67075301591800       13.26833258840300        2.14156343982000      h
      -10.05184529565800        6.40544153144400        0.23480988487700      o
       -8.48766381212200        6.66439081225800        1.19491772700100      h
       -9.58573398222000        6.35022976025100       -1.53399613354500      h
       11.40747892927200        1.59536339751300       -8.20471743041300      o
       10.85905235723800        2.45244653445600       -9.73290918264300      h
       12.46117170983500        2.84010314710000       -7.29539374367700      h
      -15.89140186692800       11.86960594395200        6.74363473101600      o
      -17.06366391688900       10.49934403417100        7.15815847396800      h
      -14.54548044808300       11.68132034982000        7.96840961231000      h
        0.26841573256600       13.80551994959100       -6.16231064180600      o
        1.37266949037100       15.18040434636200       -6.55437366942000      h
       -0.13796046980600       12.93685873085300       -7.75451973994500      h
       11.55954915560800       -2.44644953054100      -11.62208227144900      o
       11.53106009676200       -1.21367869908100      -10.25731209614000      h
       13.04047761954100       -2.06783063032600      -12.59854019634200      h
      -11.36672030313600       -1.41411617007100      -13.05344341648400      o
      -10.31679115954500       -2.15229494290800      -11.69094371477700      h
      -12.87920672366000       -2.44014479514900      -13.00979723221700      h
       -2.51869254774900       -0.48440435384500       12.15069594676100      o
       -3.92965553432900        0.36950740853800       12.96285233269500      h
       -2.53849193406400       -2.22796167318300       12.74922691859400      h
      -10.23535981289100       -7.43080020086300       -5.28470530536400      o
       -9.53166840124600       -8.82475013117500       -4.24736368150100      h
      -10.77704120449200       -8.13260617132300       -6.89290902844200      h
       -8.23103637030800      -10.58863937010400       -2.08763862377600      o
       -7.36644915032800       -9.60283848024800       -0.81150091162300      h
       -6.95027925916500      -11.78219995299900       -2.64679393026100      h
      -15.26033162252700        5.72636184347800       -1.25459515720700      o
      -16.14345047914600        7.05951916887000       -2.10026948172300      h
      -15.09063823396300        6.16180305990500        0.55778765871400      h
      -13.12246811550400      -12.92313450033700       -2.96006305316300      o
      -14.46598793323100      -13.87761605496800       -3.70250290025700      h
      -11.75154314850900      -12.87763839700900       -4.19879858726400      h
       20.23004379987900        1.50247638211100        5.49974029874200      o
       19.94889256276800       -0.20467128765100        6.16696797269800      h
       19.49357053929300        2.68395613314900        6.70298032269900      h
       -0.97480502525800        1.03809942910200      -13.64399927105700      o
       -1.85355122856200        0.20353722625900      -14.98848047344300      h
       -2.24765637132600        1.95425461933100      -12.69690354400300      h
       10.06191328440700        6.75820233904200       -3.24515461662100      o
        8.69802691748300        7.24985893876100       -4.36041428764300      h
       10.08783558197500        7.91925809642700       -1.81685524714300      h
      -22.87938245759100       -3.64909623535200        0.20152935086400      o
      -22.48306460920100       -5.22483711129200        1.04854968295500      h
      -22.87674622601900       -2.36001514350800        1.49058497260400      h
        4.48468187200600        5.10739673016200        6.96763846485000      o
        3.55009379333500        4.30205244344800        8.31762337935700      h
        6.24526593829800        4.62982926893000        7.24310736255000      h
        1.36087249705300        1.69711256885800       14.52294153078300      o
        1.18068404224300        3.50983373321800       14.59080620754600      h
       -0.20794282524500        0.97103383996500       13.84107743821000      h
       -2.78685944479200       -5.14722130047700       14.32719339451600      o
       -4.23282535761300       -4.58704368532400       15.35676953975700      h
       -3.24059158494500       -6.78995441565300       13.66593817447900      h
        7.63172725846200       -5.87894846766500       11.46837982097000      o
        6.80334841485800       -6.59676689829800       12.90412846084900      h
        6.50336017443400       -6.14044286748100       10.03706501314900      h
        1.49364435860300        8.55662604077100       -5.80426705108200      o
        2.45037107849300        9.01440818280800       -7.27916674726300      h
        2.24409075287900        7.01554318263800       -5.12178676215200      h
        9.22507231848900        1.56702294936100       13.99161119527300      o
        8.16875673455800        2.92475180566100       13.30445164178100      h
        8.01896509857600        0.37825357045800       14.67713693158300      h
       -1.21100685354500      -14.73299799314900        0.61155996102300      o
       -2.32572189798900      -14.38966129005600       -0.81646516329900      h
       -2.23354322160400      -14.54201854384300        2.13493067861600      h
       -2.97816911085700        7.98045130265000       -1.21428297259000      o
       -3.67613709799200        6.85453220779000       -2.47129910854400      h
       -4.01966440300200        7.91333880031100        0.29110680927600      h
       -3.61022144848000       15.43310211402500        7.15807988612400      o
       -5.37957126105500       15.37972642286300        7.60361402736800      h
       -3.62862748221600       15.24496580125200        5.32381070985600      h
       23.95760830803700        4.91150358804200       -6.44692087411300      o
       22.97902760598600        3.97496918442800       -7.69834771244700      h
       24.21368028418300        3.78116072599200       -5.03397994955400      h
       18.84968154924100       -2.73071177737300        0.30647809828400      o
       20.64581116316300       -2.49475758897900        0.55617223310000      h
       18.01291526756100       -1.15977278464300        0.82298244127100      h
      -14.90625622253700        5.98127814279100       10.68247617745300      o
      -16.34241233192800        6.46500373372100        9.63808157270400      h
      -14.96024357962800        4.16408009671500       10.74839613535200      h
        3.68056903541200      -10.41003654484300      -10.63393304844600      o
        2.72815562974100       -8.88809920460300      -10.14631938020200      h
        5.17564009704400      -10.35190797371000       -9.53373371221600      h
      -11.79543579518100       10.08233960355700        9.88333197915600      o
      -11.39825676825200        9.73402811715700        8.10404234584800      h
      -12.84206196445400        8.65497191451500       10.39053286114400      h
        0.78708151140100      -10.13893759342600        0.66661489705700      o
        2.64020169460800      -10.10744728600000        0.65755108619000      h
        0.27678690520500      -11.92401224194700        0.72881317538100      h
      -13.11658512045700       10.05802430304700       -5.49735612392000      o
      -13.08456162685400       10.57772828371300       -3.71299362504700      h
      -12.12826252964800       11.34151786265300       -6.40726940401800      h
      -18.04469364934500        1.80655120705700        4.97061239970900      o
      -17.88717705594500        1.86526729379900        3.12210939430800      h
      -16.34337807391800        1.56286783506200        5.60406747636900      h
       14.45179500740500       11.06649261402500        4.96526730891600      o
       12.69991257995500       11.72084724332300        5.05116460314300      h
       15.07750422306500       11.27441665010300        6.65392970797700      h
      -14.77966386613100       -4.73794669672700      -11.08505958173600      o
      -16.57260989824100       -4.91759529084800      -11.29305265214900      h
      -14.55062928932400       -4.16771168266000       -9.32201991861900      h
       11.72508637635000       14.50638598623800       -0.80415589381100      o
       10.55763488589800       15.88824089701100       -0.90280298609200      h
       13.22678820533600       15.00994943376800        0.17182458445000      h
       11.71745905653600       11.09694475665900       -7.12187276244600      o
       10.06661176729300       11.64329361375100       -6.52122320600100      h
       12.70016676340200       10.72748214180600       -5.60566185043600      h
       11.80467071034000      -13.59219992144000       -1.19149657602400      o
       10.68119218539400      -15.02666651454400       -1.53150309444500      h
       11.05853653386400      -12.14295692014400       -2.08801547594800      h
        0.24004386696400       -7.74074489217500        5.14254470855400      o
        1.92148997294400       -7.43069973717300        5.85797438725900      h
        0.51216203356900       -8.50773630560000        3.48267779817300      h
       -8.10657749371200      -11.05767663107800        9.05186008484200      o
       -7.34312742444800      -10.03640267969900        7.73059768460200      h
       -8.37551422806800      -12.71597790880100        8.26095123229600      h
      -14.61031353085700       -2.46475634402700        6.84752165956600      o
      -15.62827176681800       -2.39634601399900        5.33570449266800      h
      -15.36425193044000       -3.78312703478600        7.89317392814600      h
       12.86550227819700       -6.55788383272600       -0.94842841602800      o
       11.44675091820800       -7.51587752089000       -1.64437660813300      h
       12.20165444108500       -5.10831082934300       -0.03044622439000      h
       19.04238152448200       -3.22707855114600        6.97299088664500      o
       20.21081640771900       -4.44633076504500        6.27912512416000      h
       17.50221200491500       -3.54435200938200        5.97051922166900      h
       11.84896517114100       -8.26569581240100        9.17622702910600      o
       12.71073477855000       -8.82319871454800        7.64394681396600      h
       13.09275906243600       -7.99277085394800       10.45841768219600      h
      -21.20293325888600       -7.96063181248600        2.55794748001800      o
      -20.51651309071700       -8.51923074850200        4.18166768447300      h
      -21.29432630041600       -9.41586261114100        1.48824210964800      h
       -7.08581750206000        8.66312042339100       11.60496469765200      o
       -8.77921613090500        9.30489883163200       11.22661257420600      h
       -6.01998267726000       10.06042222581500       12.05433170862300      h
      -11.41322682006400       -7.50210056418500       10.54201047584700      o
      -10.38738818916700       -9.02261961747900       10.49167576796500      h
      -10.93865546811300       -6.59998699339400        8.96089870074900      h
       -3.66657508676800      -13.48403646993400        4.94909621834500      o
       -4.31451975600800      -11.76164769362900        4.90830628568600      h
       -2.36834229705900      -13.41650027346200        6.25181736777600      h
      -18.19959386633500       -5.80072992101000       -1.45662933475300      o
      -19.37630292579100       -7.10294496063600       -2.00709655380900      h
      -16.51351871922800       -6.55031761568900       -1.58949789433500      h
       10.61856067908100       -7.69862170570200      -11.64215594222600      o
       12.23411748362000       -8.57918118968300      -11.49770915515200      h
       11.01858820350700       -5.91545079658200      -11.51300747466000      h
       12.86465573180500        8.42281887623100        9.57096070095700      o
       13.04474608149300        7.84655068133500        7.84246288682200      h
       12.96563152883800        6.89918717576800       10.58068763914800      h
        7.90138045217600        9.36022470315500        9.11701340530000      o
        9.66106572285400        9.22356853183800        9.66717591398400      h
        7.88719465099500        8.52806981275000        7.45245118715000      h
      -19.11953518505300       -9.44826619760600        6.97429321774000      o
      -17.87501720255300      -10.65141403014900        6.35859928315900      h
      -18.14170131025700       -8.32038611579800        8.05083300707200      h
       13.11191683387900        3.58189097449100       11.26832374070600      o
       11.92145818737600        2.98279682539600       12.52615993438600      h
       14.30348516128600        2.21529941479300       11.03229021235700      h
        4.23972085270600      -12.09762581502500       -3.79776487523300      o
        5.63065796005700      -12.80488565740700       -4.77225037258800      h
        2.72834448687400      -12.46826356673000       -4.81820736665800      h
      -14.87086943928800        6.42634225552300        3.60460990273800      o
      -13.48331183562200        7.59490660426300        3.98944401446900      h
      -14.35408557956600        4.81778936381400        4.39044871429300      h
      -14.69803047716000      -11.62260987367400        5.33857891002300      o
      -13.58111430506300      -11.74340984795900        6.76037881276300      h
      -14.47875166895900       -9.88631787635800        4.64765346984100      h
       -0.02631559149000      -11.75204422314000        8.10139859071000      o
        1.38388775303800      -12.55250500276600        7.20848211164600      h
       -0.20832896995600      -10.14304270822200        7.17072358324700      h
        3.82156563511400      -13.19325658287000        5.15972960705100      o
        5.26866044584000      -13.98320187983900        5.94490529260500      h
        3.78746473761900      -13.83817802204900        3.43750482475400      h
       13.89717457775900       -9.94871585770700       -4.93399196688800      o
       15.63104447175200       -9.73117224122600       -5.42226384935700      h
       12.99720385641700       -8.46103150634300       -5.57755808497900      h
       13.40190343080900        0.23108670334800        6.01775084836400      o
       12.15292668717500       -1.11855639393900        6.18338366221600      h
       14.45179879365900        0.06295381532500        7.52504912626100      h
       -6.85829560230900       -3.18716670194800       16.50426292259800      o
       -6.48564141323800       -1.39954067376200       16.52745906881900      h
       -8.29749976935900       -3.33217018263400       15.35740287800700      h
       -0.47554508615900       11.53212846069800      -10.63992979724800      o
       -2.16566601161200       12.01917129961300      -11.12990533077700      h
       -0.54671725822100        9.67833801947600      -10.56889798873800      h
       20.86582194367200       -6.85431141976900        3.52718381303800      o
       19.69621443257000       -8.23714590286800        3.54231867011800      h
       21.42678851789700       -6.71080417684600        1.78718203650700      h
        3.00575296791900       11.59485013093700        9.16233489795100      o
        4.66698502104900       10.84205938516700        9.20471098701400      h
        2.91369364057700       12.61350404134900        7.65282075367300      h
       -9.62391662578200        6.58269798762700       -4.95799477437900      o
      -10.32573543901000        4.87651216361800       -4.70545967942800      h
      -11.09012020735700        7.70381424647800       -5.24816274229200      h
        8.21924107585400      -17.02694393236000       -2.11752729605200      o
        6.76329183514000      -16.60398914269300       -1.07902818046300      h
        7.76464640128300      -16.57437599888600       -3.82885394054900      h
      -12.68202729610900       10.79386814127300       -0.49762561244600      o
      -11.80441233132400        9.23715312445600       -0.01547357590500      h
      -14.34085978335500       10.73217413820800        0.28295481612300      h
       -8.44147980905300      -15.11831090228600        6.11795291430300      o
       -6.68201759123200      -14.99906583155100        5.60211960582000      h
       -9.42363784339500      -14.85096163164700        4.59739021911100      h
      -18.40559576010500       -1.70504982905000       11.21881202340400      o
      -16.69081354081600       -1.02576286309100       11.20553073595800      h
      -19.43768068321800       -0.19551206848900       11.06913397280100      h
       -8.54061943156800       13.74380818196900        7.33141868397700      o
       -9.59836449963900       14.08652409402500        5.83704688425200      h
       -9.69358271309700       13.29885603946800        8.66004299277700      h
      -10.30307001306100        3.80291005531900       12.84936963145400      o
      -11.34846350710500        5.07635767247400       13.59951286304300      h
      -11.46938053366100        2.48463774520500       12.24237900547700      h
      -16.64647755706700        6.79936439861400       -7.27609200724200      o
      -15.42627429606500        8.12167636814200       -6.90108173469100      h
      -16.75754397363900        6.59379693243100       -9.10726717697600      h
      -20.19833391140000        2.78682032916500        9.66541092525400      o
      -19.41160695586200        2.60770837601800        8.01548141940200      h
      -21.63060316405100        3.86599179753100        9.41665072739500      h
       -3.69436129568400       14.35321056010600        2.20777643525300      o
       -3.55687271766000       14.81034559931800        0.43649672210000      h
       -2.65331072521900       12.82441556105400        2.47237454780300      h
       20.15882198887400        7.87820080175000       -5.16028927641400      o
       19.09745181359500        7.84934029667100       -6.64166499274700      h
       21.74724816784500        7.01733446671500       -5.63573330513100      h
      -11.68858654413800       -8.77200774103600      -10.09214640648000      o
      -12.80758100830000       -7.41706831676800      -10.66717572482200      h
      -10.11858017935200       -8.51137030737100      -11.00887420408100      h
      -17.28044166070200       11.04247620617700        1.84154493562300      o
      -16.72898154334900       11.22344540201900        3.59674479530700      h
      -18.17134211965200       12.56138902983100        1.42772466696700      h
      -20.85081134495500       -9.33851133758100       -3.90853842302300      o
      -22.06934286216300       -8.19995696886100       -4.63996220491400      h
      -19.40461898343900       -9.37170725703500       -5.03169454711600      h
      -20.82211916702500       -3.89651276984200        7.19664122056200      o
      -20.99694930730800       -5.67675837544500        7.49594060428800      h
      -19.89903759526600       -3.18586543514700        8.63813447350300      h
      -22.80603521814200        5.32898058223400        5.47830953015600      o
      -22.22753746561200        5.98018959960600        3.86012894129300      h
      -23.03064308999200        3.52987812061300        5.24764029089200      h
      -16.30398222081600       -8.43351460548400       -6.60429791295300      o
      -15.39635841986100       -6.88806047599200       -6.09906956980700      h
      -15.17209348035900       -9.33135204354800       -7.69830201528300      h
      -16.63614077785600        4.70452981672000      -11.91010866264400      o
      -17.61185547315500        3.18771319557500      -11.65328534544400      h
      -14.87560167116800        4.19174828827700      -11.93052683518600      h
        6.78601668786800       -1.07060320770400        9.53126137770900      o
        5.15211003095600       -0.23633925652800        9.22779812080400      h
        6.68764180324000       -1.61095033014100       11.28474065590000      h
       11.85419134525900       -2.88841455394400       12.41652322871900      o
       10.48175414510400       -4.05458530323100       12.06132345936400      h
       11.03980543230400       -1.37073477760600       13.03304082870100      h
        3.84850066100700       -0.08558106918700      -15.91209963784200      o
        4.91922766673700        0.35480465335900      -17.29800441708300      h
        4.94534192814700       -0.75753190547200      -14.57629324434700      h
        7.08703089773700       -4.32136718025300       -7.63307783161400      o
        6.77523659614500       -3.60919771495800       -9.29905281134000      h
        8.90604901994500       -4.53059963857900       -7.46869182549500      h
       -3.22764736205800       -8.54393994462300       -8.72436663680500      o
       -4.01408660852100       -7.55762703635500       -7.35327956004800      h
       -1.54731115430000       -7.81184164376200       -8.92681614210000      h
       17.67953282365200        5.21801847683300        7.92683526272500      o
       16.04351979731700        5.16671330907200        7.02364744490300      h
       17.27380199103800        5.34067182365300        9.68580693905900      h
       16.60953015819300       -4.69783665685100       -3.69020797227800      o
       17.66419188515400       -3.95654824699000       -2.36759937038900      h
       15.14429256975300       -5.40707185168900       -2.79610353986100      h
        5.23789120643600       -1.73019783994500       14.47216204320600      o
        3.95313849370600       -0.45360360137200       14.75806368399100      h
        4.29635086794900       -3.27482321424800       14.14735722959800      h
        7.45661064933100      -11.10813453019500        9.62815281159300      o
        8.95175929479700      -10.04142978630600        9.68840981205400      h
        7.94991840843700      -12.69083531159300        8.87060917035600      h
        1.61707640876300       15.13822730175500        5.17378793809100      o
        1.23516151449900       15.67076303656700        3.45285403099100      h
        0.15698202847900       15.56955369340700        6.16653599344000      h
       15.89220816650400       -0.70910006034700       10.30603770010800      o
       14.58687178451300       -1.76856218689400       11.08761269579100      h
       17.21440792353800       -1.80733128158200        9.69205003385800      h
        1.59638424920200        6.80982270610000       13.46211520408100      o
        0.68679736994000        6.67380271215700       11.83686381629500      h
        1.71593894529800        8.58336974721900       13.79656001941600      h
        2.95358502838900      -10.50991662642500       12.17954715476600      o
        1.80423899451000      -11.04612169672600       10.84460461755300      h
        4.63701360032000      -10.84069187364600       11.53675597454800      h
       16.44729389637800        1.25694320217000        2.16587424693900      o
       15.12823973804200        0.70033016365800        3.33577685972400      h
       17.89098917553600        1.66946548780300        3.23702115960200      h
       18.68432839895700        8.25891124856700        3.69520959158400      o
       18.74030275677400        7.40074073345500        5.30913426948800      h
       17.02536513889500        9.04092997703600        3.66496275520200      h
       -3.83694847582800       -9.37299741357000       11.39964038118300      o
       -2.51433654424200      -10.36327844114100       10.63262945010100      h
       -5.42226160795300      -10.18382471555900       10.93147353440700      h
       22.05602017384500        4.70352249093200        1.91215786691200      o
       21.76922025069600        3.43107856486500        3.20448666879600      h
       21.24170583917400        6.21945083089900        2.53625016445300      h
       13.95247563925900       -9.18008042522500        4.69210878978400      o
       14.83253198578500      -10.05658700186800        3.32978708779000      h
       14.35630945989600       -7.39111004675400        4.39415315446500      h
        4.81600278080700       -7.39489359860200        7.27279362949200      o
        5.44571873288700       -9.03751587209200        7.80329721764700      h
        5.85703130780800       -6.88946521795000        5.84186930878300      h
       20.11263233023300      -10.77690213275600       -2.61114805859200      o
       19.57500733894000      -10.14365794025200       -4.24545921795700      h
       18.60645567271700      -10.80188096858100       -1.54228208351200      h
       15.80260314247100      -10.59123065378900        0.19751397064900      o
       14.75085260390800      -11.96138508672900       -0.41640326154600      h
       14.90799173437600       -9.06801197749900       -0.36484190741700      h
        0.49028452715400      -12.49166572142600       -7.06975807029200      o
        1.44411318128100      -11.98121550914700       -8.55440185449400      h
       -0.23549524142400      -10.95246658463700       -6.35639801604500      h
        3.98999824236600       -6.96851785222200       -4.10435323978200      o
        4.14228711641900       -8.79277962719000       -3.89642334423100      h
        5.50657172513400       -6.21008202223200       -3.37631995675700      h
      -18.35047178614600        7.49825345896400        7.12244775276200      o
      -20.03239869698900        6.84812390029800        6.78371026525200      h
      -17.29851317893000        6.94779050275100        5.69555263391300      h
       18.98530914915000       10.88910964125700       -1.08592692853100      o
       19.78916882274900       10.01649851904100       -2.48574664735200      h
       19.22476964505200        9.86090646034200        0.40369091597000      h
       -3.91940291878800      -12.87978658644600       -3.30508607474900      o
       -4.14596153602700      -13.43874332392900       -5.04133825591800      h
       -3.04210594688100      -11.26688493719500       -3.43480401633300      h
        5.89685021877200       13.18900164171800        2.87145404150600      o
        4.76680616850400       14.35818946056000        3.69259650065100      h
        5.09533643036700       11.52916601253800        3.16355812908500      h
        1.23507906424400       16.24712853855400        0.04998552262100      o
       -0.28237251370200       16.99944158031300       -0.59609636381600      h
        1.12029502288100       14.44037852155600       -0.39331643823800      h
      -19.15599534643600        0.00211807892100       -9.50794365955900      o
      -19.24600170914400       -1.83833598764200       -9.35171946901100      h
      -20.56371208354600        0.62389387820600       -8.53359827215600      h
      -16.23464167092100       -6.30361615727800        9.86183834789100      o
      -14.56037983151400       -6.93536275784000       10.34897055856100      h
      -16.90270406252900       -5.32124699708400       11.23727897925900      h
       24.04951319374500       -2.44812174657700        0.97611711017200      o
       24.00808868090800       -4.06952625024000        0.09819391351000      h
       24.41387281210800       -2.80404422669300        2.71285666999400      h
        6.88046857569000       12.21731590072500       -5.33325204998400      o
        6.76807032845700       13.68960421504100       -4.21963206563300      h
        6.31022985398100       10.83617671760900       -4.24825237142700      h
       16.08542446230600       14.65267256306500        1.61664242885300      o
       17.33649731471800       13.81784765505600        0.58711873408900      h
       15.61285161913400       13.42994115450100        2.91753245046800      h
[...]
   385   8 o      387   1 h                                       0.9693359
   388   8 o      389   1 h                                       0.9659403
   388   8 o      390   1 h                                       0.9757945
   391   8 o      392   1 h                                       0.9758674
   391   8 o      393   1 h                                       0.9670560
   394   8 o      395   1 h                                       0.9677006
   394   8 o      396   1 h                                       0.9807361
   397   8 o      398   1 h                                       0.9739299
   397   8 o      399   1 h                                       0.9626764
   400   8 o      401   1 h                                       0.9844904
   400   8 o      402   1 h                                       0.9827685
   403   8 o      404   1 h                                       0.9821826
   403   8 o      405   1 h                                       0.9743269
   406   8 o      407   1 h                                       0.9807824
   406   8 o      408   1 h                                       0.9830115
   409   8 o      410   1 h                                       0.9836247
   409   8 o      411   1 h                                       0.9831993
   412   8 o      413   1 h                                       0.9822223
   412   8 o      414   1 h                                       0.9692935
   415   8 o      416   1 h                                       0.9906575
   415   8 o      417   1 h                                       0.9593044
   418   8 o      419   1 h                                       0.9598684
   418   8 o      420   1 h                                       0.9880086
   421   8 o      422   1 h                                       0.9587017
   421   8 o      423   1 h                                       0.9845005
   424   8 o      425   1 h                                       0.9735386
   424   8 o      426   1 h                                       0.9759143
   427   8 o      428   1 h                                       0.9808358
   427   8 o      429   1 h                                       0.9844358
   430   8 o      431   1 h                                       0.9807967
   430   8 o      432   1 h                                       0.9782600
   433   8 o      434   1 h                                       0.9716696
   433   8 o      435   1 h                                       0.9825935
   436   8 o      437   1 h                                       0.9651517
   436   8 o      438   1 h                                       0.9757422
   439   8 o      440   1 h                                       0.9778977
   439   8 o      441   1 h                                       0.9735491
   442   8 o      443   1 h                                       0.9661313
   442   8 o      444   1 h                                       0.9868459
   445   8 o      446   1 h                                       0.9759468
   445   8 o      447   1 h                                       0.9562636
   448   8 o      449   1 h                                       0.9785735
   448   8 o      450   1 h                                       0.9569654
   451   8 o      452   1 h                                       0.9789963
   451   8 o      453   1 h                                       0.9598971
   454   8 o      455   1 h                                       0.9709872
   454   8 o      456   1 h                                       0.9954922
   457   8 o      458   1 h                                       0.9740483
   457   8 o      459   1 h                                       0.9738949
   460   8 o      461   1 h                                       0.9733730
   460   8 o      462   1 h                                       0.9789615
   463   8 o      464   1 h                                       0.9766545
   463   8 o      465   1 h                                       0.9694781
   466   8 o      467   1 h                                       0.9688746
   466   8 o      468   1 h                                       0.9687266
   469   8 o      470   1 h                                       0.9783121
   469   8 o      471   1 h                                       0.9848173
   472   8 o      473   1 h                                       0.9722282
   472   8 o      474   1 h                                       0.9739177
   475   8 o      476   1 h                                       0.9697464
   475   8 o      477   1 h                                       0.9675582
   478   8 o      479   1 h                                       0.9735344
   478   8 o      480   1 h                                       0.9847438
   481   8 o      482   1 h                                       0.9813287
   481   8 o      483   1 h                                       0.9860392
   484   8 o      485   1 h                                       0.9589079
   484   8 o      486   1 h                                       0.9956651
   487   8 o      488   1 h                                       0.9795800
   487   8 o      489   1 h                                       0.9883256
   490   8 o      491   1 h                                       0.9663243
   490   8 o      492   1 h                                       0.9733330
   493   8 o      494   1 h                                       0.9601381
   493   8 o      495   1 h                                       0.9810965
   496   8 o      497   1 h                                       0.9770329
   496   8 o      498   1 h                                       0.9761129
   499   8 o      500   1 h                                       0.9663849
   499   8 o      501   1 h                                       0.9768478
   502   8 o      503   1 h                                       0.9662080
   502   8 o      504   1 h                                       0.9824258
   505   8 o      506   1 h                                       0.9584454
   505   8 o      507   1 h                                       0.9704141
   508   8 o      509   1 h                                       0.9653942
   508   8 o      510   1 h                                       0.9648983
   511   8 o      512   1 h                                       0.9853777
   511   8 o      513   1 h                                       0.9887054
   514   8 o      515   1 h                                       0.9724717
   514   8 o      516   1 h                                       0.9671231
   517   8 o      518   1 h                                       0.9794841
   517   8 o      519   1 h                                       0.9706959
   520   8 o      521   1 h                                       0.9723063
   520   8 o      522   1 h                                       0.9682962
   523   8 o      524   1 h                                       0.9760538
   523   8 o      525   1 h                                       0.9709079
   526   8 o      527   1 h                                       0.9856665
   526   8 o      528   1 h                                       0.9602124
   529   8 o      530   1 h                                       0.9579762
   529   8 o      531   1 h                                       0.9852592
   532   8 o      533   1 h                                       0.9725981
   532   8 o      534   1 h                                       0.9768727
   535   8 o      536   1 h                                       0.9719141
   535   8 o      537   1 h                                       0.9580722
   538   8 o      539   1 h                                       0.9707637
   538   8 o      540   1 h                                       0.9887281
   541   8 o      542   1 h                                       0.9644702
   541   8 o      543   1 h                                       0.9886181
   544   8 o      545   1 h                                       0.9784297
   544   8 o      546   1 h                                       0.9719074
   547   8 o      548   1 h                                       0.9782747
   547   8 o      549   1 h                                       0.9572182
   550   8 o      551   1 h                                       0.9636412
   550   8 o      552   1 h                                       0.9691393
   553   8 o      554   1 h                                       0.9597560
   553   8 o      555   1 h                                       0.9807644
   556   8 o      557   1 h                                       0.9724834
   556   8 o      558   1 h                                       0.9671685
   559   8 o      560   1 h                                       0.9853879
   559   8 o      561   1 h                                       0.9589838
   562   8 o      563   1 h                                       0.9640195
   562   8 o      564   1 h                                       0.9704106
   565   8 o      566   1 h                                       0.9840047
   565   8 o      567   1 h                                       0.9723540
   568   8 o      569   1 h                                       0.9713978
   568   8 o      570   1 h                                       0.9680719
   571   8 o      572   1 h                                       0.9556197 (min)
   571   8 o      573   1 h                                       0.9813289
   574   8 o      575   1 h                                       0.9728624
   574   8 o      576   1 h                                       0.9728270
   577   8 o      578   1 h                                       0.9859156
   577   8 o      579   1 h                                       0.9758240
   580   8 o      581   1 h                                       0.9892812
   580   8 o      582   1 h                                       0.9574516
   583   8 o      584   1 h                                       0.9773480
   583   8 o      585   1 h                                       0.9828117
   586   8 o      587   1 h                                       0.9702898
   586   8 o      588   1 h                                       0.9725731
   589   8 o      590   1 h                                       0.9724429
   589   8 o      591   1 h                                       0.9645214
   592   8 o      593   1 h                                       0.9744720
   592   8 o      594   1 h                                       0.9618030
   595   8 o      596   1 h                                       0.9810813
   595   8 o      597   1 h                                       0.9658471
   598   8 o      599   1 h                                       0.9882011
   598   8 o      600   1 h                                       0.9571551
   601   8 o      602   1 h                                       0.9744026
   601   8 o      603   1 h                                       0.9694961
   604   8 o      605   1 h                                       0.9783905
   604   8 o      606   1 h                                       0.9760110
   607   8 o      608   1 h                                       0.9677352
   607   8 o      609   1 h                                       0.9706656
   610   8 o      611   1 h                                       0.9639548
   610   8 o      612   1 h                                       0.9742955
   613   8 o      614   1 h                                       0.9716538
   613   8 o      615   1 h                                       0.9686456
   616   8 o      617   1 h                                       0.9755657
   616   8 o      618   1 h                                       0.9832271
   619   8 o      620   1 h                                       0.9723312
   619   8 o      621   1 h                                       0.9738505
   622   8 o      623   1 h                                       0.9701440
   622   8 o      624   1 h                                       0.9774273
   625   8 o      626   1 h                                       0.9700552
   625   8 o      627   1 h                                       0.9810166
   628   8 o      629   1 h                                       0.9720909
   628   8 o      630   1 h                                       0.9764393
   631   8 o      632   1 h                                       0.9749447
   631   8 o      633   1 h                                       0.9765081
   634   8 o      635   1 h                                       0.9709054
   634   8 o      636   1 h                                       0.9822841
   637   8 o      638   1 h                                       0.9710274
   637   8 o      639   1 h                                       0.9661659
   640   8 o      641   1 h                                       0.9726406
   640   8 o      642   1 h                                       0.9740209
   643   8 o      644   1 h                                       0.9639563
   643   8 o      645   1 h                                       0.9875649
   646   8 o      647   1 h                                       0.9592651
   646   8 o      648   1 h                                       0.9863213
   649   8 o      650   1 h                                       0.9785886
   649   8 o      651   1 h                                       0.9638613
   652   8 o      653   1 h                                       0.9814140
   652   8 o      654   1 h                                       0.9617632
   655   8 o      656   1 h                                       0.9759581
   655   8 o      657   1 h                                       0.9577528
   658   8 o      659   1 h                                       0.9786798
   658   8 o      660   1 h                                       0.9771802
   661   8 o      662   1 h                                       0.9645023
   661   8 o      663   1 h                                       0.9772906
   664   8 o      665   1 h                                       0.9751599
   664   8 o      666   1 h                                       0.9800468
   667   8 o      668   1 h                                       0.9819990
   667   8 o      669   1 h                                       0.9658964
   670   8 o      671   1 h                                       0.9849598
   670   8 o      672   1 h                                       0.9670412
   673   8 o      674   1 h                                       0.9742598
   673   8 o      675   1 h                                       0.9669277
   676   8 o      677   1 h                                       0.9749093
   676   8 o      678   1 h                                       0.9693153
   679   8 o      680   1 h                                       0.9794225
   679   8 o      681   1 h                                       0.9736487
   682   8 o      683   1 h                                       0.9730580
   682   8 o      684   1 h                                       0.9611885
   685   8 o      686   1 h                                       0.9825647
   685   8 o      687   1 h                                       0.9711129
   688   8 o      689   1 h                                       0.9719126
   688   8 o      690   1 h                                       0.9851502
   691   8 o      692   1 h                                       0.9839227
   691   8 o      693   1 h                                       0.9669104
   694   8 o      695   1 h                                       0.9722699
   694   8 o      696   1 h                                       0.9782072
   697   8 o      698   1 h                                       0.9683422
   697   8 o      699   1 h                                       0.9769530
   700   8 o      701   1 h                                       0.9687090
   700   8 o      702   1 h                                       0.9664021
   703   8 o      704   1 h                                       0.9729669
   703   8 o      705   1 h                                       0.9841388
   706   8 o      707   1 h                                       0.9644302
   706   8 o      708   1 h                                       0.9805784
   709   8 o      710   1 h                                       0.9561388
   709   8 o      711   1 h                                       0.9921385
   712   8 o      713   1 h                                       0.9732651
   712   8 o      714   1 h                                       0.9723307
   715   8 o      716   1 h                                       0.9899095
   715   8 o      717   1 h                                       0.9819844
   718   8 o      719   1 h                                       0.9708824
   718   8 o      720   1 h                                       0.9695407
   721   8 o      722   1 h                                       0.9840780
   721   8 o      723   1 h                                       0.9752922
   724   8 o      725   1 h                                       0.9694150
   724   8 o      726   1 h                                       0.9681928
   727   8 o      728   1 h                                       0.9575471
   727   8 o      729   1 h                                       0.9996798 (max)
   730   8 o      731   1 h                                       0.9863722
   730   8 o      732   1 h                                       0.9562546
   733   8 o      734   1 h                                       0.9786031
   733   8 o      735   1 h                                       0.9681365
   736   8 o      737   1 h                                       0.9697560
   736   8 o      738   1 h                                       0.9750067
   739   8 o      740   1 h                                       0.9803643
   739   8 o      741   1 h                                       0.9630495
   742   8 o      743   1 h                                       0.9584792
   742   8 o      744   1 h                                       0.9843463
   745   8 o      746   1 h                                       0.9798699
   745   8 o      747   1 h                                       0.9717699
   748   8 o      749   1 h                                       0.9636838
   748   8 o      750   1 h                                       0.9876882
   751   8 o      752   1 h                                       0.9646529
   751   8 o      753   1 h                                       0.9649919
   754   8 o      755   1 h                                       0.9727514
   754   8 o      756   1 h                                       0.9607296

 * 1 distinct bonds (by element types)

   Z      Z             #   av. dist./Å        max./Å        min./Å
   1 H    8 O         503     0.9740702     0.9996798     0.9556197


optimized geometry written to: xtbopt.coord


           -------------------------------------------------
          | TOTAL ENERGY            -1283.374277571866 Eh   |
          | GRADIENT NORM               0.002169337675 Eh/α |
          | HOMO-LUMO GAP               8.268412483138 eV   |
           -------------------------------------------------

------------------------------------------------------------------------
 * finished run on 2022/11/24 at 09:11:38.400     
------------------------------------------------------------------------
 total:
 * wall-time:     0 d,  0 h,  3 min, 46.036 sec
 *  cpu-time:     0 d,  0 h,  5 min, 36.064 sec
 * ratio c/w:     1.487 speedup
 SCF:
 * wall-time:     0 d,  0 h,  0 min, 22.291 sec
 *  cpu-time:     0 d,  0 h,  0 min, 36.296 sec
 * ratio c/w:     1.628 speedup
 ANC optimizer:
 * wall-time:     0 d,  0 h,  3 min, 22.673 sec
 *  cpu-time:     0 d,  0 h,  4 min, 58.002 sec
 * ratio c/w:     1.470 speedup

