      -----------------------------------------------------------      
     |                   =====================                   |     
     |                           x T B                           |     
     |                   =====================                   |     
     |                         S. Grimme                         |     
     |          Mulliken Center for Theoretical Chemistry        |     
     |                    University of Bonn                     |     
      -----------------------------------------------------------      

   * xtb version 6.5.1 (579679a) compiled by 'ehlert@majestix' on 2022-07-11

   xtb is free software: you can redistribute it and/or modify it under
   the terms of the GNU Lesser General Public License as published by
   the Free Software Foundation, either version 3 of the License, or
   (at your option) any later version.
   
   xtb is distributed in the hope that it will be useful,
   but WITHOUT ANY WARRANTY; without even the implied warranty of
   MERCHANTABILITY or FITNESS FOR A PARTICULAR PURPOSE.  See the
   GNU Lesser General Public License for more details.
   
   Cite this work as:
   * C. Bannwarth, E. Caldeweyher, S. Ehlert, A. Hansen, P. Pracht,
     J. Seibert, S. Spicher, S. Grimme, WIREs Comput. Mol. Sci., 2020, 11,
     e01493. DOI: 10.1002/wcms.1493
   
   for GFN2-xTB:
   * C. Bannwarth, S. Ehlert and S. Grimme., J. Chem. Theory Comput., 2019,
     15, 1652-1671. DOI: 10.1021/acs.jctc.8b01176
   for GFN1-xTB:
   * S. Grimme, C. Bannwarth, P. Shushkov, J. Chem. Theory Comput., 2017,
     13, 1989-2009. DOI: 10.1021/acs.jctc.7b00118
   for GFN0-xTB:
   * P. Pracht, E. Caldeweyher, S. Ehlert, S. Grimme, ChemRxiv, 2019, preprint.
     DOI: 10.26434/chemrxiv.8326202.v1
   for GFN-FF:
   * S. Spicher and S. Grimme, Angew. Chem. Int. Ed., 2020, 59, 15665-15673.
     DOI: 10.1002/anie.202004239
   
   for ALPB and GBSA implicit solvation:
   * S. Ehlert, M. Stahn, S. Spicher, S. Grimme, J. Chem. Theory Comput.,
     2021, 17, 4250-4261. DOI: 10.1021/acs.jctc.1c00471
   
   for DFT-D4:
   * E. Caldeweyher, C. Bannwarth and S. Grimme, J. Chem. Phys., 2017,
     147, 034112. DOI: 10.1063/1.4993215
   * E. Caldeweyher, S. Ehlert, A. Hansen, H. Neugebauer, S. Spicher,
     C. Bannwarth and S. Grimme, J. Chem. Phys., 2019, 150, 154122.
     DOI: 10.1063/1.5090222
   * E. Caldeweyher, J.-M. Mewes, S. Ehlert and S. Grimme, Phys. Chem. Chem. Phys.
     2020, 22, 8499-8512. DOI: 10.1039/D0CP00502A
   
   for sTDA-xTB:
   * S. Grimme and C. Bannwarth, J. Chem. Phys., 2016, 145, 054103.
     DOI: 10.1063/1.4959605
   
   in the mass-spec context:
   * V. Asgeirsson, C. Bauer and S. Grimme, Chem. Sci., 2017, 8, 4879.
     DOI: 10.1039/c7sc00601b
   * J. Koopman and S. Grimme, ACS Omega 2019, 4, 12, 15120-15133.
     DOI: 10.1021/acsomega.9b02011
   
   for metadynamics refer to:
   * S. Grimme, J. Chem. Theory Comput., 2019, 155, 2847-2862
     DOI: 10.1021/acs.jctc.9b00143
   
   for SPH calculations refer to:
   * S. Spicher and S. Grimme, J. Chem. Theory Comput., 2021, 17, 1701-1714
     DOI: 10.1021/acs.jctc.0c01306
   
   with help from (in alphabetical order)
   P. Atkinson, C. Bannwarth, F. Bohle, G. Brandenburg, E. Caldeweyher
   M. Checinski, S. Dohm, S. Ehlert, S. Ehrlich, I. Gerasimov, C. Hölzer
   A. Katbashev, J. Koopman, C. Lavigne, S. Lehtola, F. März, M. Müller,
   F. Musil, H. Neugebauer, J. Pisarek, C. Plett, P. Pracht, F. Pultar,
   J. Seibert, P. Shushkov, S. Spicher, M. Stahn, M. Steiner, T. Strunk,
   J. Stückrath, T. Rose, and J. Unsleber
   
 * started run on 2022/11/24 at 09:28:10.076     

           -------------------------------------------------
          |                Calculation Setup                |
           -------------------------------------------------

          program call               : xtb solvent_cluster.coord --gfn2 --sp --lmo --chrg 0
          hostname                   : cn0341
          coordinate file            : solvent_cluster.coord
          omp threads                :                     2

   ID    Z sym.   atoms
    1    8 o      1, 4, 7, 10, 13, 16, 19, 22, 25, 28, 31, 34, 37, 40, 43,
                  46, 49, 52, 55, 58, 61, 64, 67, 70, 73, 76, 79, 82, 85, 88,
                  91, 94, 97, 100, 103, 106, 109, 112, 115, 118, 121, 124,
                  127, 130, 133, 136, 139, 142, 145, 148, 151, 154, 157, 160,
                  163, 166, 169, 172, 175, 178, 181, 184, 187, 190, 193, 196,
                  199, 202, 205, 208, 211, 214, 217, 220, 223, 226, 229, 232,
                  235, 238, 241, 244, 247, 250, 253, 256, 259, 262, 265, 268,
                  271, 274, 277, 280, 283, 286, 289, 292, 295, 298, 301, 304,
                  307, 310, 313, 316, 319, 322, 325, 328, 331, 334, 337, 340,
                  343, 346, 349, 352, 355, 358, 361, 364, 367, 370, 373, 376,
                  379, 382, 385, 388, 391, 394, 397, 400, 403, 406, 409, 412,
                  415, 418, 421, 424, 427, 430, 433, 436, 439, 442, 445, 448,
                  451, 454, 457, 460, 463, 466, 469, 472, 475, 478, 481, 484,
                  487, 490, 493, 496, 499, 502, 505, 508, 511, 514, 517, 520,
                  523, 526, 529, 532, 535, 538, 541, 544, 547, 550, 553, 556,
                  559, 562, 565, 568, 571, 574, 577, 580, 583, 586, 589, 592,
                  595, 598, 601, 604, 607, 610, 613, 616, 619, 622, 625, 628,
                  631, 634, 637, 640, 643, 646, 649, 652, 655, 658, 661, 664,
                  667, 670, 673, 676, 679, 682, 685, 688, 691, 694, 697, 700,
                  703, 706, 709, 712, 715, 718, 721, 724, 727, 730, 733, 736,
                  739, 742, 745, 748, 751, 754
    2    1 h      2, 3, 5, 6, 8, 9, 11, 12, 14, 15, 17, 18, 20, 21, 23, 24,
                  26, 27, 29, 30, 32, 33, 35, 36, 38, 39, 41, 42, 44, 45, 47,
                  48, 50, 51, 53, 54, 56, 57, 59, 60, 62, 63, 65, 66, 68, 69,
                  71, 72, 74, 75, 77, 78, 80, 81, 83, 84, 86, 87, 89, 90, 92,
                  93, 95, 96, 98, 99, 101, 102, 104, 105, 107, 108, 110, 111,
                  113, 114, 116, 117, 119, 120, 122, 123, 125, 126, 128, 129,
                  131, 132, 134, 135, 137, 138, 140, 141, 143, 144, 146, 147,
                  149, 150, 152, 153, 155, 156, 158, 159, 161, 162, 164, 165,
                  167, 168, 170, 171, 173, 174, 176, 177, 179, 180, 182, 183,
                  185, 186, 188, 189, 191, 192, 194, 195, 197, 198, 200, 201,
                  203, 204, 206, 207, 209, 210, 212, 213, 215, 216, 218, 219,
                  221, 222, 224, 225, 227, 228, 230, 231, 233, 234, 236, 237,
                  239, 240, 242, 243, 245, 246, 248, 249, 251, 252, 254, 255,
                  257, 258, 260, 261, 263, 264, 266, 267, 269, 270, 272, 273,
                  275, 276, 278, 279, 281, 282, 284, 285, 287, 288, 290, 291,
                  293, 294, 296, 297, 299, 300, 302, 303, 305, 306, 308, 309,
                  311, 312, 314, 315, 317, 318, 320, 321, 323, 324, 326, 327,
                  329, 330, 332, 333, 335, 336, 338, 339, 341, 342, 344, 345,
                  347, 348, 350, 351, 353, 354, 356, 357, 359, 360, 362, 363,
                  365, 366, 368, 369, 371, 372, 374, 375, 377, 378, 380, 381,
                  383, 384, 386, 387, 389, 390, 392, 393, 395, 396, 398, 399,
                  401, 402, 404, 405, 407, 408, 410, 411, 413, 414, 416, 417,
                  419, 420, 422, 423, 425, 426, 428, 429, 431, 432, 434, 435,
                  437, 438, 440, 441, 443, 444, 446, 447, 449, 450, 452, 453,
                  455, 456, 458, 459, 461, 462, 464, 465, 467, 468, 470, 471,
                  473, 474, 476, 477, 479, 480, 482, 483, 485, 486, 488, 489,
                  491, 492, 494, 495, 497, 498, 500, 501, 503, 504, 506, 507,
                  509, 510, 512, 513, 515, 516, 518, 519, 521, 522, 524, 525,
                  527, 528, 530, 531, 533, 534, 536, 537, 539, 540, 542, 543,
                  545, 546, 548, 549, 551, 552, 554, 555, 557, 558, 560, 561,
                  563, 564, 566, 567, 569, 570, 572, 573, 575, 576, 578, 579,
                  581, 582, 584, 585, 587, 588, 590, 591, 593, 594, 596, 597,
                  599, 600, 602, 603, 605, 606, 608, 609, 611, 612, 614, 615,
                  617, 618, 620, 621, 623, 624, 626, 627, 629, 630, 632, 633,
                  635, 636, 638, 639, 641, 642, 644, 645, 647, 648, 650, 651,
                  653, 654, 656, 657, 659, 660, 662, 663, 665, 666, 668, 669,
                  671, 672, 674, 675, 677, 678, 680, 681, 683, 684, 686, 687,
                  689, 690, 692, 693, 695, 696, 698, 699, 701, 702, 704, 705,
                  707, 708, 710, 711, 713, 714, 716, 717, 719, 720, 722, 723,
                  725, 726, 728, 729, 731, 732, 734, 735, 737, 738, 740, 741,
                  743, 744, 746, 747, 749, 750, 752, 753, 755, 756

molecular fragmentation (1/2 indicates fragments):
111222222222222222222222222222222222222222222222222222222222222222222222
222222222222222222222222222222222222222222222222222222222222222222222222
222222222222222222222222222222222222222222222222222222222222222222222222
222222222222222222222222222222222222222222222222222222222222222222222222
222222222222222222222222222222222222222222222222222222222222222222222222
222222222222222222222222222222222222222222222222222222222222222222222222
222222222222222222222222222222222222222222222222222222222222222222222222
222222222222222222222222222222222222222222222222222222222222222222222222
222222222222222222222222222222222222222222222222222222222222222222222222
222222222222222222222222222222222222222222222222222222222222222222222222
222222222222222222222222222222222222
# atoms in fragment 1/2:     3   753
 fragment masses (1/2) :       18.02     4521.84
CMA distance (Bohr)    :  17.827
constraining FC (au)   :  0.0500

           -------------------------------------------------
          |                 G F N 2 - x T B                 |
           -------------------------------------------------

        Reference                      10.1021/acs.jctc.8b01176
      * Hamiltonian:
        H0-scaling (s, p, d)           1.850000    2.230000    2.230000
        zeta-weighting                 0.500000
      * Dispersion:
        s8                             2.700000
        a1                             0.520000
        a2                             5.000000
        s9                             5.000000
      * Repulsion:
        kExp                           1.500000    1.000000
        rExp                           1.000000
      * Coulomb:
        alpha                          2.000000
        third order                    shell-resolved
        anisotropic                    true
        a3                             3.000000
        a5                             4.000000
        cn-shift                       1.200000
        cn-exp                         4.000000
        max-rad                        5.000000


          ...................................................
          :                      SETUP                      :
          :.................................................:
          :  # basis functions                1512          :
          :  # atomic orbitals                1512          :
          :  # shells                         1008          :
          :  # electrons                      2016          :
          :  max. iterations                   250          :
          :  Hamiltonian                  GFN2-xTB          :
          :  restarted?                      false          :
          :  GBSA solvation                  false          :
          :  PC potential                    false          :
          :  electronic temp.          300.0000000     K    :
          :  accuracy                    1.0000000          :
          :  -> integral cutoff          0.2500000E+02      :
          :  -> integral neglect         0.1000000E-07      :
          :  -> SCF convergence          0.1000000E-05 Eh   :
          :  -> wf. convergence          0.1000000E-03 e    :
          :  Broyden damping             0.4000000          :
          ...................................................

 iter      E             dE          RMSdq      gap      omega  full diag
   1  -1291.0269378 -0.129103E+04  0.406E+00    8.41       0.0  T
   2  -1291.0952950 -0.683572E-01  0.241E+00    8.39       1.0  T
   3  -1291.1254347 -0.301397E-01  0.205E-01    8.10       1.0  T
   4  -1291.1303009 -0.486617E-02  0.449E-02    8.27       1.0  T
   5  -1291.1303644 -0.634935E-04  0.302E-02    8.26       1.0  T
   6  -1291.1304000 -0.356867E-04  0.397E-03    8.27       1.0  T
   7  -1291.1304021 -0.201685E-05  0.760E-04    8.27       4.8  T
   8  -1291.1304021 -0.337850E-07  0.389E-04    8.27       9.3  T
   9  -1291.1304021 -0.147468E-07  0.622E-05    8.27      58.5  T

   *** convergence criteria satisfied after 9 iterations ***

         #    Occupation            Energy/Eh            Energy/eV
      -------------------------------------------------------------
         1        2.0000           -0.6880065             -18.7216
       ...           ...                  ...                  ...
      1002        2.0000           -0.4109849             -11.1835
      1003        2.0000           -0.4091094             -11.1324
      1004        2.0000           -0.4090942             -11.1320
      1005        2.0000           -0.4087176             -11.1218
      1006        2.0000           -0.4080944             -11.1048
      1007        2.0000           -0.4079978             -11.1022
      1008        2.0000           -0.4078470             -11.0981 (HOMO)
      1009                         -0.1039893              -2.8297 (LUMO)
      1010                         -0.0907213              -2.4687
      1011                         -0.0795325              -2.1642
      1012                         -0.0752864              -2.0486
      1013                         -0.0716393              -1.9494
       ...                                ...                  ...
      1512                          0.4224562              11.4956
      -------------------------------------------------------------
                  HL-Gap            0.3038577 Eh            8.2684 eV
             Fermi-level           -0.2559182 Eh           -6.9639 eV
 
 localization/xTB-IFF output generation
 averaging CT terms over           34  occ. levels
 averaging CT terms over            1  virt. levels
 dipole moment from electron density (au)
     X       Y       Z   
   1.5513  -0.5908  -0.8292  total (Debye):    4.716
cpu  time for init local    0.96 s
wall time for init local    0.56 s
 doing rotations ...
 initialization of trafo matrix to unity

 converged in     16 iterations, threshold :   0.99995485D-06
 doing transformations ...
 lmo centers(Z=2) and atoms on file <lmocent.coord>
 LMO Fii/eV  ncent    charge center   contributions...
    1 LP   *******   0.00   0.40360   6.50051  10.44198   31O : 33.93  373O : 28.17  370O : 27.05  697O : 25.43  541O : 24.24  499O : 22.91  739O : 18.97  289O : 18.54  151O : 18.03  130O : 17.31  550O : 17.28   16O : 17.21
  211O : 17.01  355O : 16.33  187O : 16.07  565O : 15.65  694O : 14.73  664O : 14.28  676O : 14.15  715O : 13.75  313O : 13.51  556O : 13.43  259O : 13.11  535O : 13.07
   37O : 12.97   46O : 12.84  685O : 12.67  265O : 12.55   19O : 12.51  442O : 12.25  712O : 12.23   61O : 12.07   58O : 11.96  661O : 11.78  436O : 11.76  238O : 11.74
  709O : 11.63   28O : 11.13  520O : 10.96   55O : 10.66  295O : 10.62    7O : 10.56   52O : 10.07  625O : 10.07  421O :  9.91   73O :  9.59  553O :  9.56  118O :  9.19
  247O :  9.17  490O :  9.11  292O :  8.91  100O :  8.84   25O :  8.84  361O :  8.81   34O :  8.79  178O :  8.68  163O :  8.67  580O :  8.54  319O :  8.50  127O :  8.49
  427O :  8.45  286O :  8.38  544O :  8.08  451O :  8.08  256O :  8.04  346O :  7.99  481O :  7.93  322O :  7.92  160O :  7.75  598O :  7.74  670O :  7.67  343O :  7.61
  415O :  7.50  466O :  7.42    1O :  7.39  349O :  7.34  106O :  7.32  742O :  7.16  202O :  7.02  412O :  6.95   82O :  6.75  622O :  6.73  460O :  6.71  253O :  6.67
  562O :  6.65  235O :  6.50  586O :  6.49  124O :  6.48  469O :  6.48  688O :  6.48  334O :  6.47  628O :  6.46  400O :  6.32  682O :  6.30   43O :  6.17   70O :  6.07
  205O :  6.06  538O :  6.04  277O :  6.03  532O :  5.97  718O :  5.92  367O :  5.91  226O :  5.84  175O :  5.70  634O :  5.64  475O :  5.56  484O :  5.52  337O :  5.47
  112O :  5.47   22O :  5.43  217O :  5.21  724O :  5.17  574O :  5.11  262O :  5.09  667O :  4.86  391O :  4.83  394O :  4.81  325O :  4.69  358O :  4.67  142O :  4.63
  430O :  4.62  379O :  4.57  523O :  4.56  148O :  4.56  304O :  4.51  250O :  4.44  691O :  4.34   97O :  4.33  754O :  4.26  109O :  4.20  115O :  4.19  328O :  4.18
  487O :  4.18  658O :  4.16  439O :  4.14  733O :  4.14  172O :  4.07  397O :  4.06  727O :  4.04  631O :  3.96   67O :  3.86  316O :  3.74  433O :  3.69  103O :  3.60
   85O :  3.58  508O :  3.58   88O :  3.54  331O :  3.48  592O :  3.47   49O :  3.40  655O :  3.33  220O :  3.32  619O :  3.29  271O :  3.24  505O :  3.24  577O :  3.21
   13O :  3.19  547O :  3.13  307O :  3.08  388O :  3.07  589O :  3.05  662H :  3.03   10O :  3.01  751O :  3.01  613O :  3.01  145O :  3.00  616O :  2.94  463O :  2.88
  268O :  2.80  181O :  2.76  418O :  2.74  382O :  2.74  745O :  2.70  274O :  2.70  166O :  2.64  157O :  2.64  478O :  2.58  568O :  2.57  193O :  2.56   53H :  2.56
  280O :  2.53  517O :  2.49  438H :  2.47  448O :  2.47  208O :  2.44  232O :  2.42  133O :  2.39  491H :  2.35  652O :  2.33  640O :  2.30  511O :  2.29  223O :  2.29
  336H :  2.28  214O :  2.24  559O :  2.22  445O :  2.19  500H :  2.18  340O :  2.15  424O :  2.12  649O :  2.10  588H :  2.10  190O :  2.06  601O :  1.99   94O :  1.99
  298O :  1.97   79O :  1.97  153H :  1.94  196O :  1.93  364O :  1.89  514O :  1.89  241O :  1.88  199O :  1.88  244O :  1.83  566H :  1.81  229O :  1.81  154O :  1.80
  529O :  1.79  493O :  1.78   40O :  1.76   74H :  1.75  352O :  1.74  310O :  1.72  385O :  1.71  706O :  1.68  350H :  1.64  261H :  1.64  526O :  1.62  434H :  1.60
  344H :  1.59  703O :  1.58  571O :  1.57  278H :  1.51  255H :  1.49  496O :  1.48   64O :  1.46  501H :  1.40  457O :  1.40  730O :  1.37  129H :  1.32  637O :  1.32
  110H :  1.30  679O :  1.29  595O :  1.22  604O :  1.22  422H :  1.20   20H :  1.17  693H :  1.15   76O :  1.14  736O :  1.13  169O :  1.13    4O :  1.10  136O :  1.09
  179H :  1.07  429H :  1.07  300H :  1.06  207H :  1.04  359H :  1.03  700O :  1.03  159H :  1.03  291H :  1.01  283O :  0.99  540H :  0.98  485H :  0.97  735H :  0.95
   91O :  0.94  249H :  0.94  121O :  0.93  717H :  0.92  687H :  0.91  472O :  0.90  409O :  0.89  699H :  0.89  165H :  0.89  725H :  0.88  120H :  0.87   54H :  0.86
  673O :  0.85  492H :  0.85  266H :  0.85  177H :  0.85  184O :  0.84  288H :  0.84  646O :  0.83  248H :  0.83  576H :  0.82  113H :  0.82   47H :  0.82  620H :  0.82
  583O :  0.79  315H :  0.78  222H :  0.78  480H :  0.76  502O :  0.75  563H :  0.74  324H :  0.74  147H :  0.73  101H :  0.73  748O :  0.72  392H :  0.71   38H :  0.70
  219H :  0.70  389H :  0.70  228H :  0.69  454O :  0.67  678H :  0.66   45H :  0.65  552H :  0.64  575H :  0.64  290H :  0.64  695H :  0.63   26H :  0.63  468H :  0.63
  607O :  0.62  201H :  0.61  643O :  0.61  632H :  0.60  139O :  0.59  726H :  0.59  366H :  0.59  615H :  0.59  536H :  0.58  537H :  0.58  417H :  0.58  257H :  0.57
  227H :  0.57  533H :  0.56   86H :  0.56  323H :  0.56   32H :  0.56  677H :  0.56  444H :  0.55  747H :  0.55  689H :  0.55  406O :  0.55   15H :  0.55  212H :  0.54
  671H :  0.54  173H :  0.53  363H :  0.52  119H :  0.52  597H :  0.52  521H :  0.52  233H :  0.51  174H :  0.51  194H :  0.51  399H :  0.51   48H :  0.49  332H :  0.49
  293H :  0.49  546H :  0.48  464H :  0.48  131H :  0.48  398H :  0.48  638H :  0.48  104H :  0.48  722H :  0.47  183H :  0.47  462H :  0.47  281H :  0.47  657H :  0.47
  441H :  0.46   36H :  0.46  402H :  0.45  578H :  0.45  203H :  0.45  376O :  0.44  714H :  0.44   30H :  0.44  642H :  0.44  665H :  0.43    2H :  0.43  284H :  0.43
  483H :  0.43  635H :  0.43  116H :  0.41   12H :  0.41  375H :  0.41   21H :  0.40   89H :  0.40  245H :  0.39  374H :  0.39    5H :  0.38  342H :  0.38  548H :  0.38
  610O :  0.38   60H :  0.38  356H :  0.37  542H :  0.36  656H :  0.36  681H :  0.36  593H :  0.36  264H :  0.36  321H :  0.35  516H :  0.35  668H :  0.35  423H :  0.35
  711H :  0.35  527H :  0.34  111H :  0.34  182H :  0.34  275H :  0.33  252H :  0.33  590H :  0.32  650H :  0.32  311H :  0.32  654H :  0.31  384H :  0.31  155H :  0.31
  317H :  0.31  234H :  0.31  753H :  0.31  140H :  0.31   39H :  0.30  503H :  0.30  477H :  0.30  294H :  0.30  582H :  0.29  125H :  0.29  411H :  0.28  449H :  0.28
  263H :  0.28  731H :  0.28  721O :  0.28  522H :  0.28   62H :  0.27  297H :  0.27  659H :  0.27  401H :  0.27  345H :  0.26  539H :  0.26  633H :  0.26  530H :  0.26
   93H :  0.26  128H :  0.26  486H :  0.25  519H :  0.25  180H :  0.25  570H :  0.25  269H :  0.25  602H :  0.25  224H :  0.25  273H :  0.25   14H :  0.24   98H :  0.24
  132H :  0.24    3H :  0.23  467H :  0.23  353H :  0.23  692H :  0.23  188H :  0.23  596H :  0.21  488H :  0.21  320H :  0.21   57H :  0.21   75H :  0.21  675H :  0.21
  150H :  0.21  243H :  0.21  551H :  0.21  684H :  0.20   18H :  0.20  170H :  0.20  557H :  0.20  419H :  0.20  707H :  0.20  335H :  0.19  369H :  0.19   99H :  0.19
  338H :  0.19  216H :  0.19  168H :  0.19  279H :  0.19   68H :  0.19   51H :  0.18  260H :  0.18  135H :  0.18  453H :  0.18  285H :  0.18  561H :  0.17  446H :  0.17
  515H :  0.17  608H :  0.17  407H :  0.17  357H :  0.17  348H :  0.17  507H :  0.17  152H :  0.16   44H :  0.16  474H :  0.16  729H :  0.16  254H :  0.16  156H :  0.16
  372H :  0.16  138H :  0.16  309H :  0.15   90H :  0.15  555H :  0.15  413H :  0.14  371H :  0.14  200H :  0.14  162H :  0.14  459H :  0.14  312H :  0.14  440H :  0.14
  393H :  0.14  612H :  0.14  554H :  0.14  705H :  0.13  450H :  0.13  531H :  0.13  314H :  0.13  581H :  0.13  428H :  0.13  641H :  0.13  381H :  0.12  302H :  0.12
  213H :  0.12  432H :  0.12  403O :  0.12  301O :  0.12  744H :  0.12  647H :  0.12  702H :  0.12  471H :  0.12  543H :  0.11  296H :  0.11  102H :  0.11  621H :  0.11
  326H :  0.11  143H :  0.11  144H :  0.11  305H :  0.11  386H :  0.11  651H :  0.11  242H :  0.11  663H :  0.11  741H :  0.11  584H :  0.10  258H :  0.10  198H :  0.10
  126H :  0.10   72H :  0.10  354H :  0.10  624H :  0.10  686H :  0.10    8H :  0.10  756H :  0.10   11H :  0.10  149H :  0.10  749H :  0.10  161H :  0.09  560H :  0.09
  443H :  0.09  239H :  0.09  603H :  0.09  134H :  0.09  606H :  0.08  236H :  0.08  209H :  0.08  339H :  0.08  267H :  0.08  452H :  0.08  587H :  0.08  435H :  0.08
  230H :  0.08  465H :  0.08  383H :  0.08  645H :  0.07  509H :  0.07  360H :  0.07   80H :  0.07   71H :  0.07
    2 LP   *******   0.00   7.86864  -4.14752  11.72175  373O : 26.34   31O : 26.10  370O : 23.28  697O : 21.87  541O : 20.85  499O : 19.70  739O : 16.32  289O : 15.95  151O : 15.51  130O : 14.89  550O : 14.86   16O : 14.81
  211O : 14.64  355O : 14.05  187O : 13.82  565O : 13.58  694O : 12.65  664O : 12.28  676O : 12.17  715O : 11.82  313O : 11.63  556O : 11.55  259O : 11.28  535O : 11.25
   37O : 11.16   46O : 11.04  685O : 10.91  265O : 10.79   19O : 10.75  442O : 10.54  712O : 10.52   61O : 10.39   58O : 10.29  661O : 10.13  436O : 10.11  238O : 10.10
  709O : 10.00   28O :  9.77  520O :  9.43   55O :  9.17  295O :  9.13    7O :  9.09  625O :  8.68   52O :  8.66  421O :  8.53   73O :  8.26  553O :  8.23  118O :  7.90
  247O :  7.89  490O :  7.84  292O :  7.64  100O :  7.60   25O :  7.60  361O :  7.58   34O :  7.57  178O :  7.47  163O :  7.46  580O :  7.35  319O :  7.32  127O :  7.30
  427O :  7.27  286O :  7.20  598O :  7.12  451O :  6.95  544O :  6.95  256O :  6.92  346O :  6.87  481O :  6.82  322O :  6.81  160O :  6.68  670O :  6.60  343O :  6.55
  415O :  6.45  466O :  6.39    1O :  6.35  349O :  6.31  106O :  6.30  742O :  6.16  202O :  6.04  412O :  5.98   82O :  5.81  622O :  5.79  460O :  5.78  253O :  5.74
  562O :  5.72  235O :  5.59  124O :  5.58  586O :  5.58  469O :  5.57  688O :  5.57  334O :  5.56  628O :  5.56  400O :  5.44  682O :  5.42   43O :  5.31   70O :  5.22
  205O :  5.21  538O :  5.19  277O :  5.19  532O :  5.13  367O :  5.10  718O :  5.09  226O :  5.03  175O :  4.91  634O :  4.85  475O :  4.78  484O :  4.75  112O :  4.71
  337O :  4.71   22O :  4.67  217O :  4.50  724O :  4.45  574O :  4.39  262O :  4.38  667O :  4.18  391O :  4.16  394O :  4.14  325O :  4.04  358O :  4.02  430O :  3.99
  142O :  3.98  523O :  3.93  148O :  3.92  379O :  3.92  304O :  3.88  250O :  3.82   97O :  3.73  691O :  3.73  754O :  3.66  109O :  3.63  115O :  3.60  328O :  3.60
  487O :  3.60  658O :  3.58  439O :  3.56  733O :  3.56  172O :  3.52  397O :  3.49  727O :  3.47  631O :  3.41   67O :  3.32  316O :  3.22  433O :  3.17  103O :  3.09
   85O :  3.08  508O :  3.08   88O :  3.04  331O :  2.99  592O :  2.99   49O :  2.92  619O :  2.90  655O :  2.86  220O :  2.86  271O :  2.79  505O :  2.78  577O :  2.76
   13O :  2.75  547O :  2.69  307O :  2.65  388O :  2.64  662H :  2.60   10O :  2.59  751O :  2.59  613O :  2.59  145O :  2.58  589O :  2.56  616O :  2.55  463O :  2.48
  181O :  2.37  418O :  2.36  382O :  2.36  268O :  2.34  745O :  2.33  274O :  2.32  166O :  2.27  157O :  2.27  478O :  2.22  193O :  2.21   53H :  2.20  280O :  2.18
  517O :  2.14  568O :  2.13  448O :  2.12  438H :  2.12  208O :  2.10  133O :  2.05  491H :  2.02  652O :  2.00  232O :  2.00  640O :  1.98  511O :  1.97  223O :  1.97
  336H :  1.96  214O :  1.93  559O :  1.91  500H :  1.88  445O :  1.86  340O :  1.85  588H :  1.84  424O :  1.82  649O :  1.81  190O :  1.76   94O :  1.71  601O :  1.71
  298O :  1.70   79O :  1.69  153H :  1.67  196O :  1.66  364O :  1.63  514O :  1.62  241O :  1.62  199O :  1.62  244O :  1.58  229O :  1.56  154O :  1.55  566H :  1.54
  529O :  1.54  493O :  1.53   40O :  1.52   74H :  1.50  352O :  1.50  310O :  1.48  385O :  1.48  706O :  1.44  350H :  1.41  261H :  1.41  526O :  1.40  434H :  1.38
  344H :  1.37  703O :  1.36  571O :  1.35  278H :  1.30  255H :  1.28  496O :  1.27   64O :  1.25  457O :  1.20  501H :  1.20  730O :  1.18  129H :  1.14  637O :  1.14
  110H :  1.14  679O :  1.11  595O :  1.06  604O :  1.05  422H :  1.03   20H :  1.01  693H :  0.99   76O :  0.98  736O :  0.97  169O :  0.97    4O :  0.95  136O :  0.94
  179H :  0.92  429H :  0.92  300H :  0.91  207H :  0.90  359H :  0.89  700O :  0.89  159H :  0.88  291H :  0.87  283O :  0.85  540H :  0.84  485H :  0.83  735H :  0.82
   91O :  0.81  249H :  0.81  121O :  0.80  717H :  0.79  687H :  0.79  472O :  0.77  409O :  0.77  699H :  0.77  165H :  0.76  725H :  0.76  120H :  0.75   54H :  0.74
  673O :  0.73  492H :  0.73  266H :  0.73  177H :  0.73  184O :  0.73  620H :  0.72  288H :  0.72  248H :  0.72  646O :  0.72  576H :  0.71  113H :  0.71   47H :  0.71
  583O :  0.68  315H :  0.67  222H :  0.67  480H :  0.65  502O :  0.65  563H :  0.64  324H :  0.63  147H :  0.63  748O :  0.62  392H :  0.61  101H :  0.61  219H :  0.60
   38H :  0.60  389H :  0.60  228H :  0.59  454O :  0.58  678H :  0.57   45H :  0.56  552H :  0.55  695H :  0.55  575H :  0.55   32H :  0.55  290H :  0.55   26H :  0.55
  468H :  0.54  607O :  0.54  201H :  0.53  643O :  0.53  632H :  0.52  139O :  0.51  726H :  0.51  615H :  0.51  366H :  0.50  536H :  0.50  537H :  0.50  417H :  0.50
  257H :  0.49  227H :  0.49  533H :  0.49   86H :  0.48  323H :  0.48  677H :  0.48  444H :  0.48  747H :  0.48  689H :  0.47  406O :  0.47   15H :  0.47  212H :  0.47
  671H :  0.47  173H :  0.46  363H :  0.45  119H :  0.45  597H :  0.45  521H :  0.45  174H :  0.44  194H :  0.44  399H :  0.44   48H :  0.42  332H :  0.42  293H :  0.42
  233H :  0.42  546H :  0.42  464H :  0.41  398H :  0.41  131H :  0.41  638H :  0.41  104H :  0.41  722H :  0.40  183H :  0.40  462H :  0.40  281H :  0.40  657H :  0.40
  441H :  0.39   36H :  0.39  402H :  0.39  578H :  0.39  203H :  0.39  376O :  0.38  714H :  0.38   30H :  0.38  642H :  0.38  665H :  0.37    2H :  0.37  284H :  0.37
  483H :  0.37  635H :  0.37  116H :  0.35   12H :  0.35   21H :  0.34   89H :  0.34  245H :  0.34    5H :  0.33  342H :  0.33  548H :  0.33  610O :  0.33   60H :  0.32
  356H :  0.32  542H :  0.31  656H :  0.31  681H :  0.31  264H :  0.31  593H :  0.31  321H :  0.30  516H :  0.30  668H :  0.30  423H :  0.30  711H :  0.30  527H :  0.30
  182H :  0.29  111H :  0.29  375H :  0.29  275H :  0.28  252H :  0.28  650H :  0.27  311H :  0.27  654H :  0.27  384H :  0.27  155H :  0.27  317H :  0.27  753H :  0.26
  140H :  0.26  234H :  0.26  374H :  0.26   39H :  0.26  503H :  0.26  477H :  0.26  294H :  0.26  590H :  0.25  582H :  0.25  125H :  0.25  411H :  0.24  449H :  0.24
  263H :  0.24  731H :  0.24  721O :  0.24  522H :  0.24   62H :  0.23  297H :  0.23  659H :  0.23  401H :  0.23  345H :  0.23  539H :  0.23  530H :  0.22  633H :  0.22
   93H :  0.22  128H :  0.22  486H :  0.22  519H :  0.22  180H :  0.21  602H :  0.21  224H :  0.21  273H :  0.21  570H :  0.21  269H :  0.21   14H :  0.21   98H :  0.20
  132H :  0.20    3H :  0.20  467H :  0.20  353H :  0.20  692H :  0.20  188H :  0.19  596H :  0.18  488H :  0.18  320H :  0.18   57H :  0.18   75H :  0.18  675H :  0.18
  150H :  0.18  243H :  0.18  551H :  0.18  684H :  0.17   18H :  0.17  170H :  0.17  557H :  0.17  419H :  0.17  707H :  0.17  335H :  0.17  369H :  0.17   99H :  0.17
  338H :  0.16  216H :  0.16  168H :  0.16  279H :  0.16   68H :  0.16   51H :  0.16  260H :  0.16  135H :  0.15  285H :  0.15  453H :  0.15  561H :  0.15  515H :  0.15
  608H :  0.15  407H :  0.15  357H :  0.15  446H :  0.14  348H :  0.14  507H :  0.14  152H :  0.14   44H :  0.14  474H :  0.14  729H :  0.14  254H :  0.14  156H :  0.14
  372H :  0.14  138H :  0.13  309H :  0.13   90H :  0.13  555H :  0.13  413H :  0.12  371H :  0.12  200H :  0.12  162H :  0.12  459H :  0.12  312H :  0.12  440H :  0.12
  612H :  0.12  393H :  0.12  554H :  0.12  705H :  0.12  450H :  0.11  531H :  0.11  314H :  0.11  581H :  0.11  428H :  0.11  102H :  0.11  641H :  0.11  381H :  0.11
  302H :  0.11  213H :  0.11  432H :  0.11  403O :  0.11  301O :  0.10  744H :  0.10  647H :  0.10  702H :  0.10  471H :  0.10  543H :  0.10  296H :  0.10  326H :  0.10
  621H :  0.09  143H :  0.09  144H :  0.09  305H :  0.09  386H :  0.09  651H :  0.09  242H :  0.09  663H :  0.09  741H :  0.09  584H :  0.09  258H :  0.09  198H :  0.09
  126H :  0.09   72H :  0.09  354H :  0.09  624H :  0.09  686H :  0.09    8H :  0.08  756H :  0.08   11H :  0.08  149H :  0.08  749H :  0.08  161H :  0.08  560H :  0.08
  443H :  0.08  239H :  0.08  134H :  0.07  603H :  0.07  606H :  0.07  236H :  0.07
    3 LP   *******   0.00  47.28458  16.89783 -28.14088   31O : 21.14  697O : 20.98  373O : 19.63  370O : 18.85  541O : 16.90  499O : 15.96  739O : 13.21  289O : 12.92  151O : 12.56  130O : 12.06  550O : 12.04   16O : 11.99
  211O : 11.86  355O : 11.38  187O : 11.20  565O : 10.90  694O : 10.26  664O :  9.95  676O :  9.89  715O :  9.58  313O :  9.42  556O :  9.36  259O :  9.14  535O :  9.11
   37O :  9.04   46O :  8.95  685O :  8.83  265O :  8.74   19O :  8.72  442O :  8.53  712O :  8.52   61O :  8.41   58O :  8.33  661O :  8.19  436O :  8.19  238O :  8.18
  709O :  8.10   28O :  7.92  520O :  7.64   55O :  7.43  295O :  7.39    7O :  7.37  421O :  7.03   52O :  7.02  625O :  7.01   73O :  6.68  553O :  6.66  118O :  6.40
  247O :  6.39  490O :  6.35  292O :  6.19  100O :  6.16   25O :  6.16  361O :  6.14   34O :  6.13  178O :  6.05  163O :  6.05  580O :  5.95  319O :  5.93  127O :  5.92
  427O :  5.89  286O :  5.84  598O :  5.77  451O :  5.63  544O :  5.63  256O :  5.60  346O :  5.57  481O :  5.53  322O :  5.51  160O :  5.41  670O :  5.34  343O :  5.31
  415O :  5.23  466O :  5.18    1O :  5.15  349O :  5.11  106O :  5.10  742O :  4.99  202O :  4.89  412O :  4.85   82O :  4.71  622O :  4.69  460O :  4.68  253O :  4.65
  562O :  4.64  235O :  4.53  586O :  4.52  124O :  4.52  469O :  4.52  334O :  4.51  628O :  4.50  400O :  4.41  682O :  4.39   43O :  4.32  688O :  4.30   70O :  4.23
  205O :  4.22  538O :  4.21  277O :  4.20  532O :  4.16  718O :  4.12  367O :  4.12  226O :  4.07  175O :  3.97  634O :  3.93  475O :  3.87  484O :  3.85  112O :  3.81
  337O :  3.81   22O :  3.78  217O :  3.65  724O :  3.61  574O :  3.56  262O :  3.55  667O :  3.39  391O :  3.37  358O :  3.36  394O :  3.35  325O :  3.27  142O :  3.23
  430O :  3.22  379O :  3.19  523O :  3.18  148O :  3.17  304O :  3.14  250O :  3.10  691O :  3.02   97O :  3.01  754O :  2.97  109O :  2.94  115O :  2.92  328O :  2.92
  487O :  2.91  658O :  2.90  439O :  2.89  733O :  2.89  172O :  2.85  397O :  2.83  727O :  2.81  631O :  2.76   67O :  2.69  316O :  2.60  433O :  2.57  103O :  2.50
   85O :  2.49  508O :  2.49   88O :  2.47  331O :  2.43  592O :  2.42   49O :  2.37  655O :  2.32  220O :  2.32  619O :  2.29  271O :  2.26  505O :  2.26  577O :  2.24
   13O :  2.22  547O :  2.18  307O :  2.14  388O :  2.14  589O :  2.12   10O :  2.10  662H :  2.10  751O :  2.10  145O :  2.09  613O :  2.09  616O :  2.05  463O :  2.01
  181O :  1.92  418O :  1.91  382O :  1.91  268O :  1.90  745O :  1.88  274O :  1.88  166O :  1.84  157O :  1.84  478O :  1.80  568O :  1.79  193O :  1.79   53H :  1.79
  280O :  1.77  517O :  1.74  438H :  1.72  448O :  1.72  208O :  1.70  133O :  1.66  491H :  1.64  652O :  1.62  232O :  1.62  640O :  1.60  511O :  1.60  223O :  1.60
  336H :  1.59  214O :  1.56  559O :  1.54  445O :  1.53  500H :  1.52  340O :  1.50  649O :  1.47  588H :  1.46  190O :  1.44  424O :  1.40  601O :  1.39   94O :  1.39
  298O :  1.38   79O :  1.37  153H :  1.35  196O :  1.34  364O :  1.32  199O :  1.32  514O :  1.31  241O :  1.31  244O :  1.28  566H :  1.26  229O :  1.26  154O :  1.25
  529O :  1.25  493O :  1.24   40O :  1.23   74H :  1.22  352O :  1.21  310O :  1.20  385O :  1.20  706O :  1.17  350H :  1.14  261H :  1.14  526O :  1.13  434H :  1.12
  344H :  1.11  703O :  1.10  571O :  1.10  278H :  1.05  255H :  1.03  496O :  1.03   64O :  1.01  457O :  0.97  501H :  0.97  730O :  0.96  637O :  0.94  129H :  0.92
  110H :  0.92  679O :  0.90  595O :  0.85  422H :  0.85  604O :  0.85   20H :  0.82  693H :  0.80   76O :  0.79  736O :  0.79  169O :  0.79    4O :  0.77  136O :  0.76
  179H :  0.75  429H :  0.74  300H :  0.74  207H :  0.73  359H :  0.73  700O :  0.72  159H :  0.71  291H :  0.70  283O :  0.69  540H :  0.68  485H :  0.67  735H :  0.66
   91O :  0.66  249H :  0.66  121O :  0.65  717H :  0.64  687H :  0.64  472O :  0.63  409O :  0.62  165H :  0.62  725H :  0.62  120H :  0.61   54H :  0.60  673O :  0.59
  492H :  0.59  266H :  0.59  177H :  0.59  184O :  0.59  288H :  0.58  248H :  0.58  646O :  0.58  576H :  0.57  113H :  0.57   47H :  0.57  620H :  0.57  583O :  0.55
  315H :  0.55  222H :  0.55  480H :  0.53  502O :  0.52  699H :  0.52  563H :  0.52  324H :  0.51  147H :  0.51  101H :  0.51  748O :  0.50  392H :  0.50  219H :  0.49
   38H :  0.49  389H :  0.49  228H :  0.48  454O :  0.47  678H :  0.46   45H :  0.45  552H :  0.45  575H :  0.45  695H :  0.45  290H :  0.44   32H :  0.44   26H :  0.44
  468H :  0.44  201H :  0.44  607O :  0.43  643O :  0.43  632H :  0.42  139O :  0.41  726H :  0.41  615H :  0.41  366H :  0.41  536H :  0.41  537H :  0.40  417H :  0.40
  257H :  0.40  227H :  0.39  533H :  0.39   86H :  0.39  323H :  0.39  677H :  0.39  444H :  0.39  747H :  0.39  406O :  0.38   15H :  0.38  212H :  0.38  671H :  0.38
  173H :  0.37  363H :  0.36  119H :  0.36  597H :  0.36  521H :  0.36  174H :  0.36  194H :  0.35  399H :  0.35   48H :  0.34  332H :  0.34  293H :  0.34  233H :  0.34
  546H :  0.34  464H :  0.33  398H :  0.33  131H :  0.33  638H :  0.33  104H :  0.33  722H :  0.33  183H :  0.33  462H :  0.33  281H :  0.32  657H :  0.32  441H :  0.32
   36H :  0.32  402H :  0.31  578H :  0.31  203H :  0.31  376O :  0.31  714H :  0.31   30H :  0.30  642H :  0.30  665H :  0.30    2H :  0.30  284H :  0.30  483H :  0.30
  635H :  0.30  116H :  0.29   12H :  0.29  375H :  0.28   21H :  0.28   89H :  0.28  245H :  0.27  374H :  0.27    5H :  0.27  342H :  0.27  548H :  0.27  610O :  0.26
   60H :  0.26  356H :  0.26  542H :  0.25  689H :  0.25  656H :  0.25  681H :  0.25  264H :  0.25  593H :  0.25  321H :  0.25  516H :  0.25  668H :  0.24  711H :  0.24
  423H :  0.24  527H :  0.24  182H :  0.24  111H :  0.24  252H :  0.23  275H :  0.23  590H :  0.22  650H :  0.22  311H :  0.22  654H :  0.22  384H :  0.22  155H :  0.22
  317H :  0.22  753H :  0.21  140H :  0.21  234H :  0.21   39H :  0.21  503H :  0.21  477H :  0.21  294H :  0.21  582H :  0.20  125H :  0.20  411H :  0.20  449H :  0.19
  263H :  0.19  731H :  0.19  721O :  0.19  522H :  0.19  297H :  0.19   62H :  0.19  659H :  0.19  401H :  0.19  345H :  0.18  539H :  0.18  530H :  0.18  633H :  0.18
   93H :  0.18  128H :  0.18  486H :  0.18  519H :  0.17  180H :  0.17  570H :  0.17  602H :  0.17  224H :  0.17  273H :  0.17  269H :  0.17   14H :  0.17   98H :  0.17
  132H :  0.16    3H :  0.16  467H :  0.16  353H :  0.16  692H :  0.16  188H :  0.16  596H :  0.15  488H :  0.15  320H :  0.15   57H :  0.15  675H :  0.15   75H :  0.15
  150H :  0.15  243H :  0.14  551H :  0.14  684H :  0.14   18H :  0.14  170H :  0.14  557H :  0.14  419H :  0.14  707H :  0.14  335H :  0.14  369H :  0.13   99H :  0.13
  338H :  0.13  216H :  0.13  168H :  0.13  279H :  0.13   68H :  0.13   51H :  0.13  260H :  0.13  135H :  0.12  285H :  0.12  453H :  0.12  561H :  0.12  446H :  0.12
  515H :  0.12  608H :  0.12  407H :  0.12  357H :  0.12  348H :  0.12  507H :  0.12  152H :  0.11   44H :  0.11  474H :  0.11  729H :  0.11  254H :  0.11  156H :  0.11
  138H :  0.11  372H :  0.11  309H :  0.11   90H :  0.10  555H :  0.10  413H :  0.10  200H :  0.10  371H :  0.10  162H :  0.10  459H :  0.10  312H :  0.10  440H :  0.09
  612H :  0.09  393H :  0.09  554H :  0.09  705H :  0.09  450H :  0.09  531H :  0.09  314H :  0.09  581H :  0.09  428H :  0.09  641H :  0.09  381H :  0.09  302H :  0.09
  213H :  0.09  432H :  0.09  403O :  0.09  301O :  0.08  744H :  0.08  647H :  0.08  702H :  0.08  471H :  0.08  543H :  0.08  296H :  0.08  102H :  0.08  621H :  0.08
  326H :  0.08  143H :  0.08  144H :  0.08  305H :  0.08  386H :  0.08  651H :  0.07  242H :  0.07  663H :  0.07  741H :  0.07  584H :  0.07  258H :  0.07  198H :  0.07
  126H :  0.07   72H :  0.07  354H :  0.07
    4 LP   *******   0.00  22.36580  34.13156 -27.12740   31O : 21.01  373O : 19.51  370O : 18.74  697O : 17.62  541O : 16.79  289O : 16.25  499O : 15.87  739O : 13.14  151O : 12.49  130O : 11.99  550O : 11.97   16O : 11.92
  211O : 11.79  355O : 11.31  187O : 11.13  565O : 10.84  694O : 10.20  664O :  9.89  676O :  9.80  715O :  9.52  313O :  9.36  556O :  9.30  259O :  9.08  535O :  9.05
   37O :  8.98   46O :  8.89  685O :  8.78  265O :  8.69   19O :  8.67  442O :  8.48  712O :  8.47   61O :  8.36   58O :  8.28  661O :  8.16  436O :  8.14  238O :  8.13
  709O :  8.06   28O :  7.87  520O :  7.59   55O :  7.38  295O :  7.35    7O :  7.32   52O :  6.98  625O :  6.97  421O :  6.90   73O :  6.64  553O :  6.62  118O :  6.37
  247O :  6.35  490O :  6.31  292O :  6.15  100O :  6.13   25O :  6.12  361O :  6.10   34O :  6.10  178O :  6.01  163O :  6.01  580O :  5.91  319O :  5.89  127O :  5.88
  427O :  5.85  286O :  5.80  598O :  5.74  451O :  5.60  544O :  5.60  256O :  5.57  346O :  5.53  481O :  5.49  322O :  5.48  160O :  5.37  670O :  5.31  343O :  5.27
  415O :  5.20  466O :  5.14    1O :  5.12  349O :  5.08  106O :  5.07  742O :  4.96  202O :  4.86  412O :  4.82   82O :  4.68  622O :  4.66  460O :  4.65  253O :  4.61
  562O :  4.61  235O :  4.50  124O :  4.50  586O :  4.49  469O :  4.49  688O :  4.49  334O :  4.48  628O :  4.48  400O :  4.38  682O :  4.36   43O :  4.27   70O :  4.21
  205O :  4.19  538O :  4.18  277O :  4.18  532O :  4.13  718O :  4.10  367O :  4.09  226O :  4.05  175O :  3.95  634O :  3.91  475O :  3.85  484O :  3.82  112O :  3.79
  337O :  3.79   22O :  3.76  217O :  3.63  724O :  3.58  574O :  3.54  262O :  3.53  667O :  3.37  391O :  3.35  394O :  3.33  325O :  3.25  358O :  3.24  142O :  3.21
  430O :  3.20  379O :  3.17  523O :  3.16  148O :  3.16  304O :  3.13  250O :  3.05   97O :  3.01  691O :  3.00  754O :  2.95  109O :  2.92  115O :  2.90  328O :  2.90
  487O :  2.90  439O :  2.87  733O :  2.87  172O :  2.84  397O :  2.81  727O :  2.80  631O :  2.74   67O :  2.67  316O :  2.59  433O :  2.56  658O :  2.54  103O :  2.49
   85O :  2.48  508O :  2.48   88O :  2.45  331O :  2.41  592O :  2.41   49O :  2.35  655O :  2.31  220O :  2.30  619O :  2.28  271O :  2.25  505O :  2.24  577O :  2.22
   13O :  2.21  547O :  2.17  307O :  2.13  388O :  2.12  589O :  2.11  662H :  2.10   10O :  2.09  751O :  2.08  613O :  2.08  145O :  2.08  616O :  2.04  463O :  1.99
  181O :  1.91  418O :  1.90  382O :  1.90  268O :  1.89  745O :  1.87  274O :  1.87  157O :  1.83  166O :  1.83  478O :  1.79  568O :  1.78  193O :  1.78   53H :  1.77
  280O :  1.75  517O :  1.72  438H :  1.71  448O :  1.71  208O :  1.69  133O :  1.65  491H :  1.63  652O :  1.61  232O :  1.61  640O :  1.59  511O :  1.59  223O :  1.59
  336H :  1.58  214O :  1.55  559O :  1.53  445O :  1.52  500H :  1.51  340O :  1.49  424O :  1.46  649O :  1.46  588H :  1.46  190O :  1.43  601O :  1.38   94O :  1.38
  298O :  1.37   79O :  1.36  153H :  1.34  196O :  1.33  364O :  1.32  514O :  1.31  199O :  1.30  241O :  1.30  244O :  1.27  566H :  1.26  229O :  1.25  154O :  1.25
  529O :  1.24  493O :  1.23   40O :  1.22   74H :  1.21  352O :  1.21  310O :  1.19  385O :  1.19  706O :  1.16  350H :  1.14  261H :  1.14  526O :  1.13  434H :  1.11
  344H :  1.10  703O :  1.09  571O :  1.09  278H :  1.05  255H :  1.03  496O :  1.03   64O :  1.01  457O :  0.97  501H :  0.97  730O :  0.95  129H :  0.92  637O :  0.92
  110H :  0.91  679O :  0.89  595O :  0.85  604O :  0.84  422H :  0.82   20H :  0.81  693H :  0.80   76O :  0.79  736O :  0.78  169O :  0.78    4O :  0.76  136O :  0.76
  179H :  0.74  429H :  0.74  300H :  0.73  207H :  0.72  359H :  0.72  700O :  0.71  159H :  0.71  283O :  0.68  540H :  0.68  485H :  0.67  735H :  0.66   91O :  0.65
  249H :  0.65  121O :  0.64  717H :  0.64  687H :  0.63  472O :  0.62  409O :  0.62  699H :  0.62  165H :  0.61  725H :  0.61  291H :  0.60  120H :  0.60   54H :  0.60
  673O :  0.59  492H :  0.59  266H :  0.59  177H :  0.59  184O :  0.58  288H :  0.58  248H :  0.58  646O :  0.58  576H :  0.57  113H :  0.57   47H :  0.57  620H :  0.57
  583O :  0.55  315H :  0.54  222H :  0.54  480H :  0.53  502O :  0.52  563H :  0.51  324H :  0.51  147H :  0.51  101H :  0.50  748O :  0.50  392H :  0.49  219H :  0.49
   38H :  0.49  389H :  0.48  228H :  0.48  643O :  0.47  454O :  0.46  678H :  0.46   45H :  0.45  552H :  0.45  575H :  0.44  695H :  0.44   32H :  0.44   26H :  0.44
  468H :  0.43  607O :  0.43  201H :  0.42  632H :  0.42  139O :  0.41  726H :  0.41  615H :  0.41  366H :  0.41  536H :  0.40  537H :  0.40  417H :  0.40  257H :  0.39
  227H :  0.39  533H :  0.39   86H :  0.39  323H :  0.39  677H :  0.39  444H :  0.38  747H :  0.38  689H :  0.38  406O :  0.38   15H :  0.38  212H :  0.38  671H :  0.38
  173H :  0.37  363H :  0.36  119H :  0.36  290H :  0.36  597H :  0.36  521H :  0.36  174H :  0.35  194H :  0.35  399H :  0.35   48H :  0.34  332H :  0.34  293H :  0.34
  233H :  0.34  546H :  0.33  464H :  0.33  398H :  0.33  131H :  0.33  638H :  0.33  104H :  0.33  722H :  0.33  183H :  0.32  462H :  0.32  281H :  0.32  657H :  0.32
  441H :  0.32   36H :  0.32  402H :  0.31  578H :  0.31  203H :  0.31  376O :  0.31  714H :  0.31   30H :  0.30  642H :  0.30  665H :  0.30    2H :  0.30  284H :  0.30
  483H :  0.30  635H :  0.30  116H :  0.29   12H :  0.28  375H :  0.28   21H :  0.28   89H :  0.27  245H :  0.27  374H :  0.27    5H :  0.26  342H :  0.26  548H :  0.26
  610O :  0.26   60H :  0.26  356H :  0.26  542H :  0.25  656H :  0.25  681H :  0.25  264H :  0.25  593H :  0.25  321H :  0.24  516H :  0.24  668H :  0.24  711H :  0.24
  423H :  0.24  527H :  0.24  182H :  0.24  111H :  0.23  252H :  0.23  275H :  0.23  590H :  0.22  650H :  0.22  311H :  0.22  654H :  0.22  384H :  0.22  155H :  0.22
  317H :  0.21  753H :  0.21  140H :  0.21  234H :  0.21   39H :  0.21  503H :  0.21  477H :  0.21  294H :  0.21  582H :  0.20  125H :  0.20  411H :  0.20  449H :  0.19
  263H :  0.19  731H :  0.19  721O :  0.19  522H :  0.19   62H :  0.19  297H :  0.19  401H :  0.19  345H :  0.18  539H :  0.18  530H :  0.18  633H :  0.18   93H :  0.18
  128H :  0.18  486H :  0.17  519H :  0.17  180H :  0.17  570H :  0.17  602H :  0.17  224H :  0.17  273H :  0.17  269H :  0.17   14H :  0.17   98H :  0.16  132H :  0.16
    3H :  0.16  467H :  0.16  353H :  0.16  692H :  0.16  188H :  0.16  596H :  0.15  488H :  0.15  320H :  0.15   57H :  0.15   75H :  0.15  675H :  0.15  150H :  0.14
  243H :  0.14  551H :  0.14  684H :  0.14   18H :  0.14  170H :  0.14  557H :  0.14  419H :  0.14  707H :  0.14  335H :  0.13   99H :  0.13  369H :  0.13  338H :  0.13
  216H :  0.13  168H :  0.13  279H :  0.13   68H :  0.13   51H :  0.13  260H :  0.13  135H :  0.12  285H :  0.12  453H :  0.12  561H :  0.12  446H :  0.12  515H :  0.12
  608H :  0.12  407H :  0.12  357H :  0.12  348H :  0.12  507H :  0.11  152H :  0.11   44H :  0.11  474H :  0.11  729H :  0.11  156H :  0.11  254H :  0.11  372H :  0.11
  138H :  0.11  309H :  0.11   90H :  0.10  555H :  0.10  200H :  0.10  413H :  0.10  371H :  0.10  162H :  0.10  459H :  0.10  312H :  0.10  440H :  0.09  393H :  0.09
  612H :  0.09  554H :  0.09  705H :  0.09  450H :  0.09  531H :  0.09  314H :  0.09  581H :  0.09  428H :  0.09  641H :  0.09  381H :  0.09  302H :  0.09  213H :  0.09
  432H :  0.09  403O :  0.09  659H :  0.08  301O :  0.08  744H :  0.08  702H :  0.08  471H :  0.08  543H :  0.08  296H :  0.08  102H :  0.08  647H :  0.08  621H :  0.08
  326H :  0.08  143H :  0.08  144H :  0.08  305H :  0.07  386H :  0.07  651H :  0.07  242H :  0.07  663H :  0.07  741H :  0.07  584H :  0.07  258H :  0.07  198H :  0.07
  126H :  0.07
    5 LP   *******   0.00 -64.96862 -46.18221 -32.76055   31O : 18.45  373O : 17.14  370O : 16.46  697O : 15.47  541O : 14.74  499O : 13.93  550O : 13.61  739O : 11.54  289O : 11.28  151O : 10.97  130O : 10.53   16O : 10.47
  211O : 10.35  355O :  9.93  187O :  9.77  565O :  9.52  694O :  8.95  664O :  8.68  676O :  8.61  715O :  8.36  313O :  8.22  556O :  8.17  259O :  7.97  535O :  7.95
   37O :  7.89   46O :  7.81  685O :  7.71  265O :  7.63   19O :  7.61  442O :  7.45  712O :  7.44   61O :  7.34   58O :  7.27  661O :  7.16  436O :  7.15  238O :  7.14
  709O :  7.07   28O :  6.91  520O :  6.67   55O :  6.48  295O :  6.46    7O :  6.43  625O :  6.12   52O :  6.12  421O :  6.03   73O :  5.83  553O :  5.80  118O :  5.59
  247O :  5.57  490O :  5.54  292O :  5.40  100O :  5.38   25O :  5.37   34O :  5.35  361O :  5.35  178O :  5.28  163O :  5.28  580O :  5.19  319O :  5.17  127O :  5.16
  427O :  5.14  286O :  5.09  598O :  5.04  544O :  4.92  451O :  4.91  256O :  4.89  346O :  4.86  481O :  4.82  322O :  4.81  160O :  4.72  670O :  4.67  343O :  4.63
  415O :  4.56  466O :  4.52    1O :  4.49  349O :  4.46  106O :  4.45  742O :  4.35  202O :  4.27  412O :  4.22   82O :  4.11  622O :  4.09  253O :  4.06  562O :  4.04
  235O :  3.95  586O :  3.95  124O :  3.94  469O :  3.94  688O :  3.94  334O :  3.93  628O :  3.93  460O :  3.88  400O :  3.85  682O :  3.83   43O :  3.75   70O :  3.69
  205O :  3.68  538O :  3.67  277O :  3.67  532O :  3.63  718O :  3.60  367O :  3.59  226O :  3.56  175O :  3.46  634O :  3.43  475O :  3.38  484O :  3.36  112O :  3.33
  337O :  3.33   22O :  3.30  217O :  3.18  724O :  3.15  574O :  3.11  262O :  3.10  667O :  2.95  391O :  2.94  394O :  2.92  325O :  2.85  358O :  2.84  430O :  2.81
  142O :  2.81  379O :  2.78  523O :  2.78  148O :  2.77  304O :  2.74  250O :  2.70  691O :  2.64   97O :  2.64  754O :  2.59  109O :  2.57  115O :  2.55  328O :  2.54
  487O :  2.54  658O :  2.53  439O :  2.52  733O :  2.52  172O :  2.49  397O :  2.47  727O :  2.45  631O :  2.41   67O :  2.35  316O :  2.27  433O :  2.24  103O :  2.19
  508O :  2.17   85O :  2.17   88O :  2.15  331O :  2.12  592O :  2.11   49O :  2.07  655O :  2.03  220O :  2.02  619O :  2.00  271O :  1.97  505O :  1.97  577O :  1.95
   13O :  1.94  547O :  1.91  307O :  1.87  388O :  1.86  589O :  1.85  662H :  1.84   10O :  1.83  751O :  1.83  613O :  1.83  145O :  1.83  616O :  1.79  463O :  1.75
  181O :  1.68  418O :  1.67  382O :  1.67  268O :  1.66  745O :  1.64  274O :  1.64  166O :  1.61  157O :  1.61  478O :  1.57  568O :  1.56  193O :  1.56   53H :  1.56
  280O :  1.54  517O :  1.51  448O :  1.51  438H :  1.50  208O :  1.48  133O :  1.45  491H :  1.43  652O :  1.42  232O :  1.42  640O :  1.40  511O :  1.39  223O :  1.39
  336H :  1.39  214O :  1.36  445O :  1.33  500H :  1.33  340O :  1.31  424O :  1.29  559O :  1.29  649O :  1.28  588H :  1.28  190O :  1.26   94O :  1.21  601O :  1.21
  298O :  1.20   79O :  1.20  153H :  1.18  196O :  1.17  364O :  1.16  514O :  1.15  241O :  1.14  199O :  1.14  244O :  1.11  566H :  1.10  229O :  1.10  154O :  1.09
  529O :  1.09  493O :  1.08   40O :  1.07   74H :  1.06  352O :  1.06  385O :  1.04  310O :  1.04  706O :  1.02  350H :  1.00  261H :  1.00  526O :  0.99  434H :  0.97
  344H :  0.97  703O :  0.96  571O :  0.96  278H :  0.92  255H :  0.90  496O :  0.90   64O :  0.89  457O :  0.85  501H :  0.85  730O :  0.83  129H :  0.80  637O :  0.80
  110H :  0.80  679O :  0.78  595O :  0.74  604O :  0.74  422H :  0.73   20H :  0.71  693H :  0.70   76O :  0.69  736O :  0.69  169O :  0.69    4O :  0.67  136O :  0.67
  179H :  0.65  429H :  0.65  300H :  0.64  207H :  0.63  359H :  0.63  700O :  0.63  159H :  0.62  291H :  0.61  283O :  0.61  540H :  0.60  485H :  0.59  735H :  0.58
  249H :  0.57  121O :  0.56   91O :  0.56  717H :  0.56  687H :  0.56  472O :  0.55  409O :  0.54  699H :  0.54  165H :  0.54  725H :  0.54  120H :  0.53   54H :  0.52
  673O :  0.52  492H :  0.52  266H :  0.52  184O :  0.51  177H :  0.51  288H :  0.51  646O :  0.51  248H :  0.51  576H :  0.50  113H :  0.50   47H :  0.50  620H :  0.50
  583O :  0.48  315H :  0.48  222H :  0.48  480H :  0.46  502O :  0.46  563H :  0.45  324H :  0.45  147H :  0.44  101H :  0.44  748O :  0.44  392H :  0.43  219H :  0.43
   38H :  0.43  389H :  0.43  228H :  0.42  454O :  0.41  678H :  0.40   45H :  0.39  575H :  0.39  695H :  0.39   32H :  0.39  290H :  0.39   26H :  0.39  468H :  0.38
  607O :  0.38  201H :  0.37  643O :  0.37  632H :  0.37  139O :  0.36  726H :  0.36  615H :  0.36  366H :  0.36  536H :  0.36  537H :  0.35  417H :  0.35  257H :  0.35
  227H :  0.34  533H :  0.34   86H :  0.34  323H :  0.34  677H :  0.34  444H :  0.34  747H :  0.34  689H :  0.33  406O :  0.33   15H :  0.33  212H :  0.33  671H :  0.33
  552H :  0.32  173H :  0.32  363H :  0.32  119H :  0.32  597H :  0.32  521H :  0.31  174H :  0.31  194H :  0.31  399H :  0.31   48H :  0.30  332H :  0.30  293H :  0.30
  233H :  0.30  546H :  0.29  464H :  0.29  131H :  0.29  398H :  0.29  638H :  0.29  104H :  0.29  722H :  0.29  183H :  0.29  281H :  0.28  657H :  0.28  462H :  0.28
  441H :  0.28   36H :  0.28  402H :  0.27  578H :  0.27  203H :  0.27  376O :  0.27  714H :  0.27   30H :  0.27  642H :  0.27  665H :  0.26    2H :  0.26  483H :  0.26
  635H :  0.26  284H :  0.26  116H :  0.25   12H :  0.25  375H :  0.25   21H :  0.24   89H :  0.24  374H :  0.23    5H :  0.23  342H :  0.23  548H :  0.23  245H :  0.23
  610O :  0.23   60H :  0.23  356H :  0.23  542H :  0.22  656H :  0.22  681H :  0.22  264H :  0.22  593H :  0.22  321H :  0.21  516H :  0.21  668H :  0.21  423H :  0.21
  711H :  0.21  527H :  0.21  182H :  0.21  111H :  0.21  275H :  0.20  252H :  0.20  590H :  0.19  650H :  0.19  311H :  0.19  654H :  0.19  384H :  0.19  155H :  0.19
  317H :  0.19  753H :  0.19  140H :  0.19  234H :  0.19   39H :  0.18  503H :  0.18  477H :  0.18  294H :  0.18  582H :  0.18  125H :  0.18  411H :  0.17  449H :  0.17
  263H :  0.17  731H :  0.17  721O :  0.17  522H :  0.17   62H :  0.17  297H :  0.17  659H :  0.16  401H :  0.16  345H :  0.16  539H :  0.16  530H :  0.16  633H :  0.16
  128H :  0.16  486H :  0.15  519H :  0.15  180H :  0.15  570H :  0.15  602H :  0.15  224H :  0.15  273H :  0.15   93H :  0.15  269H :  0.15   14H :  0.15   98H :  0.14
  132H :  0.14    3H :  0.14  467H :  0.14  353H :  0.14  692H :  0.14  188H :  0.14  596H :  0.13  488H :  0.13  320H :  0.13   57H :  0.13   75H :  0.13  675H :  0.13
  150H :  0.13  243H :  0.13  684H :  0.12   18H :  0.12  170H :  0.12  557H :  0.12  419H :  0.12  707H :  0.12  335H :  0.12  369H :  0.12   99H :  0.12  338H :  0.12
  216H :  0.12  168H :  0.11  279H :  0.11   68H :  0.11   51H :  0.11  260H :  0.11  135H :  0.11  285H :  0.11  453H :  0.11  446H :  0.11  515H :  0.10  608H :  0.10
  407H :  0.10  357H :  0.10  348H :  0.10  561H :  0.10  507H :  0.10  152H :  0.10   44H :  0.10  474H :  0.10  729H :  0.10  254H :  0.10  156H :  0.10  372H :  0.10
  138H :  0.09  309H :  0.09   90H :  0.09  555H :  0.09  413H :  0.09  371H :  0.09  200H :  0.09  162H :  0.09  459H :  0.09  312H :  0.08  450H :  0.08  440H :  0.08
  554H :  0.08  551H :  0.08  393H :  0.08  612H :  0.08  705H :  0.08  531H :  0.08  314H :  0.08  581H :  0.08  428H :  0.08  641H :  0.08  381H :  0.08  302H :  0.08
  213H :  0.08  432H :  0.08  403O :  0.07  301O :  0.07  744H :  0.07  647H :  0.07  702H :  0.07  471H :  0.07
    6 LP   *******   0.00   4.97975 -28.67680 -66.30227   31O : 18.33  373O : 17.03  370O : 16.35  697O : 15.37  541O : 14.65  499O : 13.84  211O : 12.94  739O : 11.47  289O : 11.20  151O : 10.90  130O : 10.47  550O : 10.44
   16O : 10.40  355O :  9.87  187O :  9.71  565O :  9.46  694O :  8.90  664O :  8.63  676O :  8.55  715O :  8.31  313O :  8.17  556O :  8.11  259O :  7.92  535O :  7.90
   37O :  7.84   46O :  7.78  685O :  7.66  265O :  7.58   19O :  7.57  442O :  7.40  712O :  7.39   61O :  7.30   58O :  7.23  661O :  7.12  436O :  7.11  238O :  7.09
  709O :  7.03   28O :  6.87  520O :  6.62   55O :  6.44  295O :  6.42    7O :  6.39   52O :  6.09  625O :  6.08  421O :  5.99   73O :  5.80  553O :  5.78  118O :  5.55
  247O :  5.54  490O :  5.51  292O :  5.37  100O :  5.35   25O :  5.34  361O :  5.32   34O :  5.32  178O :  5.25  163O :  5.24  580O :  5.16  319O :  5.14  127O :  5.13
  427O :  5.10  286O :  5.06  598O :  5.01  544O :  4.88  451O :  4.88  256O :  4.86  346O :  4.83  481O :  4.79  322O :  4.78  160O :  4.69  670O :  4.64  343O :  4.60
  415O :  4.53  466O :  4.49    1O :  4.47  349O :  4.43  106O :  4.42  742O :  4.33  202O :  4.24  412O :  4.20   82O :  4.08  622O :  4.07  460O :  4.06  253O :  4.03
  562O :  4.02  235O :  3.93  586O :  3.92  124O :  3.92  469O :  3.92  688O :  3.92  334O :  3.91  628O :  3.90  400O :  3.82  682O :  3.81   43O :  3.73   70O :  3.67
  205O :  3.66  538O :  3.65  277O :  3.65  532O :  3.61  718O :  3.57  367O :  3.57  226O :  3.53  175O :  3.45  634O :  3.41  475O :  3.36  484O :  3.34  112O :  3.31
  337O :  3.31   22O :  3.28  217O :  3.16  724O :  3.13  574O :  3.09  262O :  3.08  667O :  2.94  391O :  2.92  394O :  2.91  325O :  2.84  358O :  2.82  142O :  2.80
  430O :  2.79  379O :  2.76  523O :  2.76  148O :  2.75  304O :  2.73  250O :  2.68  691O :  2.62   97O :  2.62  754O :  2.57  109O :  2.55  115O :  2.53  328O :  2.53
  487O :  2.53  658O :  2.52  439O :  2.50  733O :  2.50  172O :  2.48  397O :  2.45  727O :  2.44  631O :  2.39   67O :  2.33  316O :  2.26  433O :  2.23  103O :  2.17
   85O :  2.16  508O :  2.16   88O :  2.14  331O :  2.10  592O :  2.10   49O :  2.06  655O :  2.01  220O :  2.01  619O :  1.99  271O :  1.96  505O :  1.96  577O :  1.94
   13O :  1.92  547O :  1.89  307O :  1.86  388O :  1.85  589O :  1.84  662H :  1.83   10O :  1.82  751O :  1.82  613O :  1.82  145O :  1.81  616O :  1.78  463O :  1.74
  181O :  1.67  745O :  1.66  418O :  1.66  382O :  1.66  268O :  1.65  274O :  1.63  166O :  1.60  157O :  1.60  478O :  1.56  568O :  1.55  193O :  1.55   53H :  1.55
  280O :  1.53  517O :  1.51  438H :  1.49  448O :  1.49  133O :  1.44  208O :  1.44  491H :  1.42  652O :  1.41  232O :  1.41  640O :  1.39  511O :  1.39  223O :  1.38
  336H :  1.38  214O :  1.35  559O :  1.34  445O :  1.32  500H :  1.32  340O :  1.30  424O :  1.28  649O :  1.27  588H :  1.27  190O :  1.25  601O :  1.20   94O :  1.20
  298O :  1.19   79O :  1.19  153H :  1.17  196O :  1.16  364O :  1.15  514O :  1.14  241O :  1.14  199O :  1.14  244O :  1.11  566H :  1.10  229O :  1.09  529O :  1.08
  493O :  1.08  154O :  1.08   40O :  1.07   74H :  1.06  352O :  1.05  310O :  1.04  385O :  1.04  706O :  1.01  350H :  0.99  261H :  0.99  526O :  0.98  571O :  0.98
  434H :  0.97  344H :  0.96  703O :  0.95  278H :  0.91  255H :  0.90  496O :  0.89   64O :  0.88  457O :  0.85  501H :  0.85  730O :  0.83  129H :  0.80  637O :  0.80
  110H :  0.80  679O :  0.78  595O :  0.74  604O :  0.74  422H :  0.72   20H :  0.71  693H :  0.70   76O :  0.69  736O :  0.68  169O :  0.68    4O :  0.67  136O :  0.66
  179H :  0.65  429H :  0.65  300H :  0.64  207H :  0.63  359H :  0.63  700O :  0.62  159H :  0.62  291H :  0.61  283O :  0.60  540H :  0.59  485H :  0.58  735H :  0.57
   91O :  0.57  249H :  0.57  121O :  0.56  717H :  0.56  687H :  0.55  472O :  0.54  409O :  0.54  699H :  0.54  165H :  0.54  725H :  0.53  120H :  0.53   54H :  0.52
  673O :  0.52  492H :  0.52  266H :  0.51  177H :  0.51  184O :  0.51  288H :  0.50  248H :  0.50  646O :  0.50  576H :  0.50  113H :  0.50  620H :  0.49  583O :  0.48
  315H :  0.47  222H :  0.47   47H :  0.47  480H :  0.46  502O :  0.45  563H :  0.45  324H :  0.45  147H :  0.44  101H :  0.44  748O :  0.43  392H :  0.43  219H :  0.42
  389H :  0.42  228H :  0.42   38H :  0.41  454O :  0.41  678H :  0.40   45H :  0.39  552H :  0.39  575H :  0.39  695H :  0.39   32H :  0.38  290H :  0.38   26H :  0.38
  468H :  0.38  607O :  0.38  201H :  0.37  643O :  0.37  632H :  0.36  139O :  0.36  726H :  0.36  615H :  0.35  366H :  0.35  536H :  0.35  537H :  0.35  417H :  0.35
  257H :  0.34  227H :  0.34  533H :  0.34   86H :  0.34  323H :  0.34  747H :  0.34  677H :  0.34  444H :  0.33  689H :  0.33  406O :  0.33   15H :  0.33  671H :  0.33
  173H :  0.32  363H :  0.32  119H :  0.31  597H :  0.31  521H :  0.31  174H :  0.31  194H :  0.31  399H :  0.31  332H :  0.30  293H :  0.30  233H :  0.29   48H :  0.29
  546H :  0.29  464H :  0.29  398H :  0.29  131H :  0.29  638H :  0.29  104H :  0.29  722H :  0.28  183H :  0.28  462H :  0.28  281H :  0.28  657H :  0.28  441H :  0.28
   36H :  0.27  402H :  0.27  578H :  0.27  203H :  0.27  376O :  0.27  714H :  0.27   30H :  0.26  642H :  0.26  665H :  0.26    2H :  0.26  284H :  0.26  212H :  0.26
  483H :  0.26  635H :  0.26  116H :  0.25   12H :  0.25  375H :  0.25   21H :  0.24   89H :  0.24  245H :  0.24  374H :  0.23    5H :  0.23  548H :  0.23  342H :  0.23
  610O :  0.23   60H :  0.23  356H :  0.22  542H :  0.22  656H :  0.22  681H :  0.22  264H :  0.22  593H :  0.22  321H :  0.21  516H :  0.21  668H :  0.21  423H :  0.21
  711H :  0.21  527H :  0.21  182H :  0.21  111H :  0.21  275H :  0.20  252H :  0.20  590H :  0.19  650H :  0.19  311H :  0.19  654H :  0.19  384H :  0.19  155H :  0.19
  317H :  0.19  753H :  0.18  140H :  0.18  234H :  0.18   39H :  0.18  503H :  0.18  477H :  0.18  294H :  0.18  582H :  0.17  125H :  0.17  411H :  0.17  449H :  0.17
  263H :  0.17  731H :  0.17  721O :  0.17  522H :  0.17   62H :  0.16  297H :  0.16  659H :  0.16  401H :  0.16  345H :  0.16  539H :  0.16  530H :  0.16  633H :  0.16
   93H :  0.16  128H :  0.15  486H :  0.15  519H :  0.15  180H :  0.15  570H :  0.15  602H :  0.15  224H :  0.15  273H :  0.15  269H :  0.15   14H :  0.14   98H :  0.14
  132H :  0.14    3H :  0.14  467H :  0.14  353H :  0.14  692H :  0.14  188H :  0.14  596H :  0.13  488H :  0.13  320H :  0.13   57H :  0.13   75H :  0.13  675H :  0.13
  150H :  0.13  243H :  0.13  551H :  0.13  684H :  0.12   18H :  0.12  170H :  0.12  557H :  0.12  419H :  0.12  707H :  0.12  335H :  0.12  369H :  0.12   99H :  0.12
  338H :  0.12  216H :  0.12  168H :  0.11  279H :  0.11   68H :  0.11   51H :  0.11  260H :  0.11  135H :  0.11  285H :  0.11  453H :  0.11  561H :  0.11  446H :  0.10
  515H :  0.10  608H :  0.10  407H :  0.10  357H :  0.10  348H :  0.10  507H :  0.10  152H :  0.10   44H :  0.10  474H :  0.10  729H :  0.10  254H :  0.10  156H :  0.10
  372H :  0.09  138H :  0.09  309H :  0.09   90H :  0.09  555H :  0.09  413H :  0.09  371H :  0.09  200H :  0.09  162H :  0.09  459H :  0.09  312H :  0.08  440H :  0.08
  393H :  0.08  612H :  0.08  554H :  0.08  705H :  0.08  450H :  0.08  531H :  0.08  314H :  0.08  581H :  0.08  428H :  0.08  641H :  0.08  381H :  0.07  302H :  0.07
  432H :  0.07  403O :  0.07  301O :  0.07  744H :  0.07  647H :  0.07  702H :  0.07  471H :  0.07
    7 LP   *******   0.00  66.09733   9.38270 -35.71317   31O : 17.62  541O : 16.92  373O : 16.37  370O : 15.72  697O : 14.78  499O : 13.31  739O : 11.03  289O : 10.77  151O : 10.47  130O : 10.05  550O : 10.04   16O : 10.00
  211O :  9.88  355O :  9.49  187O :  9.34  565O :  9.09  694O :  8.55  664O :  8.29  715O :  7.98  676O :  7.94  313O :  7.85  556O :  7.80  259O :  7.62  535O :  7.59
   37O :  7.53   46O :  7.46  685O :  7.36  265O :  7.29   19O :  7.27  442O :  7.12  712O :  7.11   61O :  7.01   58O :  6.95  436O :  6.83  661O :  6.83  238O :  6.82
  709O :  6.76   28O :  6.60  520O :  6.37   55O :  6.19  295O :  6.16    7O :  6.14   52O :  5.85  625O :  5.85  421O :  5.76   73O :  5.57  553O :  5.56  118O :  5.33
  247O :  5.33  490O :  5.29  292O :  5.16  100O :  5.14   25O :  5.13  361O :  5.12   34O :  5.11  178O :  5.04  163O :  5.04  580O :  4.96  319O :  4.94  127O :  4.93
  427O :  4.91  286O :  4.86  598O :  4.81  451O :  4.69  544O :  4.69  256O :  4.67  346O :  4.64  481O :  4.61  322O :  4.60  160O :  4.50  670O :  4.46  343O :  4.42
  415O :  4.36  466O :  4.31    1O :  4.29  349O :  4.26  106O :  4.25  742O :  4.16  202O :  4.08  412O :  4.04   82O :  3.92  622O :  3.91  460O :  3.90  253O :  3.88
  562O :  3.86  235O :  3.78  586O :  3.77  124O :  3.76  469O :  3.76  688O :  3.76  334O :  3.76  628O :  3.75  400O :  3.67  682O :  3.66   43O :  3.59   70O :  3.53
  205O :  3.52  538O :  3.51  277O :  3.51  532O :  3.47  718O :  3.44  367O :  3.43  226O :  3.40  175O :  3.31  634O :  3.28  475O :  3.23  484O :  3.21  112O :  3.18
  337O :  3.18   22O :  3.15  217O :  3.04  724O :  3.00  574O :  2.97  262O :  2.96  391O :  2.83  667O :  2.82  394O :  2.79  325O :  2.73  358O :  2.72  142O :  2.69
  430O :  2.68  379O :  2.66  523O :  2.65  148O :  2.65  304O :  2.62  250O :  2.58  691O :  2.52   97O :  2.52  754O :  2.47  109O :  2.45  115O :  2.43  328O :  2.43
  487O :  2.43  658O :  2.42  439O :  2.41  733O :  2.41  172O :  2.38  397O :  2.36  727O :  2.34  631O :  2.30   67O :  2.24  316O :  2.17  433O :  2.14  103O :  2.09
   85O :  2.08  508O :  2.08   88O :  2.05  331O :  2.02  592O :  2.02   49O :  1.97  655O :  1.93  220O :  1.93  619O :  1.91  505O :  1.88  577O :  1.87  271O :  1.86
   13O :  1.85  547O :  1.82  307O :  1.79  388O :  1.78  589O :  1.77  662H :  1.75  613O :  1.75   10O :  1.75  751O :  1.75  145O :  1.74  616O :  1.71  463O :  1.67
  181O :  1.60  418O :  1.59  382O :  1.59  268O :  1.58  745O :  1.57  274O :  1.57  166O :  1.54  157O :  1.53  478O :  1.50  568O :  1.49  193O :  1.49   53H :  1.49
  280O :  1.47  517O :  1.45  438H :  1.43  448O :  1.43  208O :  1.42  133O :  1.39  491H :  1.37  652O :  1.35  232O :  1.35  640O :  1.33  511O :  1.33  223O :  1.33
  336H :  1.32  214O :  1.30  559O :  1.29  445O :  1.27  500H :  1.27  340O :  1.25  424O :  1.23  649O :  1.22  588H :  1.22  190O :  1.20  601O :  1.16   94O :  1.16
  298O :  1.15   79O :  1.14  153H :  1.12  196O :  1.12  364O :  1.10  514O :  1.10  241O :  1.09  199O :  1.09  244O :  1.06  566H :  1.05  229O :  1.05  154O :  1.05
  529O :  1.04  493O :  1.03   40O :  1.02   74H :  1.01  352O :  1.01  310O :  1.00  385O :  1.00  706O :  0.97  350H :  0.95  261H :  0.95  526O :  0.94  434H :  0.93
  344H :  0.92  703O :  0.92  571O :  0.91  278H :  0.88  255H :  0.86  496O :  0.86   64O :  0.85  501H :  0.81  457O :  0.81  730O :  0.80  129H :  0.77  110H :  0.77
  679O :  0.75  637O :  0.74  595O :  0.71  604O :  0.71  422H :  0.70   20H :  0.68  693H :  0.67   76O :  0.66  736O :  0.66  169O :  0.65    4O :  0.64  136O :  0.64
  179H :  0.62  429H :  0.62  300H :  0.62  207H :  0.60  359H :  0.60  700O :  0.60  159H :  0.60  291H :  0.59  283O :  0.57  540H :  0.57  485H :  0.56  735H :  0.55
   91O :  0.55  249H :  0.55  121O :  0.54  717H :  0.53  687H :  0.53  699H :  0.52  472O :  0.52  409O :  0.52  165H :  0.52  725H :  0.52  120H :  0.51   54H :  0.50
  673O :  0.50  492H :  0.50  177H :  0.49  184O :  0.49  266H :  0.49  288H :  0.49  646O :  0.48  248H :  0.48  576H :  0.48  113H :  0.48   47H :  0.48  620H :  0.48
  583O :  0.46  315H :  0.45  222H :  0.45  480H :  0.44  502O :  0.44  563H :  0.43  324H :  0.43  147H :  0.42  101H :  0.42  748O :  0.42  392H :  0.41  219H :  0.41
   38H :  0.41  389H :  0.41  228H :  0.40  454O :  0.39  678H :  0.38   45H :  0.38  552H :  0.37  575H :  0.37  695H :  0.37   32H :  0.37  290H :  0.37   26H :  0.37
  468H :  0.36  607O :  0.36  201H :  0.36  643O :  0.36  632H :  0.35  139O :  0.34  615H :  0.34  726H :  0.34  366H :  0.34  536H :  0.34  537H :  0.34  417H :  0.33
  257H :  0.33  227H :  0.33  533H :  0.33   86H :  0.33  323H :  0.33  444H :  0.32  747H :  0.32  689H :  0.32  406O :  0.32   15H :  0.32  212H :  0.32  671H :  0.31
  173H :  0.31  363H :  0.30  119H :  0.30  597H :  0.30  521H :  0.30  174H :  0.30  194H :  0.30  399H :  0.30   48H :  0.29  332H :  0.28  293H :  0.28  233H :  0.28
  546H :  0.28  464H :  0.28  398H :  0.28  131H :  0.28  104H :  0.28  722H :  0.27  183H :  0.27  462H :  0.27  281H :  0.27  657H :  0.27  441H :  0.26   36H :  0.26
  402H :  0.26  578H :  0.26  203H :  0.26  376O :  0.26  714H :  0.26   30H :  0.25  642H :  0.25  665H :  0.25    2H :  0.25  284H :  0.25  483H :  0.25  635H :  0.25
  116H :  0.24   12H :  0.24  375H :  0.24   21H :  0.23   89H :  0.23  245H :  0.23  374H :  0.22    5H :  0.22  342H :  0.22  548H :  0.22  638H :  0.22  610O :  0.22
   60H :  0.22  356H :  0.22  656H :  0.21  681H :  0.21  264H :  0.21  593H :  0.21  321H :  0.20  516H :  0.20  668H :  0.20  423H :  0.20  711H :  0.20  527H :  0.20
  182H :  0.20  111H :  0.20  252H :  0.19  275H :  0.19  590H :  0.18  650H :  0.18  311H :  0.18  654H :  0.18  384H :  0.18  155H :  0.18  317H :  0.18  677H :  0.18
  753H :  0.18  140H :  0.18  234H :  0.18   39H :  0.18  503H :  0.17  477H :  0.17  294H :  0.17  582H :  0.17  125H :  0.17  411H :  0.17  449H :  0.16  263H :  0.16
  731H :  0.16  721O :  0.16  522H :  0.16  542H :  0.16   62H :  0.16  297H :  0.16  659H :  0.16  401H :  0.16  345H :  0.15  539H :  0.15  530H :  0.15  633H :  0.15
   93H :  0.15  128H :  0.15  486H :  0.15  519H :  0.15  180H :  0.15  570H :  0.14  602H :  0.14  224H :  0.14  273H :  0.14  269H :  0.14   14H :  0.14   98H :  0.14
  132H :  0.14    3H :  0.14  467H :  0.14  353H :  0.13  692H :  0.13  188H :  0.13  596H :  0.12  488H :  0.12  320H :  0.12   57H :  0.12   75H :  0.12  675H :  0.12
  150H :  0.12  243H :  0.12  551H :  0.12  684H :  0.12   18H :  0.12  170H :  0.12  557H :  0.11  419H :  0.11  707H :  0.11  335H :  0.11  369H :  0.11   99H :  0.11
  338H :  0.11  216H :  0.11  168H :  0.11  279H :  0.11   68H :  0.11   51H :  0.11  260H :  0.11  135H :  0.10  285H :  0.10  453H :  0.10  561H :  0.10  446H :  0.10
  515H :  0.10  608H :  0.10  407H :  0.10  543H :  0.10  357H :  0.10  348H :  0.10  507H :  0.10  152H :  0.09   44H :  0.09  474H :  0.09  729H :  0.09  254H :  0.09
  156H :  0.09  372H :  0.09  309H :  0.09  138H :  0.09   90H :  0.09  555H :  0.08  413H :  0.08  371H :  0.08  200H :  0.08  393H :  0.08  162H :  0.08  459H :  0.08
  312H :  0.08  440H :  0.08  612H :  0.08  554H :  0.08  705H :  0.08  450H :  0.08  531H :  0.08  314H :  0.08  581H :  0.07  428H :  0.07  641H :  0.07  302H :  0.07
  381H :  0.07  213H :  0.07  432H :  0.07  403O :  0.07  301O :  0.07
    8 LP   *******   0.00  25.51175 -45.52910 -46.01198   31O : 17.29  373O : 16.06  370O : 15.42  697O : 14.49  541O : 13.82  151O : 13.56  499O : 13.06  739O : 10.81  289O : 10.57  130O :  9.87  550O :  9.85   16O :  9.81
  211O :  9.70  355O :  9.31  187O :  9.16  565O :  8.92  694O :  8.39  664O :  8.14  676O :  8.07  715O :  7.84  313O :  7.70  556O :  7.65  259O :  7.47  535O :  7.45
   37O :  7.38   46O :  7.32  685O :  7.23  265O :  7.15   19O :  7.14  442O :  6.98  712O :  6.97   61O :  6.88   58O :  6.82  661O :  6.71  436O :  6.70  238O :  6.69
  709O :  6.63   28O :  6.48  520O :  6.25   55O :  6.07  295O :  6.05    7O :  6.02   52O :  5.74  625O :  5.74  421O :  5.65   73O :  5.47  553O :  5.45  118O :  5.24
  247O :  5.23  490O :  5.20  292O :  5.06   25O :  5.05  100O :  5.04  361O :  5.02   34O :  5.02  178O :  4.95  163O :  4.94  580O :  4.87  319O :  4.85  127O :  4.84
  427O :  4.81  286O :  4.77  598O :  4.72  451O :  4.61  544O :  4.60  256O :  4.58  346O :  4.55  481O :  4.52  322O :  4.51  160O :  4.42  670O :  4.37  343O :  4.34
  415O :  4.28  466O :  4.23    1O :  4.21  349O :  4.18  106O :  4.17  742O :  4.08  202O :  4.00  412O :  3.96  622O :  3.84  460O :  3.83  253O :  3.81  562O :  3.79
   82O :  3.76  235O :  3.71  586O :  3.70  124O :  3.69  469O :  3.69  688O :  3.69  334O :  3.69  628O :  3.68  682O :  3.59   43O :  3.52   70O :  3.46  205O :  3.45
  538O :  3.44  277O :  3.44  532O :  3.40  718O :  3.37  367O :  3.37  226O :  3.34  400O :  3.30  175O :  3.25  634O :  3.22  475O :  3.17  484O :  3.15  112O :  3.12
  337O :  3.12   22O :  3.09  217O :  2.98  724O :  2.95  574O :  2.94  262O :  2.90  667O :  2.77  391O :  2.75  394O :  2.74  325O :  2.68  358O :  2.66  142O :  2.64
  430O :  2.63  379O :  2.61  523O :  2.60  148O :  2.60  304O :  2.57  250O :  2.53  691O :  2.47   97O :  2.47  754O :  2.43  109O :  2.41  115O :  2.39  328O :  2.38
  487O :  2.38  658O :  2.37  439O :  2.36  733O :  2.36  172O :  2.33  397O :  2.31  727O :  2.30  631O :  2.24   67O :  2.20  316O :  2.13  433O :  2.10  103O :  2.05
   85O :  2.04  508O :  2.04   88O :  2.02  331O :  1.99  592O :  1.98   49O :  1.94  655O :  1.90  220O :  1.90  619O :  1.87  271O :  1.85  505O :  1.84  577O :  1.83
   13O :  1.81  547O :  1.79  307O :  1.76  388O :  1.75  589O :  1.74  662H :  1.72   10O :  1.72  751O :  1.71  613O :  1.71  145O :  1.71  616O :  1.68  463O :  1.59
  181O :  1.57  418O :  1.56  382O :  1.56  268O :  1.55  745O :  1.55  274O :  1.54  166O :  1.51  157O :  1.51  478O :  1.49  568O :  1.46  193O :  1.46   53H :  1.46
  280O :  1.44  517O :  1.42  438H :  1.41  448O :  1.41  208O :  1.39  133O :  1.36  491H :  1.34  652O :  1.33  232O :  1.33  640O :  1.31  511O :  1.31  223O :  1.31
  336H :  1.30  214O :  1.27  559O :  1.26  445O :  1.25  500H :  1.24  340O :  1.23  424O :  1.21  649O :  1.20  588H :  1.20  190O :  1.18  601O :  1.14   94O :  1.13
  298O :  1.13   79O :  1.12  196O :  1.10  364O :  1.08  514O :  1.08  241O :  1.07  199O :  1.07  244O :  1.04  566H :  1.03  229O :  1.03  154O :  1.02  529O :  1.02
  493O :  1.02   40O :  1.00   74H :  1.00  153H :  1.00  352O :  0.99  310O :  0.98  385O :  0.98  706O :  0.96  350H :  0.94  261H :  0.94  526O :  0.93  434H :  0.91
  344H :  0.90  703O :  0.90  571O :  0.90  278H :  0.86  255H :  0.85  496O :  0.84   64O :  0.83  501H :  0.80  457O :  0.80  730O :  0.78  129H :  0.75  637O :  0.75
  110H :  0.75  679O :  0.73  595O :  0.70  604O :  0.69  422H :  0.68   20H :  0.67  693H :  0.66   76O :  0.65  736O :  0.64  169O :  0.64    4O :  0.63  136O :  0.62
  179H :  0.61  429H :  0.61  300H :  0.60  207H :  0.59  359H :  0.59  700O :  0.59  159H :  0.58  291H :  0.58  283O :  0.56  540H :  0.56  485H :  0.55  735H :  0.54
   91O :  0.54  249H :  0.54  717H :  0.52  687H :  0.52  121O :  0.51  472O :  0.51  409O :  0.51  699H :  0.51  165H :  0.51  725H :  0.50  120H :  0.50   54H :  0.49
  673O :  0.49  492H :  0.49  266H :  0.48  177H :  0.48  184O :  0.48  288H :  0.48  646O :  0.48  248H :  0.48  113H :  0.47   47H :  0.47  620H :  0.47  583O :  0.45
  315H :  0.45  222H :  0.45  576H :  0.45  480H :  0.44  502O :  0.43  563H :  0.42  324H :  0.42  147H :  0.42  101H :  0.41  748O :  0.41  392H :  0.41   38H :  0.40
  219H :  0.40  389H :  0.40  228H :  0.39  454O :  0.38  678H :  0.38   45H :  0.37  552H :  0.37  695H :  0.37   32H :  0.36  290H :  0.36   26H :  0.36  575H :  0.36
  468H :  0.36  607O :  0.36  201H :  0.35  643O :  0.35  632H :  0.35  726H :  0.34  139O :  0.34  615H :  0.33  366H :  0.33  536H :  0.33  537H :  0.33  417H :  0.33
  257H :  0.32  227H :  0.32  533H :  0.32   86H :  0.32  323H :  0.32  677H :  0.32  444H :  0.32  689H :  0.31  406O :  0.31  747H :  0.31   15H :  0.31  212H :  0.31
  671H :  0.31  173H :  0.30  363H :  0.30  119H :  0.30  597H :  0.30  521H :  0.30  174H :  0.29  194H :  0.29  399H :  0.29   48H :  0.28  332H :  0.28  293H :  0.28
  233H :  0.28  546H :  0.28  464H :  0.27  398H :  0.27  131H :  0.27  638H :  0.27  104H :  0.27  722H :  0.27  183H :  0.27  462H :  0.27  281H :  0.27  657H :  0.27
  441H :  0.26   36H :  0.26  578H :  0.26  203H :  0.26  376O :  0.25  714H :  0.25   30H :  0.25  642H :  0.25  665H :  0.25    2H :  0.24  284H :  0.24  483H :  0.24
  635H :  0.24  116H :  0.23   12H :  0.23  375H :  0.23   21H :  0.23   89H :  0.23  245H :  0.22  374H :  0.22    5H :  0.22  342H :  0.22  548H :  0.22  610O :  0.22
   60H :  0.21  356H :  0.21  542H :  0.21  656H :  0.20  681H :  0.20  593H :  0.20  264H :  0.20  516H :  0.20  321H :  0.20  668H :  0.20  423H :  0.20  711H :  0.20
  527H :  0.20  182H :  0.19  111H :  0.19  275H :  0.19  252H :  0.19  590H :  0.18  650H :  0.18  311H :  0.18  654H :  0.18  384H :  0.18  155H :  0.18  317H :  0.18
  753H :  0.17  234H :  0.17  140H :  0.17   39H :  0.17  503H :  0.17  477H :  0.17  294H :  0.17  582H :  0.17  125H :  0.16  411H :  0.16  449H :  0.16  263H :  0.16
  731H :  0.16  721O :  0.16  522H :  0.16   62H :  0.16  297H :  0.15  659H :  0.15  401H :  0.15  345H :  0.15  539H :  0.15  530H :  0.15   93H :  0.15  128H :  0.15
  633H :  0.14  486H :  0.14  519H :  0.14  180H :  0.14  570H :  0.14  602H :  0.14  224H :  0.14  273H :  0.14  269H :  0.14   14H :  0.14   98H :  0.14  132H :  0.13
    3H :  0.13  467H :  0.13  353H :  0.13  402H :  0.13  692H :  0.13  188H :  0.13  596H :  0.12  488H :  0.12  320H :  0.12   57H :  0.12  675H :  0.12   75H :  0.12
  150H :  0.12  243H :  0.12  551H :  0.12  684H :  0.12   18H :  0.12  170H :  0.11  557H :  0.11  419H :  0.11  707H :  0.11  335H :  0.11  369H :  0.11   99H :  0.11
  338H :  0.11  216H :  0.11  168H :  0.11  279H :  0.11   68H :  0.11   51H :  0.11  260H :  0.10  135H :  0.10  285H :  0.10  453H :  0.10  561H :  0.10  446H :  0.10
  515H :  0.10  608H :  0.10  407H :  0.10  357H :  0.10  348H :  0.10  507H :  0.09   44H :  0.09  474H :  0.09  254H :  0.09  729H :  0.09  156H :  0.09  372H :  0.09
  138H :  0.09   90H :  0.09  309H :  0.09  555H :  0.08  413H :  0.08  371H :  0.08  200H :  0.08  162H :  0.08  459H :  0.08  312H :  0.08  393H :  0.08  612H :  0.08
  440H :  0.08  554H :  0.08  705H :  0.08  450H :  0.08  531H :  0.08  314H :  0.07  581H :  0.07  428H :  0.07  641H :  0.07  381H :  0.07  302H :  0.07  213H :  0.07
  432H :  0.07
    9 LP   *******   0.00  -5.02936 -31.38825  26.32792   31O : 16.92  370O : 15.91  373O : 15.73  697O : 14.19  541O : 13.52  499O : 12.47  739O : 10.58  289O : 10.34  151O : 10.06  130O :  9.66  550O :  9.64   16O :  9.60
  211O :  9.49  355O :  9.11  187O :  8.97  565O :  8.73  694O :  8.21  664O :  7.97  676O :  7.89  715O :  7.67  313O :  7.54  556O :  7.49  259O :  7.32  535O :  7.29
   37O :  7.24   46O :  7.16  265O :  7.00   19O :  6.98  685O :  6.91  442O :  6.83  712O :  6.83   61O :  6.74   58O :  6.67  661O :  6.57  436O :  6.56  238O :  6.55
  709O :  6.49   28O :  6.34  520O :  6.11   55O :  5.95  295O :  5.92    7O :  5.90   52O :  5.62  625O :  5.62  421O :  5.53   73O :  5.35  553O :  5.34  118O :  5.13
  247O :  5.12  490O :  5.09  292O :  4.96  100O :  4.93   25O :  4.93  361O :  4.91   34O :  4.91  178O :  4.84  163O :  4.84  580O :  4.76  319O :  4.74  127O :  4.74
  427O :  4.71  286O :  4.67  598O :  4.62  451O :  4.51  544O :  4.51  256O :  4.49  346O :  4.46  481O :  4.42  322O :  4.42  160O :  4.33  670O :  4.28  343O :  4.25
  415O :  4.18  466O :  4.14    1O :  4.12  349O :  4.09  106O :  4.08  742O :  3.99  202O :  3.92  412O :  3.88   82O :  3.77  622O :  3.75  460O :  3.75  253O :  3.73
  562O :  3.71  586O :  3.63  235O :  3.63  124O :  3.62  469O :  3.62  688O :  3.61  334O :  3.61  628O :  3.61  400O :  3.53  682O :  3.52   43O :  3.44   70O :  3.39
  205O :  3.38  538O :  3.37  277O :  3.37  532O :  3.33  718O :  3.30  367O :  3.30  226O :  3.26  175O :  3.18  634O :  3.15  475O :  3.10  484O :  3.08  112O :  3.05
   22O :  3.03  337O :  3.00  217O :  2.92  724O :  2.89  574O :  2.85  262O :  2.84  667O :  2.71  391O :  2.70  394O :  2.68  325O :  2.62  358O :  2.61  142O :  2.58
  430O :  2.58  379O :  2.55  523O :  2.55  148O :  2.54  304O :  2.52  250O :  2.48  691O :  2.42   97O :  2.42  754O :  2.38  109O :  2.36  115O :  2.34  328O :  2.33
  487O :  2.33  658O :  2.32  439O :  2.31  733O :  2.31  172O :  2.29  397O :  2.26  727O :  2.25  631O :  2.21   67O :  2.16  316O :  2.09  433O :  2.06  103O :  2.01
   85O :  2.00  508O :  1.99   88O :  1.97  331O :  1.94  592O :  1.94   49O :  1.90  220O :  1.86  655O :  1.86  619O :  1.83  271O :  1.81  505O :  1.81  577O :  1.79
   13O :  1.78  547O :  1.75  307O :  1.72  388O :  1.71  589O :  1.70  662H :  1.69   10O :  1.68  751O :  1.68  613O :  1.68  145O :  1.67  616O :  1.64  463O :  1.61
  181O :  1.54  418O :  1.53  382O :  1.53  268O :  1.52  745O :  1.51  274O :  1.51  166O :  1.47  157O :  1.47  478O :  1.44  568O :  1.43  193O :  1.43   53H :  1.43
  280O :  1.41  517O :  1.39  448O :  1.38  438H :  1.38  208O :  1.36  133O :  1.33  491H :  1.31  652O :  1.30  232O :  1.29  640O :  1.28  511O :  1.28  223O :  1.28
  336H :  1.27  214O :  1.25  559O :  1.24  445O :  1.22  500H :  1.21  340O :  1.20  424O :  1.18  649O :  1.17  588H :  1.17   94O :  1.12  601O :  1.11  298O :  1.10
   79O :  1.10  153H :  1.08  196O :  1.08  364O :  1.06  190O :  1.06  514O :  1.05  241O :  1.05  199O :  1.05  244O :  1.02  566H :  1.01  229O :  1.01  154O :  1.00
  529O :  1.00  493O :  0.99   40O :  0.98   74H :  0.97  352O :  0.97  310O :  0.96  385O :  0.96  706O :  0.94  350H :  0.92  261H :  0.92  526O :  0.91  434H :  0.89
  344H :  0.89  703O :  0.88  571O :  0.88  278H :  0.84  255H :  0.83  496O :  0.83   64O :  0.81  501H :  0.78  457O :  0.78  730O :  0.77  129H :  0.74  637O :  0.74
  110H :  0.74  679O :  0.72  595O :  0.68  604O :  0.68  422H :  0.67   20H :  0.65  693H :  0.64   76O :  0.63  736O :  0.63  169O :  0.63    4O :  0.62  136O :  0.61
  179H :  0.60  429H :  0.60  300H :  0.59  207H :  0.58  359H :  0.58  700O :  0.57  159H :  0.57  291H :  0.56  283O :  0.55  540H :  0.55  485H :  0.54  735H :  0.53
   91O :  0.53  249H :  0.53  121O :  0.52  717H :  0.51  472O :  0.50  409O :  0.50  699H :  0.50  165H :  0.50  725H :  0.49  120H :  0.49  687H :  0.49   54H :  0.48
[...]
   370   8 o    1.840 --   372 h    0.858   371 h    0.808
   371   1 h    0.888 --   370 o    0.808
   372   1 h    0.896 --   370 o    0.858
   373   8 o    1.827 --   374 h    0.900   375 h    0.826
   374   1 h    0.911 --   373 o    0.900
   375   1 h    0.880 --   373 o    0.826
   376   8 o    1.829 --   377 h    0.858   378 h    0.805
   377   1 h    0.899 --   376 o    0.858
   378   1 h    0.876 --   376 o    0.805
   379   8 o    1.808 --   381 h    0.854   380 h    0.820
   380   1 h    0.882 --   379 o    0.820
   381   1 h    0.895 --   379 o    0.854
   382   8 o    1.865 --   383 h    0.835   384 h    0.834
   383   1 h    0.888 --   382 o    0.835
   384   1 h    0.889 --   382 o    0.834
   385   8 o    1.853 --   386 h    0.854   387 h    0.838
   386   1 h    0.887 --   385 o    0.854
   387   1 h    0.878 --   385 o    0.838
   388   8 o    1.830 --   389 h    0.868   390 h    0.828
   389   1 h    0.901 --   388 o    0.868
   390   1 h    0.885 --   388 o    0.828
   391   8 o    1.872 --   393 h    0.871   392 h    0.847
   392   1 h    0.895 --   391 o    0.847
   393   1 h    0.898 --   391 o    0.871
   394   8 o    1.855 --   395 h    0.840   396 h    0.801
   395   1 h    0.893 --   394 o    0.840
   396   1 h    0.880 --   394 o    0.801
   397   8 o    1.808 --   399 h    0.874   398 h    0.842
   398   1 h    0.892 --   397 o    0.842
   399   1 h    0.897 --   397 o    0.874
   400   8 o    1.848 --   402 h    0.819   401 h    0.806
   401   1 h    0.883 --   400 o    0.806
   402   1 h    0.889 --   400 o    0.819
   403   8 o    1.837 --   405 h    0.843   404 h    0.807
   404   1 h    0.877 --   403 o    0.807
   405   1 h    0.888 --   403 o    0.843
   406   8 o    1.858 --   408 h    0.803   407 h    0.794
   407   1 h    0.873 --   406 o    0.794
   408   1 h    0.885 --   406 o    0.803
   409   8 o    1.880 --   411 h    0.816   410 h    0.814
   410   1 h    0.886 --   409 o    0.814
   411   1 h    0.886 --   409 o    0.816
   412   8 o    1.817 --   414 h    0.828   413 h    0.801
   413   1 h    0.882 --   412 o    0.801
   414   1 h    0.882 --   412 o    0.828
   415   8 o    1.854 --   417 h    0.903   416 h    0.786
   416   1 h    0.874 --   415 o    0.786
   417   1 h    0.910 --   415 o    0.903
   418   8 o    1.854 --   419 h    0.889   420 h    0.799
   419   1 h    0.905 --   418 o    0.889
   420   1 h    0.875 --   418 o    0.799
   421   8 o    1.863 --   422 h    0.885   423 h    0.813
   422   1 h    0.903 --   421 o    0.885
   423   1 h    0.885 --   421 o    0.813
   424   8 o    1.849 --   425 h    0.847   426 h    0.831
   425   1 h    0.892 --   424 o    0.847
   426   1 h    0.888 --   424 o    0.831
   427   8 o    1.856 --   428 h    0.819   429 h    0.810
   428   1 h    0.892 --   427 o    0.819
   429   1 h    0.879 --   427 o    0.810
   430   8 o    1.882 --   432 h    0.816   431 h    0.805
   431   1 h    0.877 --   430 o    0.805
   432   1 h    0.880 --   430 o    0.816
   433   8 o    1.844 --   434 h    0.844   435 h    0.816
   434   1 h    0.885 --   433 o    0.844
   435   1 h    0.890 --   433 o    0.816
   436   8 o    1.866 --   437 h    0.840   438 h    0.825
   437   1 h    0.884 --   436 o    0.840
   438   1 h    0.886 --   436 o    0.825
   439   8 o    1.856 --   441 h    0.813   440 h    0.808
   440   1 h    0.874 --   439 o    0.808
   441   1 h    0.876 --   439 o    0.813
   442   8 o    1.850 --   443 h    0.870   444 h    0.803
   443   1 h    0.900 --   442 o    0.870
   444   1 h    0.878 --   442 o    0.803
   445   8 o    1.873 --   447 h    0.907   446 h    0.825
   446   1 h    0.879 --   445 o    0.825
   447   1 h    0.912 --   445 o    0.907
   448   8 o    1.822 --   450 h    0.912   449 h    0.820
   449   1 h    0.889 --   448 o    0.820
   450   1 h    0.916 --   448 o    0.912
   451   8 o    1.853 --   453 h    0.897   452 h    0.830
   452   1 h    0.888 --   451 o    0.830
   453   1 h    0.905 --   451 o    0.897
   454   8 o    1.851 --   455 h    0.841   456 h    0.780
   455   1 h    0.895 --   454 o    0.841
   456   1 h    0.877 --   454 o    0.780
   457   8 o    1.859 --   459 h    0.841   458 h    0.833
   458   1 h    0.882 --   457 o    0.833
   459   1 h    0.893 --   457 o    0.841
   460   8 o    1.878 --   461 h    0.822   462 h    0.808
   461   1 h    0.891 --   460 o    0.822
   462   1 h    0.880 --   460 o    0.808
   463   8 o    1.846 --   465 h    0.852   464 h    0.829
   464   1 h    0.891 --   463 o    0.829
   465   1 h    0.892 --   463 o    0.852
   466   8 o    1.841 --   468 h    0.855   467 h    0.853
   467   1 h    0.887 --   466 o    0.853
   468   1 h    0.895 --   466 o    0.855
   469   8 o    1.842 --   470 h    0.828   471 h    0.805
   470   1 h    0.893 --   469 o    0.828
   471   1 h    0.876 --   469 o    0.805
   472   8 o    1.835 --   473 h    0.854   474 h    0.838
   473   1 h    0.898 --   472 o    0.854
   474   1 h    0.892 --   472 o    0.838
   475   8 o    1.835 --   477 h    0.847   476 h    0.846
   476   1 h    0.887 --   475 o    0.846
   477   1 h    0.890 --   475 o    0.847
   478   8 o    1.874 --   479 h    0.833   480 h    0.806
   479   1 h    0.888 --   478 o    0.833
   480   1 h    0.885 --   478 o    0.806
   481   8 o    1.887 --   482 h    0.804   483 h    0.793
   482   1 h    0.880 --   481 o    0.804
   483   1 h    0.878 --   481 o    0.793
   484   8 o    1.858 --   485 h    0.906   486 h    0.780
   485   1 h    0.909 --   484 o    0.906
   486   1 h    0.873 --   484 o    0.780
   487   8 o    1.852 --   488 h    0.825   489 h    0.800
   488   1 h    0.886 --   487 o    0.825
   489   1 h    0.878 --   487 o    0.800
   490   8 o    1.823 --   491 h    0.861   492 h    0.835
   491   1 h    0.902 --   490 o    0.861
   492   1 h    0.891 --   490 o    0.835
   493   8 o    1.885 --   494 h    0.864   495 h    0.803   729 h    0.102
   494   1 h    0.896 --   493 o    0.864
   495   1 h    0.874 --   493 o    0.803
   496   8 o    1.852 --   498 h    0.820   497 h    0.803
   497   1 h    0.874 --   496 o    0.803
   498   1 h    0.890 --   496 o    0.820
   499   8 o    1.856 --   500 h    0.870   501 h    0.838
   500   1 h    0.900 --   499 o    0.870
   501   1 h    0.893 --   499 o    0.838
   502   8 o    1.854 --   503 h    0.869   504 h    0.815
   503   1 h    0.897 --   502 o    0.869
   504   1 h    0.877 --   502 o    0.815
   505   8 o    1.815 --   506 h    0.908   507 h    0.850
   506   1 h    0.911 --   505 o    0.908
   507   1 h    0.890 --   505 o    0.850
   508   8 o    1.810 --   510 h    0.874   509 h    0.859
   509   1 h    0.894 --   508 o    0.859
   510   1 h    0.896 --   508 o    0.874
   511   8 o    1.851 --   513 h    0.797   512 h    0.793
   512   1 h    0.879 --   511 o    0.793
   513   1 h    0.884 --   511 o    0.797
   514   8 o    1.854 --   516 h    0.869   515 h    0.851
   515   1 h    0.892 --   514 o    0.851
   516   1 h    0.898 --   514 o    0.869
   517   8 o    1.853 --   519 h    0.843   518 h    0.816
   518   1 h    0.878 --   517 o    0.816
   519   1 h    0.896 --   517 o    0.843
   520   8 o    1.853 --   522 h    0.861   521 h    0.854
   521   1 h    0.897 --   520 o    0.854
   522   1 h    0.895 --   520 o    0.861
   523   8 o    1.833 --   525 h    0.850   524 h    0.836
   524   1 h    0.892 --   523 o    0.836
   525   1 h    0.895 --   523 o    0.850
   526   8 o    1.852 --   528 h    0.890   527 h    0.808
   527   1 h    0.880 --   526 o    0.808
   528   1 h    0.906 --   526 o    0.890
   529   8 o    1.877 --   530 h    0.899   531 h    0.802
   530   1 h    0.908 --   529 o    0.899
   531   1 h    0.876 --   529 o    0.802
   532   8 o    1.870 --   533 h    0.836   534 h    0.833
   533   1 h    0.889 --   532 o    0.836
   534   1 h    0.890 --   532 o    0.833
   535   8 o    1.827 --   537 h    0.897   536 h    0.842
   536   1 h    0.883 --   535 o    0.842
   537   1 h    0.912 --   535 o    0.897
   538   8 o    1.842 --   539 h    0.831   540 h    0.790
   539   1 h    0.892 --   538 o    0.831
   540   1 h    0.876 --   538 o    0.790
   541   8 o    1.863 --   542 h    0.871   543 h    0.803
   542   1 h    0.898 --   541 o    0.871
   543   1 h    0.886 --   541 o    0.803
   544   8 o    1.832 --   546 h    0.849   545 h    0.827
   545   1 h    0.888 --   544 o    0.827
   546   1 h    0.890 --   544 o    0.849
   547   8 o    1.878 --   549 h    0.910   548 h    0.821
   548   1 h    0.876 --   547 o    0.821
   549   1 h    0.914 --   547 o    0.910
   550   8 o    1.864 --   551 h    0.886   552 h    0.865
   551   1 h    0.899 --   550 o    0.886
   552   1 h    0.893 --   550 o    0.865
   553   8 o    1.855 --   554 h    0.888   555 h    0.822
   554   1 h    0.903 --   553 o    0.888
   555   1 h    0.883 --   553 o    0.822
   556   8 o    1.827 --   558 h    0.866   557 h    0.847
   557   1 h    0.891 --   556 o    0.847
   558   1 h    0.900 --   556 o    0.866
   559   8 o    1.837 --   561 h    0.892   560 h    0.801
   560   1 h    0.872 --   559 o    0.801
   561   1 h    0.906 --   559 o    0.892
   562   8 o    1.854 --   563 h    0.889   564 h    0.861
   563   1 h    0.901 --   562 o    0.889
   564   1 h    0.896 --   562 o    0.861
   565   8 o    1.850 --   567 h    0.830   566 h    0.788
   566   1 h    0.878 --   565 o    0.788
   567   1 h    0.886 --   565 o    0.830
   568   8 o    1.820 --   570 h    0.862   569 h    0.837
   569   1 h    0.885 --   568 o    0.837
   570   1 h    0.895 --   568 o    0.862
   571   8 o    1.844 --   572 h    0.914   573 h    0.816
   572   1 h    0.919 --   571 o    0.914
   573   1 h    0.883 --   571 o    0.816
   574   8 o    1.853 --   575 h    0.823   576 h    0.817
   575   1 h    0.887 --   574 o    0.823
   576   1 h    0.881 --   574 o    0.817
   577   8 o    1.861 --   579 h    0.816   578 h    0.794
   578   1 h    0.874 --   577 o    0.794
   579   1 h    0.881 --   577 o    0.816
   580   8 o    1.839 --   582 h    0.897   581 h    0.790
   581   1 h    0.875 --   580 o    0.790
   582   1 h    0.909 --   580 o    0.897
   583   8 o    1.872 --   584 h    0.806   585 h    0.795
   584   1 h    0.879 --   583 o    0.806
   585   1 h    0.876 --   583 o    0.795
   586   8 o    1.828 --   587 h    0.852   588 h    0.835
   587   1 h    0.893 --   586 o    0.852
   588   1 h    0.890 --   586 o    0.835
   589   8 o    1.853 --   591 h    0.860   590 h    0.840
   590   1 h    0.886 --   589 o    0.840
   591   1 h    0.896 --   589 o    0.860
   592   8 o    1.806 --   594 h    0.877   593 h    0.841
   593   1 h    0.892 --   592 o    0.841
   594   1 h    0.900 --   592 o    0.877
   595   8 o    1.861 --   597 h    0.858   596 h    0.823
   596   1 h    0.881 --   595 o    0.823
   597   1 h    0.895 --   595 o    0.858
   598   8 o    1.840 --   600 h    0.904   599 h    0.793
   599   1 h    0.873 --   598 o    0.793
   600   1 h    0.913 --   598 o    0.904
   601   8 o    1.854 --   603 h    0.853   602 h    0.840
   602   1 h    0.894 --   601 o    0.840
   603   1 h    0.894 --   601 o    0.853
   604   8 o    1.854 --   606 h    0.818   605 h    0.806
   605   1 h    0.876 --   604 o    0.806
   606   1 h    0.889 --   604 o    0.818
   607   8 o    1.806 --   608 h    0.860   609 h    0.843
   608   1 h    0.897 --   607 o    0.860
   609   1 h    0.885 --   607 o    0.843
   610   8 o    1.849 --   611 h    0.872   612 h    0.838
   611   1 h    0.893 --   610 o    0.872
   612   1 h    0.890 --   610 o    0.838
   613   8 o    1.855 --   615 h    0.849   614 h    0.846
   614   1 h    0.888 --   613 o    0.846
   615   1 h    0.890 --   613 o    0.849
   616   8 o    1.823 --   617 h    0.825   618 h    0.808
   617   1 h    0.894 --   616 o    0.825
   618   1 h    0.882 --   616 o    0.808
   619   8 o    1.867 --   620 h    0.836   621 h    0.822
   620   1 h    0.887 --   619 o    0.836
   621   1 h    0.879 --   619 o    0.822
   622   8 o    1.852 --   623 h    0.861   624 h    0.835
   623   1 h    0.902 --   622 o    0.861
   624   1 h    0.893 --   622 o    0.835
   625   8 o    1.876 --   626 h    0.853   627 h    0.816
   626   1 h    0.889 --   625 o    0.853
   627   1 h    0.874 --   625 o    0.816
   628   8 o    1.849 --   629 h    0.849   630 h    0.828
   629   1 h    0.897 --   628 o    0.849
   630   1 h    0.881 --   628 o    0.828
   631   8 o    1.834 --   632 h    0.823   633 h    0.810
   632   1 h    0.885 --   631 o    0.823
   633   1 h    0.880 --   631 o    0.810
   634   8 o    1.853 --   635 h    0.836   636 h    0.813
   635   1 h    0.892 --   634 o    0.836
   636   1 h    0.881 --   634 o    0.813
   637   8 o    1.860 --   639 h    0.868   638 h    0.849
   638   1 h    0.891 --   637 o    0.849
   639   1 h    0.891 --   637 o    0.868
   640   8 o    1.869 --   641 h    0.834   642 h    0.831
   641   1 h    0.894 --   640 o    0.834
   642   1 h    0.876 --   640 o    0.831
   643   8 o    1.875 --   644 h    0.866   645 h    0.785
   644   1 h    0.893 --   643 o    0.866
   645   1 h    0.870 --   643 o    0.785
   646   8 o    1.842 --   647 h    0.895   648 h    0.801
   647   1 h    0.909 --   646 o    0.895
   648   1 h    0.876 --   646 o    0.801
   649   8 o    1.864 --   651 h    0.881   650 h    0.827
   650   1 h    0.886 --   649 o    0.827
   651   1 h    0.898 --   649 o    0.881
   652   8 o    1.880 --   654 h    0.880   653 h    0.813
   653   1 h    0.881 --   652 o    0.813
   654   1 h    0.899 --   652 o    0.880
   655   8 o    1.864 --   657 h    0.902   656 h    0.831
   656   1 h    0.881 --   655 o    0.831
   657   1 h    0.909 --   655 o    0.902
   658   8 o    1.845 --   659 h    0.827   660 h    0.823
   659   1 h    0.890 --   658 o    0.827
   660   1 h    0.877 --   658 o    0.823
   661   8 o    1.860 --   662 h    0.881   663 h    0.837
   662   1 h    0.901 --   661 o    0.881
   663   1 h    0.892 --   661 o    0.837
   664   8 o    1.849 --   665 h    0.835   666 h    0.819
   665   1 h    0.890 --   664 o    0.835
   666   1 h    0.886 --   664 o    0.819
   667   8 o    1.839 --   669 h    0.863   668 h    0.808
   668   1 h    0.873 --   667 o    0.808
   669   1 h    0.897 --   667 o    0.863
   670   8 o    1.836 --   672 h    0.850   671 h    0.797
   671   1 h    0.878 --   670 o    0.797
   672   1 h    0.888 --   670 o    0.850
   673   8 o    1.810 --   675 h    0.866   674 h    0.840
   674   1 h    0.891 --   673 o    0.840
   675   1 h    0.900 --   673 o    0.866
   676   8 o    1.855 --   678 h    0.840   677 h    0.827
   677   1 h    0.893 --   676 o    0.827
   678   1 h    0.896 --   676 o    0.840
   679   8 o    1.869 --   681 h    0.823   680 h    0.794
   680   1 h    0.868 --   679 o    0.794
   681   1 h    0.878 --   679 o    0.823
   682   8 o    1.829 --   684 h    0.882   683 h    0.837
   683   1 h    0.889 --   682 o    0.837
   684   1 h    0.899 --   682 o    0.882
   685   8 o    1.866 --   687 h    0.839   686 h    0.797
   686   1 h    0.874 --   685 o    0.797
   687   1 h    0.890 --   685 o    0.839
   688   8 o    1.861 --   689 h    0.824   690 h    0.794
   689   1 h    0.884 --   688 o    0.824
   690   1 h    0.878 --   688 o    0.794
   691   8 o    1.851 --   693 h    0.865   692 h    0.809
   692   1 h    0.879 --   691 o    0.809
   693   1 h    0.897 --   691 o    0.865
   694   8 o    1.859 --   695 h    0.830   696 h    0.802
   695   1 h    0.890 --   694 o    0.830
   696   1 h    0.877 --   694 o    0.802
   697   8 o    1.867 --   698 h    0.845   699 h    0.823
   698   1 h    0.887 --   697 o    0.845
   699   1 h    0.890 --   697 o    0.823
   700   8 o    1.848 --   702 h    0.874   701 h    0.861
   701   1 h    0.896 --   700 o    0.861
   702   1 h    0.899 --   700 o    0.874
   703   8 o    1.874 --   704 h    0.835   705 h    0.799
   704   1 h    0.886 --   703 o    0.835
   705   1 h    0.874 --   703 o    0.799
   706   8 o    1.822 --   707 h    0.869   708 h    0.815
   707   1 h    0.898 --   706 o    0.869
   708   1 h    0.881 --   706 o    0.815
   709   8 o    1.832 --   710 h    0.909   711 h    0.791
   710   1 h    0.919 --   709 o    0.909
   711   1 h    0.879 --   709 o    0.791
   712   8 o    1.843 --   714 h    0.853   713 h    0.851
   713   1 h    0.897 --   712 o    0.851
   714   1 h    0.898 --   712 o    0.853
   715   8 o    1.857 --   717 h    0.795   716 h    0.776
   716   1 h    0.874 --   715 o    0.776
   717   1 h    0.874 --   715 o    0.795
   718   8 o    1.893 --   719 h    0.839   720 h    0.829
   719   1 h    0.881 --   718 o    0.839
   720   1 h    0.874 --   718 o    0.829
   721   8 o    1.813 --   723 h    0.841   722 h    0.808
   722   1 h    0.890 --   721 o    0.808
   723   1 h    0.895 --   721 o    0.841
   724   8 o    1.857 --   726 h    0.856   725 h    0.851
   725   1 h    0.890 --   724 o    0.851
   726   1 h    0.893 --   724 o    0.856
   727   8 o    1.859 --   728 h    0.913   729 h    0.767
   728   1 h    0.916 --   727 o    0.913
   729   1 h    0.873 --   727 o    0.767   493 o    0.102
   730   8 o    1.845 --   732 h    0.917   731 h    0.803
   731   1 h    0.877 --   730 o    0.803
   732   1 h    0.921 --   730 o    0.917
   733   8 o    1.852 --   735 h    0.853   734 h    0.821
   734   1 h    0.883 --   733 o    0.821
   735   1 h    0.894 --   733 o    0.853
   736   8 o    1.865 --   737 h    0.846   738 h    0.845
   737   1 h    0.891 --   736 o    0.846
   738   1 h    0.894 --   736 o    0.845
   739   8 o    1.845 --   741 h    0.870   740 h    0.822
   740   1 h    0.892 --   739 o    0.822
   741   1 h    0.898 --   739 o    0.870
   742   8 o    1.855 --   743 h    0.900   744 h    0.807
   743   1 h    0.911 --   742 o    0.900
   744   1 h    0.876 --   742 o    0.807
   745   8 o    1.847 --   747 h    0.853   746 h    0.826
   746   1 h    0.891 --   745 o    0.826
   747   1 h    0.893 --   745 o    0.853
   748   8 o    1.875 --   749 h    0.874   750 h    0.797
   749   1 h    0.901 --   748 o    0.874
   750   1 h    0.885 --   748 o    0.797
   751   8 o    1.833 --   752 h    0.866   753 h    0.859
   752   1 h    0.885 --   751 o    0.866
   753   1 h    0.889 --   751 o    0.859
   754   8 o    1.811 --   756 h    0.871   755 h    0.827
   755   1 h    0.876 --   754 o    0.827
   756   1 h    0.894 --   754 o    0.871
 ---------------------------------------------------------------------------

Topologies differ in total number of bonds
Writing topology from bond orders to xtbtopo.mol

molecular dipole:
                 x           y           z       tot (Debye)
 q only:        1.963      -0.500      -0.426
   full:        1.551      -0.591      -0.829       4.716
molecular quadrupole (traceless):
                xx          xy          yy          xz          yz          zz
 q only:       -6.017      -7.152       3.644      14.616      23.673       2.374
  q+dip:       -6.386     -34.428       4.935      25.346      36.861       1.451
   full:       -4.493     -35.778       4.534      25.181      36.263      -0.040


           -------------------------------------------------
          | TOTAL ENERGY            -1283.374277571499 Eh   |
          | GRADIENT NORM               0.043805458760 Eh/α |
          | HOMO-LUMO GAP               8.268387655058 eV   |
           -------------------------------------------------

------------------------------------------------------------------------
 * finished run on 2022/11/24 at 09:29:08.033     
------------------------------------------------------------------------
 total:
 * wall-time:     0 d,  0 h,  0 min, 57.957 sec
 *  cpu-time:     0 d,  0 h,  1 min, 13.561 sec
 * ratio c/w:     1.269 speedup
 SCF:
 * wall-time:     0 d,  0 h,  0 min, 56.893 sec
 *  cpu-time:     0 d,  0 h,  1 min, 11.780 sec
 * ratio c/w:     1.262 speedup

