756
 energy: -1283.372095312583 gnorm: 0.016626057111 xtb: 6.5.1 (579679a)
o           -5.29837999463179       -6.81587961754248       -3.74336834350154
h           -5.62428981309488       -6.25935971347478       -4.45989836082348
h           -4.36944717001543       -6.99553874057450       -3.93951858330280
o            4.14499938233921       -3.20491813515700        1.80136927677429
h            4.21735126912676       -2.80130060730375        0.91371256942844
h            4.77197019437049       -2.75108534796237        2.39857164546762
o            1.76788573838075        2.23465901647477       -2.07413281426813
h            1.59901998974742        2.41712896614606       -1.13521158327844
h            2.68873556984695        1.94342762939452       -2.17448617005776
o            2.89533886687890       -0.07892875987729       -0.31695305379413
h            3.38274972015850        0.35455044300590       -1.03305405895635
h            1.96083702097956       -0.05062878720281       -0.57193672173743
o            2.12452313989276       -0.56469430040945       -2.84372308136787
h            2.71884761245335       -1.29646112751819       -3.07842944549250
h            2.25383288919576        0.08480392193191       -3.54911583512352
o           -2.23632896042003       -4.48547294855095        0.36859388640293
h           -1.34484532832897       -4.84544925085329        0.29391024023206
h           -2.18810398489438       -3.58238291903687       -0.00707465004363
o            4.11249049685543       -0.22414974370430        2.09757070389348
h            4.37877584115000        0.54092802821431        2.62428945102618
h            3.65780084134009        0.08014900866411        1.29362509578101
o            0.97279835094688       -2.60951682009660        0.10546960321461
h            0.63179196148426       -1.74864510756590       -0.17047249008409
h            1.36109067482179       -3.01528551055063       -0.68618582593785
o            3.06545686349577       -5.24226081053822        0.45982669733876
h            3.25913794902689       -4.40641453308558        0.91145077103803
h            3.61277370541737       -5.88621580269425        0.94122527787578
o           -0.57812087216365        2.58831133836413        2.46404014959377
h           -0.71902553159068        1.70692237943680        2.85781157446067
h           -1.42735023187488        2.91556393550236        2.12659331760107
o           -0.57731360773833        3.54624992708931        4.92361373130183
h           -0.37664708235589        3.33881531533427        3.98831984717563
h           -0.87194559560368        4.47648334388513        4.97936580202910
o           -1.22233174549563        0.27827727798208        3.65549140355430
h           -1.20828771689846        0.07822615034265        4.60622348994796
h           -1.06844277887281       -0.54727492922538        3.16035814859126
o            0.77729657358472       -3.40056473820550       -4.61599638704156
h            0.73529589848163       -2.47369856939768       -4.92686847129980
h            1.21270767458872       -3.38036988137900       -3.74230313209986
o           -3.52666946010580        1.19842949831308        2.81202318170858
h           -3.89435092929360        0.37972522887047        2.42061986822179
h           -2.70496988064061        0.91319333767670        3.26748640395243
o            5.80326161179027        1.32150064789499        0.02019533992613
h            4.93130724348785        1.70502733861245        0.21069388505224
h            6.43999751571586        2.05474363026700        0.06718308316688
o            0.77288186629444       -0.80258300903875       -5.32463552479596
h            0.25897924027287       -0.46869184061627       -6.08737160463161
h            1.69918697475431       -0.69740370659675       -5.56700714840941
o           -2.02450361497247       -0.95525565527416       -4.45980952003178
h           -2.62664828410729       -0.19456464504868       -4.47828506101792
h           -2.53423480798091       -1.66220190648574       -4.01401430499171
o           -7.28143492584976       -0.99362172491484       -0.12084319588843
h           -8.03445189968708       -1.19349566147105        0.44257447523936
h           -6.63011843747703       -1.71381797379686       -0.02736080406169
o           -5.02210982306348       -2.51767902331699       -0.02442799403341
h           -5.11318292551401       -3.39832188461376        0.38546292953764
h           -4.51966501497855       -1.98487766754898        0.62830775610750
o           -6.92975518597768        1.26028630767453        3.17108771729587
h           -6.38932754971683        0.90615381882967        2.42829867950981
h           -6.31135798685089        1.83426089172272        3.67656050659959
o           -2.33239847220680        2.43568637602419       -2.83442633343011
h           -3.07849118938675        1.95026916675994       -3.22864022385649
h           -1.53510222957767        2.02444480337774       -3.21610245781923
o            4.30251529402551        1.16303774019658       -2.31813673433015
h            4.69898175484214        1.06573505712449       -3.20354336258485
h            4.78524607813912        1.89386198369292       -1.88438131337272
o           -1.95185716451258       -2.10737539908376       -0.63371289200573
h           -1.18797794038271       -1.91144747516125       -1.21001811233798
h           -2.52338356598778       -1.27471727863572       -0.59972059575968
o           -2.97839623587332       -2.96206223738865       -2.93867256665852
h           -3.91019089792398       -3.24596999134837       -2.85662027927103
h           -2.66457593938824       -2.76510919016136       -2.03521668877837
o           -1.16169726912091       -1.85638903736943        2.00441993213583
h           -0.66566658484158       -2.64165005571570        2.30932050344783
h           -1.15184920153506       -1.88386935192000        1.03448938712304
o           -5.30342315246394       -1.11295530314343       -2.25218097744923
h           -5.69796577535949       -0.32915813256164       -1.83409973693736
h           -5.06335646923643       -1.70816485232131       -1.51656930689712
o            3.42761998199553       -1.36672961019881       -6.55182665864071
h            4.38376703248673       -1.19836226481964       -6.62093263692909
h            3.27669717069753       -2.27629368901220       -6.90831168206722
o            4.88797579100796       -5.06921887129283       -1.50821040267274
h            4.10855443272048       -5.12220187587721       -0.91984682535949
h            4.58483188393250       -5.08014553197925       -2.43292897828009
o           -7.24549146168474       -4.22493555152264       -0.82712118096210
h           -7.21489698222301       -5.18064420125502       -1.00115928651513
h           -6.58863500212592       -3.84170564287783       -1.43467045359525
o            4.66157028681304        3.89497593473572        2.43550448494086
h            4.90941560641885        4.56411477175474        1.76277966245457
h            5.47620845673367        3.39925458512737        2.63313277270559
o          -10.42621711638631       -2.67101709319111       -4.60228644601336
h          -11.11225531923773       -2.56153078714846       -3.91975749343667
h           -9.81647520975609       -3.33607309998915       -4.23861949855343
o           -5.52225133256176       -1.60649135525433        6.77676334687186
h           -4.88281615658688       -1.22606187314967        6.11769453131841
h           -5.70249611173917       -2.51475536918848        6.47444287502002
o            2.83200789725438        4.79523222291224       -0.86965921571576
h            2.86841316247704        3.91256823050327       -0.45693559020699
h            1.94196028693051        5.16572649833885       -0.72253950836513
o            5.48405283650589       -1.97333581971991        3.71599858954082
h            5.73473585224826       -2.73642643062239        4.26144001723608
h            4.75749386451370       -1.52246902884981        4.18977467778526
o            6.17365756842636       -1.17963349355703        0.82843690584023
h            6.25519577576154       -0.31708754738169        0.37816304711538
h            5.41636895498539       -1.00903620378482        1.42866925455204
o           -5.11887743108537       -4.69555012366051        1.51387036884755
h           -4.29894555825634       -4.71604058315965        2.02965264639466
h           -5.33922775914237       -5.61255109128382        1.26514232232366
o           -0.79653176520028        5.38059195810465        1.88695522273378
h           -1.34570375254974        5.28731114225870        2.67630472380055
h            0.13812565928485        5.33389492973673        2.15032159639968
o            1.81867347666863       -1.60688618461784        2.43960809336008
h            2.77588287396176       -1.45595290322116        2.43901415761543
h            1.58136024898593       -2.06213352268107        1.60777035723589
o           -5.63053007221622        0.77933234759603        0.95052930971242
h           -5.64589058549103        1.68427766533750        0.59515103848389
h           -6.28711295990012        0.24017887691697        0.46178051865758
o            5.88516379179166       -1.02483984241843       -1.93246642771131
h            6.73711126525074       -0.61155826386118       -1.67729111378594
h            5.26831471232142       -0.28050078267583       -2.04012601372294
o            3.95573376409845       -7.76121736163691       -3.61105530447679
h            4.89684092268537       -7.52744288762590       -3.77880916481338
h            3.51991824213258       -7.76470121141399       -4.46353412298630
o            3.63876026030657        3.42984689648868       -3.87098547146152
h            4.51160266612678        3.41989084101277       -4.33573292484363
h            3.14921018562534        4.14578028226687       -4.28944579583780
o           -4.13438425312411        0.76370255424599       -3.89863158039621
h           -4.78616940815307        1.02385658150946       -4.56889739911130
h           -4.51046511983211       -0.00043114086025       -3.43194386849450
o           -3.54666037735133        0.12283763010348       -7.88163248866528
h           -4.47714874202332       -0.10766665901117       -7.76957414366170
h           -3.05088209994821       -0.67597201608544       -7.61566937024041
o            9.05098358067648       -0.19566685804657       -6.45382993833279
h            9.87048688064544        0.26010217736855       -6.21128563523540
h            8.76947768149342       -0.62173135251754       -5.61935990575242
o            7.43230556005252        2.50762796074949       -2.87867232402506
h            6.76157994788024        3.05672095250639       -2.42137194165216
h            7.92963239451207        3.07602271801557       -3.49141554787692
o            3.96214941990331       -2.41288599213965       -0.72836403282431
h            4.76142881334841       -2.05263504566255       -1.14908599959116
h            3.42175240864004       -1.61214223953003       -0.53498782746524
o           -9.57045734218103       -0.78408311275509       -2.03722540599223
h           -9.74725492937854       -1.64623613956697       -1.59572598485332
h           -9.31862237094541       -0.18992712357887       -1.30156471284484
o           -4.05470898871603        5.94144751746983        0.92301514466512
h           -3.40862909875725        6.62677370468763        1.17119362514001
h           -4.05856589765804        5.93597278017790       -0.04432797988747
o           -1.80801058255796        4.93563895258598       -3.40209491086350
h           -2.10827534540023        4.00226761948116       -3.33829896808252
h           -0.84022078584690        4.88038255521254       -3.26363096031005
o            4.04643640558330       -4.92721896626696       -4.09777554682023
h            4.74537028353839       -4.78226819951497       -4.76227303927047
h            3.69530433966064       -4.02642251784039       -3.93277991612818
o           -0.04137290956154        1.43683164709509       -3.88284200036117
h            0.15847062559774        0.59129477374158       -4.32311080171465
h            0.65503436542775        1.59102454968965       -3.21788590475426
o            5.28557817521954        6.89719091349912        3.07576196934010
h            4.56739557225024        6.97114430853781        2.41541223000491
h            4.89237382450007        6.44521841383145        3.83479013111941
o            4.81188704756749        1.58052534396375        4.10468352277977
h            4.41861485925381        0.81376583280123        4.57432329120773
h            5.55749102259217        1.84957318100210        4.65738220690194
o            3.34950663754269        2.78122223196636        6.36292628166640
h            2.48903157167483        3.00817385321049        6.74824046781824
h            3.63510936054543        3.56629871902926        5.86692522838401
o            8.12835495777527       -1.08199301531574       -4.11555900497068
h            8.51877610875300       -1.42873247924658       -3.28944909721484
h            7.52958937972661       -0.36795023036243       -3.86329400757496
o           -5.06599603129202        2.76135463380975        4.21011757209791
h           -5.10252005550313        2.60611602241207        5.16788477923885
h           -4.39115315570170        2.14179375409066        3.85138354168006
o           -3.92325205411240       -0.54182997203082        5.01408762640785
h           -3.25118853736439       -1.22415788692641        4.83805863413902
h           -3.46604080413111        0.28521085473920        5.22420504941365
o           -7.57844636299425       -2.02384468633367       -3.27298648104169
h           -6.73761820680355       -1.74069837650294       -2.85681577735310
h           -8.27869860572640       -1.46493236558765       -2.87272596737708
o          -12.35258670396354        1.27101310427903       -0.10004661441772
h          -12.48376845649278        0.80097730818746        0.73607656620897
h          -12.41003568313337        2.21229555204974        0.08578043354169
o            5.22654460249672       -6.34700065284384        1.65548896750864
h            5.84079456740798       -5.67781069502919        2.00355879891562
h            5.65828922994048       -6.72082273636184        0.85060680808329
o           -6.24830348960096        1.50057560558124       -5.57904959819222
h           -6.18223787323019        0.71721629575885       -6.17204775767529
h           -6.88211066639785        1.25179862666191       -4.86639905440958
o           -2.61687257051403        1.96039354342052       -6.16836264781769
h           -3.29849791147486        2.56571654436054       -5.81770366835044
h           -3.07337966436090        1.38680467963651       -6.81867875478310
o            1.17165654489733       -2.99839947541714        6.92549192057322
h            1.30130088606936       -3.96664554308608        6.78930547300813
h            0.30698060241905       -2.89716774110939        7.35237400016823
o           -7.20243628337929        0.21513200624067        5.84522046159763
h           -6.67571944374629       -0.52105335475836        6.23803858605315
h           -7.12969153522823        0.10691684108065        4.87866316657222
o           -9.60619456436531        0.95295311018770       -0.02775387582501
h          -10.55782526137608        1.12009991378044       -0.14780270628745
h           -9.13058336229151        1.74410063408738       -0.35161262087831
o            5.11144636237492        5.35774805462383        0.31169458838185
h            4.18726642431761        5.38636377876897       -0.00853551350794
h            5.47749091751432        6.24962564057800        0.18856024680591
o           -2.80113654371858       -4.53456377249647        2.87873324741946
h           -2.53036663664023       -3.75721145081702        3.41373557868377
h           -2.47475070690009       -4.37546729265689        1.96016727924159
o           -8.07277819373117        1.02551790875529       -3.74065459555299
h           -8.81340505531838        0.51720454851536       -4.13899855909596
h           -8.39894984636988        1.94445550139920       -3.65294176759053
o           -2.04431577223442       -1.94523868692630       -6.96186800999824
h           -1.15190874802941       -2.17232850745794       -7.26597433328434
h           -1.95010990997449       -1.59367473434379       -6.04592923207631
o            0.53293651325548       -2.34058402334751       -7.84886409290559
h            0.92223429913795       -1.50478421899055       -8.14725567862135
h            1.24215783655606       -2.98768644161122       -7.84195042214675
o           -0.18453921547920       -1.81260445853178       -2.58131490811335
h           -0.69935098871613       -1.49332444515356       -3.33864941085006
h            0.68041083057327       -1.34777301155773       -2.62713036306261
o            0.75091786423179        3.18679790793842        0.25564679008183
h            0.40572934165738        2.75329947115699        1.06166239030217
h           -0.01501397420682        3.66581572509635       -0.10944054384629
o            0.38207934815159       -1.81329989626738        4.66769764804446
h            0.96382499527905       -1.92238940264620        3.89223004739024
h            0.78401374186145       -2.28811189761557        5.42233603793148
o           -6.35238222854442        1.32110187253216       -1.80822897123800
h           -6.98023507629414        1.04375696216306       -2.50164596020470
h           -6.89535184186925        1.87618645123305       -1.22207544651945
o           -0.52991395583640       -4.55793652792783       -2.07574982781797
h           -0.38622115026779       -3.62310828735840       -2.29918480388828
h           -0.01934791940517       -4.72319759199537       -1.26449306428409
o           -2.95793883077089        5.05919263712315        3.57572980265445
h           -3.14977893487265        4.65298717760971        4.43800895455445
h           -3.45241079099565        5.89993070612196        3.56135268818795
o           -2.69539778332909        2.00493772948765        5.51352919857088
h           -1.83256804777971        2.38853421789869        5.27735985658190
h           -3.18895057753853        2.73957399943012        5.89144715880887
o           -5.53034653411065       -2.70687958006371        3.35866615119258
h           -5.78352252122153       -3.35118484278666        2.67172076872572
h           -6.27742597659894       -2.06806313133124        3.40285409349335
o          -10.72271233387849        3.01235662262243       -2.03732561088305
h          -10.12182899672662        3.31015349949369       -2.73758877411460
h          -11.15138773550724        2.20837546301330       -2.37265443447185
o           -3.10538851779100        5.96898581051505       -5.49920266310033
h           -2.61966710455480        5.64305964195361       -4.71188766594495
h           -3.64838568921345        5.21436009102703       -5.76319226240812
o          -12.26038373811737       -2.30841443833200       -2.59322057140861
h          -12.17888322947888       -2.24815175852284       -1.62220866029607
h          -12.47877056385641       -1.40772400359566       -2.86374032301054
o           -7.57339191346288       -3.75098104899498        1.81026552934865
h           -8.34769518212511       -3.16050123497795        1.79458224290419
h           -7.34777343399532       -3.93722456971611        0.88168628049985
o            2.46476845832595        5.64267888208866       -5.08018233547585
h            1.67857056946711        6.08416768092853       -5.42226942203758
h            2.85387194402639        6.17961661617317       -4.35795073918190
o            1.82332903973694        4.78886711510307        2.11665073242314
h            1.56548443845914        4.24342788570732        1.34706849532299
h            2.06186182700660        4.15119801486399        2.81388251163646
o            2.79112481444760        1.16065006231818       -4.96893546679681
h            2.23213680600898        1.53461377822327       -5.68158357567952
h            3.05813105427578        1.94001881991093       -4.43734489601621
o            1.60430878045671        2.35527478898455       -7.02906873326364
h            0.81073958918186        2.78839961400034       -6.64739694217387
h            1.29308970263075        1.60335997394520       -7.55623572435452
o            9.74689808511142       -4.27059571528649       -3.61580339773649
h           10.56602359551516       -3.89565878007197       -3.95241156010698
h            9.40656541688672       -3.55565046201739       -3.01465846300889
o           10.68060549478455        1.39983820432727       -4.85973631822789
h           10.49198250358492        0.87648513008237       -4.04732439420088
h           10.06685120732718        2.14163420810562       -4.86223410049618
o           -1.06864813535380        6.13704808062246        5.42971050874734
h           -0.10290011305318        6.22538901392651        5.40098002801279
h           -1.39647341613910        6.84204396581540        4.83930958262315
o            8.07861430338976        0.34805006100876       -1.48065181452947
h            7.88892629418843        1.20007636266049       -1.92135627014220
h            8.24779705909370        0.57959647442668       -0.55317357307793
o            8.19708624849820       -2.38474088325056        1.97497759476740
h            8.86689510495576       -2.32689499941754        1.27020042665448
h            7.42668819047356       -1.86537926063547        1.64785888101667
o            3.38895819578264        2.49611335401812        0.56570758421553
h            3.73983916892851        2.99782438727086        1.32986319281942
h            2.67174367502332        1.93487397368833        0.91004950746840
o           -4.69802662193083       -1.84283041952784       -4.93737213452506
h           -5.11895593047852       -2.08318987352768       -4.10714450415131
h           -4.34138175211914       -2.65505193777207       -5.34437944116400
o           -9.46082996715196       -1.84077779471810        1.58180414034462
h           -9.81404851848149       -2.25521832566769        0.76853990689720
h          -10.13934413260148       -1.94290395884295        2.27447233608113
o           -3.78251248426948       -1.30428982969162        1.98231607868649
h           -4.31515880035201       -1.76927264015231        2.65802489519632
h           -2.85505657421636       -1.57885549961864        2.10223559546065
o            3.29397539949460        8.26977210615473       -0.85400124576843
h            2.41662789569216        8.66610709328385       -0.76679365105938
h            3.35916366934653        7.72270487870999       -0.04569239656056
o           -3.22984944674399        0.98233525026165        8.04658185186182
h           -2.79834825857749        1.77580397684613        8.36249914565163
h           -4.02392386517190        1.27538452817341        7.55925344227444
o            7.09337140199793        2.77110364860506        2.80118184391466
h            6.91027904188437        1.81043819873272        2.86437886905130
h            7.35082347251196        2.96714758441687        1.87147033527059
o            1.47506676114766        0.97001013260542        1.85322134426353
h            1.64780510142148        1.56759847426303        2.60459894575284
h            1.55273966974149        0.05665553154350        2.19428879552050
o           10.47459296269809        0.04108110478845       -2.57655821975471
h            9.60861432014072        0.14545199430537       -2.11772808762318
h           11.14720959209474        0.44469318454270       -1.99547599136536
o            8.76066329991135        3.74155915136917       -4.86172938904325
h            8.34010930712913        3.17823213733277       -5.56440262475126
h            8.39471514266296        4.61783366117074       -4.99706069788747
o            6.32025020442574       -2.99645789409740       -3.59845601054588
h            6.20925853592344       -2.38888412736619       -2.83706178038568
h            7.01522585684775       -2.57360739742847       -4.12710815489916
o          -11.77406793843630        0.49887881131524       -2.71158105682759
h          -12.24142508917653        0.62705549712343       -1.87535781910980
h          -10.95224633648277       -0.00048599855505       -2.46749599667283
o          -10.98352874918047        3.74028126428779        0.55765325406276
h          -10.88911564673958        3.54410668688840       -0.39189720604077
h          -10.31950135258720        4.41322630785405        0.76365825575008
o           -6.32134779662388        7.56556914178851        1.92354667323875
h           -7.08744705234739        7.19992017421244        2.38052961434163
h           -6.17589653011868        7.02129923248428        1.13326656805898
o           -5.31920745799974        3.38961368422134        0.12425603997202
h           -4.49147826319371        3.52664374240821        0.63232323003472
h           -5.07255197318359        3.36039687313233       -0.81175579548762
o            6.03657788324392        0.84422995307504       -4.34174948608543
h            5.74636303946906        1.29777881699581       -5.15043373525775
h            6.59416809001245        1.50291786206345       -3.86055611372908
o           -8.40936771730340        6.28112496795590        3.56857781831771
h           -9.02970207935095        5.55601359232933        3.78793433646674
h           -7.69713677478239        6.18148852239964        4.21670077398675
o            0.14203948872216        7.30556654201089       -3.26095435815797
h            0.72638541240822        8.03312403241028       -3.46842517760952
h           -0.07300553662701        6.84589082105822       -4.10351512788792
o            6.11704998147802       -1.29460533919029       -6.15014108130793
h            6.10197422077660       -0.64225110891388       -5.42793580641228
h            6.90072357557116       -1.09424884557879       -6.66686036256840
o           -6.01500934714498       -0.74831805077311       -6.90758477983461
h           -5.45941077129215       -1.13894543493190       -6.18658098782710
h           -6.81538269268878       -1.29126901690006       -6.88448821377758
o           -1.33283469754375       -0.25633574491769        6.42987139165551
h           -2.07948415547162        0.19553489985869        6.85964604278233
h           -1.34331208157154       -1.17898654421709        6.74660034197005
o           -5.41631915838959       -3.93221012508122       -2.79654561394470
h           -5.04394169983784       -4.66985666134424       -2.24760806667374
h           -5.70296460639587       -4.30358985112537       -3.64757037468933
o           -4.35567686929302       -5.60326664914514       -1.10473078430628
h           -3.89815701564034       -5.08160328374397       -0.42942778905911
h           -3.67792939337228       -6.23487170944705       -1.40062302985446
o           -8.07541972548647        3.03026018896160       -0.66390316610508
h           -8.54274609892927        3.73573666410943       -1.11141474648600
h           -7.98562185141724        3.26068575738329        0.29516851751522
o           -6.94411107754554       -6.83862827103196       -1.56639791057423
h           -7.65507114748522       -7.34371815797137       -1.95928015812379
h           -6.21864882715179       -6.81455276996582       -2.22190852555809
o           10.70527815449569        0.79507626133537        2.91033723198733
h           10.55649932699894       -0.10830738115139        3.26341891152966
h           10.31555328855305        1.42028842072979        3.54706443191355
o           -0.51584460444171        0.54933856053374       -7.22009347984087
h           -0.98085706939903        0.10770726170697       -7.93156229263301
h           -1.18940852965000        1.03414700885480       -6.71891200453887
o            5.32453520820536        3.57628666450246       -1.71726186897734
h            4.60279762456585        3.83646013266455       -2.30743187112302
h            5.33825269733263        4.19069091190006       -0.96143839230033
o          -12.10724779612518       -1.93101856814565        0.10664473980560
h          -11.89752542248249       -2.76486472998379        0.55486859672092
h          -12.10585276245461       -1.24886623133393        0.78878359841873
o            2.37319144482207        2.70271795664985        3.68711548942018
h            1.87862873200636        2.27654811318867        4.40149674124214
h            3.30485241058536        2.45000013949636        3.83288735239600
o            0.72014271238714        0.89807329577923        7.68520969338877
h            0.62479108843359        1.85732402568280        7.72112213375715
h           -0.11003860429075        0.51384897912656        7.32438275466507
o           -1.47474250817787       -2.72379221169461        7.58162424059924
h           -2.23991471698746       -2.42735898369682        8.12645247355167
h           -1.71484721660176       -3.59308913984390        7.23170304756403
o            4.03853614501671       -3.11100555317020        6.06880524725427
h            3.60017693898606       -3.49085870822842        6.82857070806535
h            3.44142999861434       -3.24938243033198        5.31138606932525
o            0.79040255576877        4.52797150300795       -3.07148584943642
h            1.29668053299796        4.77021938013297       -3.85196915702536
h            1.18752168562507        3.71246557436840       -2.71033283364315
o            4.88169803989025        0.82923283376619        7.40404178837464
h            4.32271990535069        1.54771200310757        7.04041261241137
h            4.24345358520492        0.20016316942963        7.76680638551841
o           -0.64083722914517       -7.79636678627607        0.32362359447501
h           -1.23071902731732       -7.61468082733218       -0.43205475791525