      -----------------------------------------------------------      
     |                   =====================                   |     
     |                           x T B                           |     
     |                   =====================                   |     
     |                         S. Grimme                         |     
     |          Mulliken Center for Theoretical Chemistry        |     
     |                    University of Bonn                     |     
      -----------------------------------------------------------      

   * xtb version 6.5.1 (579679a) compiled by 'ehlert@majestix' on 2022-07-11

   xtb is free software: you can redistribute it and/or modify it under
   the terms of the GNU Lesser General Public License as published by
   the Free Software Foundation, either version 3 of the License, or
   (at your option) any later version.
   
   xtb is distributed in the hope that it will be useful,
   but WITHOUT ANY WARRANTY; without even the implied warranty of
   MERCHANTABILITY or FITNESS FOR A PARTICULAR PURPOSE.  See the
   GNU Lesser General Public License for more details.
   
   Cite this work as:
   * C. Bannwarth, E. Caldeweyher, S. Ehlert, A. Hansen, P. Pracht,
     J. Seibert, S. Spicher, S. Grimme, WIREs Comput. Mol. Sci., 2020, 11,
     e01493. DOI: 10.1002/wcms.1493
   
   for GFN2-xTB:
   * C. Bannwarth, S. Ehlert and S. Grimme., J. Chem. Theory Comput., 2019,
     15, 1652-1671. DOI: 10.1021/acs.jctc.8b01176
   for GFN1-xTB:
   * S. Grimme, C. Bannwarth, P. Shushkov, J. Chem. Theory Comput., 2017,
     13, 1989-2009. DOI: 10.1021/acs.jctc.7b00118
   for GFN0-xTB:
   * P. Pracht, E. Caldeweyher, S. Ehlert, S. Grimme, ChemRxiv, 2019, preprint.
     DOI: 10.26434/chemrxiv.8326202.v1
   for GFN-FF:
   * S. Spicher and S. Grimme, Angew. Chem. Int. Ed., 2020, 59, 15665-15673.
     DOI: 10.1002/anie.202004239
   
   for ALPB and GBSA implicit solvation:
   * S. Ehlert, M. Stahn, S. Spicher, S. Grimme, J. Chem. Theory Comput.,
     2021, 17, 4250-4261. DOI: 10.1021/acs.jctc.1c00471
   
   for DFT-D4:
   * E. Caldeweyher, C. Bannwarth and S. Grimme, J. Chem. Phys., 2017,
     147, 034112. DOI: 10.1063/1.4993215
   * E. Caldeweyher, S. Ehlert, A. Hansen, H. Neugebauer, S. Spicher,
     C. Bannwarth and S. Grimme, J. Chem. Phys., 2019, 150, 154122.
     DOI: 10.1063/1.5090222
   * E. Caldeweyher, J.-M. Mewes, S. Ehlert and S. Grimme, Phys. Chem. Chem. Phys.
     2020, 22, 8499-8512. DOI: 10.1039/D0CP00502A
   
   for sTDA-xTB:
   * S. Grimme and C. Bannwarth, J. Chem. Phys., 2016, 145, 054103.
     DOI: 10.1063/1.4959605
   
   in the mass-spec context:
   * V. Asgeirsson, C. Bauer and S. Grimme, Chem. Sci., 2017, 8, 4879.
     DOI: 10.1039/c7sc00601b
   * J. Koopman and S. Grimme, ACS Omega 2019, 4, 12, 15120-15133.
     DOI: 10.1021/acsomega.9b02011
   
   for metadynamics refer to:
   * S. Grimme, J. Chem. Theory Comput., 2019, 155, 2847-2862
     DOI: 10.1021/acs.jctc.9b00143
   
   for SPH calculations refer to:
   * S. Spicher and S. Grimme, J. Chem. Theory Comput., 2021, 17, 1701-1714
     DOI: 10.1021/acs.jctc.0c01306
   
   with help from (in alphabetical order)
   P. Atkinson, C. Bannwarth, F. Bohle, G. Brandenburg, E. Caldeweyher
   M. Checinski, S. Dohm, S. Ehlert, S. Ehrlich, I. Gerasimov, C. Hölzer
   A. Katbashev, J. Koopman, C. Lavigne, S. Lehtola, F. März, M. Müller,
   F. Musil, H. Neugebauer, J. Pisarek, C. Plett, P. Pracht, F. Pultar,
   J. Seibert, P. Shushkov, S. Spicher, M. Stahn, M. Steiner, T. Strunk,
   J. Stückrath, T. Rose, and J. Unsleber
   
 * started run on 2022/11/24 at 09:07:52.365     

           -------------------------------------------------
          |                Calculation Setup                |
           -------------------------------------------------

          program call               : xtb solvent_cluster.coord --gfn2 --input xcontrol --opt 1
          hostname                   : cn0341
          coordinate file            : solvent_cluster.coord
          omp threads                :                     2

   ID    Z sym.   atoms
    1    8 o      1, 4, 7, 10, 13, 16, 19, 22, 25, 28, 31, 34, 37, 40, 43,
                  46, 49, 52, 55, 58, 61, 64, 67, 70, 73, 76, 79, 82, 85, 88,
                  91, 94, 97, 100, 103, 106, 109, 112, 115, 118, 121, 124,
                  127, 130, 133, 136, 139, 142, 145, 148, 151, 154, 157, 160,
                  163, 166, 169, 172, 175, 178, 181, 184, 187, 190, 193, 196,
                  199, 202, 205, 208, 211, 214, 217, 220, 223, 226, 229, 232,
                  235, 238, 241, 244, 247, 250, 253, 256, 259, 262, 265, 268,
                  271, 274, 277, 280, 283, 286, 289, 292, 295, 298, 301, 304,
                  307, 310, 313, 316, 319, 322, 325, 328, 331, 334, 337, 340,
                  343, 346, 349, 352, 355, 358, 361, 364, 367, 370, 373, 376,
                  379, 382, 385, 388, 391, 394, 397, 400, 403, 406, 409, 412,
                  415, 418, 421, 424, 427, 430, 433, 436, 439, 442, 445, 448,
                  451, 454, 457, 460, 463, 466, 469, 472, 475, 478, 481, 484,
                  487, 490, 493, 496, 499, 502, 505, 508, 511, 514, 517, 520,
                  523, 526, 529, 532, 535, 538, 541, 544, 547, 550, 553, 556,
                  559, 562, 565, 568, 571, 574, 577, 580, 583, 586, 589, 592,
                  595, 598, 601, 604, 607, 610, 613, 616, 619, 622, 625, 628,
                  631, 634, 637, 640, 643, 646, 649, 652, 655, 658, 661, 664,
                  667, 670, 673, 676, 679, 682, 685, 688, 691, 694, 697, 700,
                  703, 706, 709, 712, 715, 718, 721, 724, 727, 730, 733, 736,
                  739, 742, 745, 748, 751, 754
    2    1 h      2, 3, 5, 6, 8, 9, 11, 12, 14, 15, 17, 18, 20, 21, 23, 24,
                  26, 27, 29, 30, 32, 33, 35, 36, 38, 39, 41, 42, 44, 45, 47,
                  48, 50, 51, 53, 54, 56, 57, 59, 60, 62, 63, 65, 66, 68, 69,
                  71, 72, 74, 75, 77, 78, 80, 81, 83, 84, 86, 87, 89, 90, 92,
                  93, 95, 96, 98, 99, 101, 102, 104, 105, 107, 108, 110, 111,
                  113, 114, 116, 117, 119, 120, 122, 123, 125, 126, 128, 129,
                  131, 132, 134, 135, 137, 138, 140, 141, 143, 144, 146, 147,
                  149, 150, 152, 153, 155, 156, 158, 159, 161, 162, 164, 165,
                  167, 168, 170, 171, 173, 174, 176, 177, 179, 180, 182, 183,
                  185, 186, 188, 189, 191, 192, 194, 195, 197, 198, 200, 201,
                  203, 204, 206, 207, 209, 210, 212, 213, 215, 216, 218, 219,
                  221, 222, 224, 225, 227, 228, 230, 231, 233, 234, 236, 237,
                  239, 240, 242, 243, 245, 246, 248, 249, 251, 252, 254, 255,
                  257, 258, 260, 261, 263, 264, 266, 267, 269, 270, 272, 273,
                  275, 276, 278, 279, 281, 282, 284, 285, 287, 288, 290, 291,
                  293, 294, 296, 297, 299, 300, 302, 303, 305, 306, 308, 309,
                  311, 312, 314, 315, 317, 318, 320, 321, 323, 324, 326, 327,
                  329, 330, 332, 333, 335, 336, 338, 339, 341, 342, 344, 345,
                  347, 348, 350, 351, 353, 354, 356, 357, 359, 360, 362, 363,
                  365, 366, 368, 369, 371, 372, 374, 375, 377, 378, 380, 381,
                  383, 384, 386, 387, 389, 390, 392, 393, 395, 396, 398, 399,
                  401, 402, 404, 405, 407, 408, 410, 411, 413, 414, 416, 417,
                  419, 420, 422, 423, 425, 426, 428, 429, 431, 432, 434, 435,
                  437, 438, 440, 441, 443, 444, 446, 447, 449, 450, 452, 453,
                  455, 456, 458, 459, 461, 462, 464, 465, 467, 468, 470, 471,
                  473, 474, 476, 477, 479, 480, 482, 483, 485, 486, 488, 489,
                  491, 492, 494, 495, 497, 498, 500, 501, 503, 504, 506, 507,
                  509, 510, 512, 513, 515, 516, 518, 519, 521, 522, 524, 525,
                  527, 528, 530, 531, 533, 534, 536, 537, 539, 540, 542, 543,
                  545, 546, 548, 549, 551, 552, 554, 555, 557, 558, 560, 561,
                  563, 564, 566, 567, 569, 570, 572, 573, 575, 576, 578, 579,
                  581, 582, 584, 585, 587, 588, 590, 591, 593, 594, 596, 597,
                  599, 600, 602, 603, 605, 606, 608, 609, 611, 612, 614, 615,
                  617, 618, 620, 621, 623, 624, 626, 627, 629, 630, 632, 633,
                  635, 636, 638, 639, 641, 642, 644, 645, 647, 648, 650, 651,
                  653, 654, 656, 657, 659, 660, 662, 663, 665, 666, 668, 669,
                  671, 672, 674, 675, 677, 678, 680, 681, 683, 684, 686, 687,
                  689, 690, 692, 693, 695, 696, 698, 699, 701, 702, 704, 705,
                  707, 708, 710, 711, 713, 714, 716, 717, 719, 720, 722, 723,
                  725, 726, 728, 729, 731, 732, 734, 735, 737, 738, 740, 741,
                  743, 744, 746, 747, 749, 750, 752, 753, 755, 756

molecular fragmentation (1/2 indicates fragments):
111222222222222222222222222222222222222222222222222222222222222222222222
222222222222222222222222222222222222222222222222222222222222222222222222
222222222222222222222222222222222222222222222222222222222222222222222222
222222222222222222222222222222222222222222222222222222222222222222222222
222222222222222222222222222222222222222222222222222222222222222222222222
222222222222222222222222222222222222222222222222222222222222222222222222
222222222222222222222222222222222222222222222222222222222222222222222222
222222222222222222222222222222222222222222222222222222222222222222222222
222222222222222222222222222222222222222222222222222222222222222222222222
222222222222222222222222222222222222222222222222222222222222222222222222
222222222222222222222222222222222222
# atoms in fragment 1/2:     3   753
 fragment masses (1/2) :       18.02     4521.84
CMA distance (Bohr)    :  15.808
constraining FC (au)   :  0.0500

           -------------------------------------------------
          |                 G F N 2 - x T B                 |
           -------------------------------------------------

        Reference                      10.1021/acs.jctc.8b01176
      * Hamiltonian:
        H0-scaling (s, p, d)           1.850000    2.230000    2.230000
        zeta-weighting                 0.500000
      * Dispersion:
        s8                             2.700000
        a1                             0.520000
        a2                             5.000000
        s9                             5.000000
      * Repulsion:
        kExp                           1.500000    1.000000
        rExp                           1.000000
      * Coulomb:
        alpha                          2.000000
        third order                    shell-resolved
        anisotropic                    true
        a3                             3.000000
        a5                             4.000000
        cn-shift                       1.200000
        cn-exp                         4.000000
        max-rad                        5.000000


          ...................................................
          :                      SETUP                      :
          :.................................................:
          :  # basis functions                1512          :
          :  # atomic orbitals                1512          :
          :  # shells                         1008          :
          :  # electrons                      2016          :
          :  max. iterations                   250          :
          :  Hamiltonian                  GFN2-xTB          :
          :  restarted?                      false          :
          :  GBSA solvation                  false          :
          :  PC potential                    false          :
          :  electronic temp.          300.0000000     K    :
          :  accuracy                    1.0000000          :
          :  -> integral cutoff          0.2500000E+02      :
          :  -> integral neglect         0.1000000E-07      :
          :  -> SCF convergence          0.1000000E-05 Eh   :
          :  -> wf. convergence          0.1000000E-03 e    :
          :  Broyden damping             0.4000000          :
          ...................................................

 iter      E             dE          RMSdq      gap      omega  full diag
   1  -1291.0454905 -0.129105E+04  0.407E+00    8.45       0.0  T
   2  -1291.1174200 -0.719295E-01  0.242E+00    8.28       1.0  T
   3  -1291.1482458 -0.308258E-01  0.208E-01    7.87       1.0  T
   4  -1291.1533111 -0.506528E-02  0.454E-02    8.02       1.0  T
   5  -1291.1533824 -0.712383E-04  0.307E-02    8.00       1.0  T
   6  -1291.1534215 -0.391143E-04  0.438E-03    8.01       1.0  T
   7  -1291.1534239 -0.245867E-05  0.805E-04    8.01       4.5  T
   8  -1291.1534240 -0.388968E-07  0.410E-04    8.01       8.9  T
   9  -1291.1534240 -0.164680E-07  0.698E-05    8.01      52.1  T

   *** convergence criteria satisfied after 9 iterations ***

         #    Occupation            Energy/Eh            Energy/eV
      -------------------------------------------------------------
         1        2.0000           -0.6879543             -18.7202
       ...           ...                  ...                  ...
      1002        2.0000           -0.4140702             -11.2674
      1003        2.0000           -0.4125629             -11.2264
      1004        2.0000           -0.4114801             -11.1969
      1005        2.0000           -0.4104247             -11.1682
      1006        2.0000           -0.4096365             -11.1468
      1007        2.0000           -0.4089782             -11.1289
      1008        2.0000           -0.4051454             -11.0246 (HOMO)
      1009                         -0.1107816              -3.0145 (LUMO)
      1010                         -0.1015995              -2.7647
      1011                         -0.0856314              -2.3301
      1012                         -0.0828776              -2.2552
      1013                         -0.0770562              -2.0968
       ...                                ...                  ...
      1512                          0.4229631              11.5094
      -------------------------------------------------------------
                  HL-Gap            0.2943638 Eh            8.0100 eV
             Fermi-level           -0.2579635 Eh           -7.0195 eV

 SCC (total)                   0 d,  0 h,  0 min, 21.986 sec
 SCC setup                      ...        0 min,  0.042 sec (  0.192%)
 Dispersion                     ...        0 min,  0.109 sec (  0.498%)
 classical contributions        ...        0 min,  0.023 sec (  0.105%)
 integral evaluation            ...        0 min,  0.595 sec (  2.708%)
 iterations                     ...        0 min,  8.900 sec ( 40.479%)
 molecular gradient             ...        0 min, 12.248 sec ( 55.709%)
 printout                       ...        0 min,  0.068 sec (  0.309%)

         :::::::::::::::::::::::::::::::::::::::::::::::::::::
         ::                     SUMMARY                     ::
         :::::::::::::::::::::::::::::::::::::::::::::::::::::
         :: total energy           -1283.355026334961 Eh    ::
         :: gradient norm              0.031838601775 Eh/a0 ::
         :: HOMO-LUMO gap              8.010045688887 eV    ::
         ::.................................................::
         :: SCC energy             -1291.153423992248 Eh    ::
         :: -> isotropic ES            7.161925942553 Eh    ::
         :: -> anisotropic ES         -1.624956858663 Eh    ::
         :: -> anisotropic XC         -0.125374651909 Eh    ::
         :: -> dispersion             -0.795381878066 Eh    ::
         :: repulsion energy           7.640605384298 Eh    ::
         :: add. restraining           0.000000000000 Eh    ::
         :: total charge              -0.000000000000 e     ::
         :::::::::::::::::::::::::::::::::::::::::::::::::::::

      ----------------------------------------------------------- 
     |                       L-ANC optimizer                     |
      ----------------------------------------------------------- 
          low memory version by Sebastian Ehlert

          ...................................................
          :                      SETUP                      :
          :.................................................:
          :   energy convergence        0.1000000E-05 Eh    :
          :   grad. convergence         0.8000000E-03 Eh/a0 :
          :   optimization log               true           :
          :   writing optlog all                1     steps :
          :   Hessian reset                    20     steps :
          :   maximium step len.        1.0000000     a0    :
          :   LBFGS images                     20           :
          ...................................................
 * calculating model hessian...
Using Lindh-Hessian (1995)
 Shifting diagonal of input Hessian by   1.000025609659815E-002
 Lowest  eigenvalues of input Hessian
    0.010000    0.010000   -0.000000   -0.000000   -0.000000   -0.000000
   -0.000000   -0.000000   -0.000000   -0.000000   -0.000000   -0.000000
   -0.000000   -0.000000   -0.000000   -0.000000   -0.000000   -0.000000
 Highest eigenvalues
    0.310958    0.315779    1.203986    1.220309    1.424656    1.444999
 

........................................................................
.............................. CYCLE    1 ..............................
........................................................................
   1  -1291.1477945 -0.129115E+04  0.379E-02    8.10       0.0  T
   2  -1291.1478119 -0.174349E-04  0.235E-02    8.10       1.0  T
   3  -1291.1478203 -0.841497E-05  0.195E-03    8.09       1.9  T
   4  -1291.1478206 -0.284823E-06  0.548E-04    8.09       6.6  T
   5  -1291.1478206 -0.723935E-08  0.646E-05    8.09      56.3  T
     SCC iter.                  ...        0 min,  3.985 sec
     gradient                   ...        0 min, 12.231 sec
 * total energy  : -1283.3564658 Eh     change       -0.1439437E-02 Eh
   gradient norm :     0.0304607 Eh/a0  converged?    E=F G=F D=F
   step length   :     0.3913813 a0

........................................................................
.............................. CYCLE    2 ..............................
........................................................................
   1  -1291.1540855 -0.129115E+04  0.197E-02    8.10       0.0  T
   2  -1291.1540976 -0.120127E-04  0.117E-02    8.10       1.0  T
   3  -1291.1541005 -0.291389E-05  0.208E-03    8.10       1.7  T
   4  -1291.1541008 -0.347103E-06  0.432E-04    8.10       8.4  T
   5  -1291.1541008 -0.252408E-08  0.536E-05    8.10      67.9  T
     SCC iter.                  ...        0 min,  3.526 sec
     gradient                   ...        0 min, 12.233 sec
 * total energy  : -1283.3572523 Eh     change       -0.7865281E-03 Eh
   gradient norm :     0.0151812 Eh/a0  converged?    E=F G=F D=F
   step length   :     0.2640010 a0

........................................................................
.............................. CYCLE    3 ..............................
........................................................................
   1  -1291.1563602 -0.129116E+04  0.144E-02    8.10       0.0  T
   2  -1291.1563637 -0.353741E-05  0.875E-03    8.09       1.0  T
   3  -1291.1563648 -0.106181E-05  0.102E-03    8.08       3.5  T
   4  -1291.1563649 -0.116464E-06  0.277E-04    8.08      13.1  T
   5  -1291.1563649 -0.175805E-08  0.345E-05    8.08     105.6  T
     SCC iter.                  ...        0 min,  3.414 sec
     gradient                   ...        0 min, 12.343 sec
 * total energy  : -1283.3577674 Eh     change       -0.5150660E-03 Eh
   gradient norm :     0.0088448 Eh/a0  converged?    E=F G=F D=F
   step length   :     0.2739136 a0

........................................................................
.............................. CYCLE    4 ..............................
........................................................................
   1  -1291.1533443 -0.129115E+04  0.134E-02    8.10       0.0  T
   2  -1291.1533470 -0.270289E-05  0.825E-03    8.10       1.0  T
   3  -1291.1533481 -0.109687E-05  0.868E-04    8.10       4.2  T
   4  -1291.1533482 -0.738735E-07  0.265E-04    8.10      13.7  T
   5  -1291.1533482 -0.169507E-08  0.285E-05    8.10     127.7  T
     SCC iter.                  ...        0 min,  3.388 sec
     gradient                   ...        0 min, 12.254 sec
 * total energy  : -1283.3580456 Eh     change       -0.2782530E-03 Eh
   gradient norm :     0.0155230 Eh/a0  converged?    E=F G=F D=F
   step length   :     0.2874994 a0

........................................................................
.............................. CYCLE    5 ..............................
........................................................................
   1  -1291.1555997 -0.129116E+04  0.608E-03    8.10       0.0  T
   2  -1291.1556001 -0.409143E-06  0.363E-03    8.10       1.0  T
   3  -1291.1556002 -0.131014E-06  0.350E-04    8.10      10.4  T
   4  -1291.1556002 -0.120810E-07  0.105E-04    8.10      34.6  T
     SCC iter.                  ...        0 min,  2.611 sec
     gradient                   ...        0 min, 12.263 sec
 * total energy  : -1283.3581820 Eh     change       -0.1363576E-03 Eh
   gradient norm :     0.0053002 Eh/a0  converged?    E=F G=F D=F
   step length   :     0.0963691 a0

........................................................................
.............................. CYCLE    6 ..............................
........................................................................
   1  -1291.1555591 -0.129116E+04  0.250E-03    8.10       0.0  T
   2  -1291.1555594 -0.251836E-06  0.149E-03    8.10       2.4  T
   3  -1291.1555594 -0.636944E-07  0.288E-04    8.10      12.6  T
   4  -1291.1555594 -0.764840E-08  0.725E-05    8.10      50.2  T
     SCC iter.                  ...        0 min,  2.550 sec
     gradient                   ...        0 min, 12.343 sec
 * total energy  : -1283.3582169 Eh     change       -0.3490411E-04 Eh
   gradient norm :     0.0026418 Eh/a0  converged?    E=F G=F D=F
   step length   :     0.0442229 a0

........................................................................
.............................. CYCLE    7 ..............................
........................................................................
   1  -1291.1553323 -0.129116E+04  0.281E-03    8.10       0.0  T
   2  -1291.1553326 -0.291896E-06  0.169E-03    8.10       2.1  T
   3  -1291.1553326 -0.491764E-07  0.306E-04    8.10      11.9  T
   4  -1291.1553326 -0.903174E-08  0.480E-05    8.10      75.7  T
     SCC iter.                  ...        0 min,  2.579 sec
     gradient                   ...        0 min, 12.467 sec
 * total energy  : -1283.3582429 Eh     change       -0.2605569E-04 Eh
   gradient norm :     0.0033096 Eh/a0  converged?    E=F G=F D=F
   step length   :     0.0517782 a0

........................................................................
.............................. CYCLE    8 ..............................
........................................................................
   1  -1291.1553828 -0.129116E+04  0.239E-03    8.09       0.0  T
   2  -1291.1553830 -0.226207E-06  0.144E-03    8.09       2.5  T
   3  -1291.1553831 -0.387645E-07  0.274E-04    8.09      13.3  T
   4  -1291.1553831 -0.674072E-08  0.407E-05    8.09      89.3  T
     SCC iter.                  ...        0 min,  2.557 sec
     gradient                   ...        0 min, 12.448 sec
 * total energy  : -1283.3582638 Eh     change       -0.2087559E-04 Eh
   gradient norm :     0.0020993 Eh/a0  converged?    E=F G=F D=F
   step length   :     0.0497052 a0

........................................................................
.............................. CYCLE    9 ..............................
........................................................................
   1  -1291.1555034 -0.129116E+04  0.282E-03    8.09       0.0  T
   2  -1291.1555036 -0.219741E-06  0.170E-03    8.09       2.1  T
   3  -1291.1555036 -0.552552E-07  0.260E-04    8.09      14.0  T
   4  -1291.1555036 -0.729779E-08  0.589E-05    8.09      61.8  T
     SCC iter.                  ...        0 min,  2.518 sec
     gradient                   ...        0 min, 12.463 sec
 * total energy  : -1283.3582826 Eh     change       -0.1881094E-04 Eh
   gradient norm :     0.0020227 Eh/a0  converged?    E=F G=F D=F
   step length   :     0.0676740 a0

........................................................................
.............................. CYCLE   10 ..............................
........................................................................
   1  -1291.1555417 -0.129116E+04  0.360E-03    8.09       0.0  T
   2  -1291.1555419 -0.226606E-06  0.218E-03    8.09       1.7  T
   3  -1291.1555420 -0.735622E-07  0.255E-04    8.09      14.3  T
   4  -1291.1555420 -0.768659E-08  0.749E-05    8.09      48.5  T
     SCC iter.                  ...        0 min,  2.557 sec
     gradient                   ...        0 min, 12.425 sec
 * total energy  : -1283.3583032 Eh     change       -0.2061193E-04 Eh
   gradient norm :     0.0018480 Eh/a0  converged?    E=F G=F D=F
   step length   :     0.0917943 a0

........................................................................
.............................. CYCLE   11 ..............................
........................................................................
   1  -1291.1550212 -0.129116E+04  0.968E-03    8.09       0.0  T
   2  -1291.1550226 -0.141859E-05  0.589E-03    8.09       1.0  T
   3  -1291.1550232 -0.558211E-06  0.635E-04    8.09       5.7  T
   4  -1291.1550232 -0.434441E-07  0.207E-04    8.09      17.6  T
     SCC iter.                  ...        0 min,  2.487 sec
     gradient                   ...        0 min, 12.492 sec
 * total energy  : -1283.3583352 Eh     change       -0.3195011E-04 Eh
   gradient norm :     0.0045490 Eh/a0  converged?    E=F G=F D=F
   step length   :     0.2472919 a0

........................................................................
.............................. CYCLE   12 ..............................
........................................................................
   1  -1291.1557922 -0.129116E+04  0.333E-03    8.09       0.0  T
   2  -1291.1557925 -0.269439E-06  0.198E-03    8.09       1.8  T
   3  -1291.1557926 -0.728730E-07  0.299E-04    8.09      12.2  T
   4  -1291.1557926 -0.863520E-08  0.741E-05    8.09      49.1  T
     SCC iter.                  ...        0 min,  2.508 sec
     gradient                   ...        0 min, 12.511 sec
 * total energy  : -1283.3583625 Eh     change       -0.2728285E-04 Eh
   gradient norm :     0.0025385 Eh/a0  converged?    E=F G=F D=F
   step length   :     0.1079586 a0

........................................................................
.............................. CYCLE   13 ..............................
........................................................................
   1  -1291.1556497 -0.129116E+04  0.349E-03    8.09       0.0  T
   2  -1291.1556500 -0.273060E-06  0.210E-03    8.09       1.7  T
   3  -1291.1556500 -0.701277E-07  0.290E-04    8.09      12.5  T
   4  -1291.1556500 -0.921614E-08  0.704E-05    8.09      51.7  T
     SCC iter.                  ...        0 min,  2.424 sec
     gradient                   ...        0 min, 12.494 sec
 * total energy  : -1283.3583812 Eh     change       -0.1869743E-04 Eh
   gradient norm :     0.0011067 Eh/a0  converged?    E=F G=F D=F
   step length   :     0.0935477 a0

........................................................................
.............................. CYCLE   14 ..............................
........................................................................
   1  -1291.1550104 -0.129116E+04  0.499E-03    8.09       0.0  T
   2  -1291.1550110 -0.575421E-06  0.298E-03    8.09       1.2  T
   3  -1291.1550111 -0.129609E-06  0.422E-04    8.09       8.6  T
   4  -1291.1550111 -0.195653E-07  0.912E-05    8.09      39.9  T
     SCC iter.                  ...        0 min,  2.437 sec
     gradient                   ...        0 min, 12.461 sec
 * total energy  : -1283.3583831 Eh     change       -0.1902165E-05 Eh
   gradient norm :     0.0017710 Eh/a0  converged?    E=F G=F D=F
   step length   :     0.1294150 a0

........................................................................
.............................. CYCLE   15 ..............................
........................................................................
   1  -1291.1557536 -0.129116E+04  0.270E-03    8.09       0.0  T
   2  -1291.1557537 -0.110757E-06  0.163E-03    8.09       2.2  T
   3  -1291.1557537 -0.433097E-07  0.184E-04    8.09      19.8  T
   4  -1291.1557537 -0.350110E-08  0.590E-05    8.09      61.6  T
     SCC iter.                  ...        0 min,  2.429 sec
     gradient                   ...        0 min, 12.395 sec
 * total energy  : -1283.3583850 Eh     change       -0.1906014E-05 Eh
   gradient norm :     0.0015359 Eh/a0  converged?    E=F G=F D=F
   step length   :     0.0589996 a0

........................................................................
.............................. CYCLE   16 ..............................
........................................................................
   1  -1291.1554991 -0.129116E+04  0.720E-04    8.09       0.0  T
   2  -1291.1554991 -0.231901E-07  0.437E-04    8.09       8.3  T
   3  -1291.1554991 -0.517798E-08  0.874E-05    8.09      41.6  T
     SCC iter.                  ...        0 min,  1.851 sec
     gradient                   ...        0 min, 12.388 sec
 * total energy  : -1283.3583865 Eh     change       -0.1515816E-05 Eh
   gradient norm :     0.0003172 Eh/a0  converged?    E=F G=T D=F
   step length   :     0.0155897 a0

........................................................................
.............................. CYCLE   17 ..............................
........................................................................
   1  -1291.1554277 -0.129116E+04  0.807E-04    8.09       0.0  T
   2  -1291.1554277 -0.187711E-07  0.488E-04    8.09       7.4  T
   3  -1291.1554277 -0.465138E-08  0.751E-05    8.09      48.4  T
     SCC iter.                  ...        0 min,  1.833 sec
     gradient                   ...        0 min, 12.426 sec
 * total energy  : -1283.3583869 Eh     change       -0.4025635E-06 Eh
   gradient norm :     0.0004226 Eh/a0  converged?    E=T G=T D=F
   step length   :     0.0209855 a0

   *** GEOMETRY OPTIMIZATION CONVERGED AFTER 17 CYCLES ***

------------------------------------------------------------------------
 total energy gain   :        -0.0033606 Eh       -2.1088 kcal/mol
 total RMSD          :         0.0386064 a0        0.0204 Å
 total power (kW/mol):        -0.5190083 (step)   -0.0314 (real)
------------------------------------------------------------------------

 L-ANCopt (total)              0 d,  0 h,  4 min, 40.869 sec
 setup                          ...        0 min,  0.030 sec (  0.011%)
 model hessian                  ...        0 min,  7.811 sec (  2.781%)
 ANC generation                 ...        0 min,  2.489 sec (  0.886%)
 coordinate transformation      ...        0 min,  0.001 sec (  0.000%)
 Rational function              ...        0 min,  0.000 sec (  0.000%)
 singlepoint calculation        ...        4 min, 30.412 sec ( 96.277%)
 optimization log               ...        0 min,  0.119 sec (  0.042%)
 hessian update                 ...        0 min,  0.000 sec (  0.000%)

================
 final structure:
================
$coord
       -8.00128610175000      -10.86799051985000       -8.04339858084600      o
       -9.79050746322700      -10.65880071471700       -8.38132322390400      h
       -7.87861701011100      -11.94983101541400       -6.57513300307000      h
        2.90881365215900       -4.50065833346700        1.44832455933600      o
        1.38843030348700       -5.14952636154500        0.64026223708100      h
        2.32716144340700       -4.06600298584300        3.15187906033600      h
        4.00167212778600       -0.80672048095900       -1.96757241269200      o
        5.30063916937800        0.17300173820800       -1.13997845844700      h
        3.48605282868700       -2.06370707369400       -0.72805929623700      h
        7.20466540739100        0.85639530334300        1.55412585000300      o
        8.79400693937600        1.50866810641100        2.24390442004300      h
        7.12560282560100       -0.83839150533400        2.24632823715800      h
        0.06170615230100       -3.27893003395500       -3.99064992097400      o
       -1.36788709231400       -2.94313010804700       -5.06526049796600      h
        0.42418632217900       -1.71347868954200       -3.11165450401300      h
       -6.04306097620300      -10.40588388510900        2.32199733072400      o
       -5.37185207920700      -12.01061917910100        1.75662339383200      h
       -6.95665382484500      -10.78091928874600        3.87539835914300      h
        7.90325430971800       -3.41211130916700        4.41011398033200      o
        7.65517891528400       -5.23877679966800        4.36904836046800      h
        9.60824910314600       -3.15008737374700        5.04432286886300      h
       -1.62357034880900       -6.32656848330900        0.07329104977000      o
       -3.22091902834200       -5.70213479071300        0.72323375592500      h
       -1.84373663203100       -6.56313107294100       -1.75467652559400      h
        4.41771945529200       -9.94286818976300        0.60057642896400      o
        3.91161085361100       -9.11146418820000       -0.96615602492100      h
        5.20129253872300      -11.56743432342500        0.20639556563700      h
        3.58908140856200        4.18304152827700        2.81116407307400      o
        4.69612116098900        2.71875234548100        2.60761766936100      h
        3.27336105844800        4.34337841784800        4.63801184597400      h
        2.45950559629100        4.90693139384000        7.65277979953300      o
        2.94486241774600        3.49172702375800        8.72536869857200      h
        0.60691760280900        4.80646994128200        7.57781764167300      h
       -0.37173417315800        0.53494861513900        3.50321219812100      o
        1.33435527029300        0.21338269883300        4.12275942469600      h
       -1.36907986201100       -0.87191995589500        4.14042866052100      h
        1.08103986856900       -6.02966039735000       -8.18857072694300      o
       -0.43123863353500       -6.68029374674900       -7.38732630026500      h
        1.32762095880700       -6.93607739172300       -9.77588591184000      h
       -1.30920647950700        5.81812920097900        1.97686147813700      o
        0.24890118766600        4.85160244168500        2.05037160383600      h
       -1.08592746823600        7.20786409756200        3.16459204766300      h
       11.17118487839000        3.80220331425400       -1.74133738910100      o
       11.76692731770100        4.89459033424800       -3.10487378917200      h
       11.95752014325000        4.56199537013400       -0.22498161485600      h
       -0.73550280713100       -1.92340841006700      -10.32491102546600      o
        0.40685115588700       -3.13037294157300       -9.52165091239900      h
       -2.23078127091100       -1.96253598066600       -9.24061451790300      h
       -4.24905315470300       -1.85151024290000       -6.80645151626500      o
       -5.34750089865900       -0.45648342372100       -7.27850246664000      h
       -5.30466813124200       -3.01230171001700       -5.87937647509600      h
      -15.63790815954600        0.46810315035100       -6.72536326031800      o
      -16.99048241453200        0.68976621217600       -7.99304531623300      h
      -15.02520379182600       -1.25229058784600       -6.93582844980900      h
      -12.44179589141800       -2.10994525823000       -2.64500843989400      o
      -12.97511912133200       -3.76366234142400       -3.29016829464700      h
      -11.57255898335500       -2.44442166845900       -1.04617737636700      h
       -6.47974934221500        4.93956064174000        1.87482059508800      o
       -6.93899277247900        4.78258477679100        0.11814893047400      h
       -4.67852208029500        5.26183600897700        1.93757608140600      h
       -4.92999673323100        8.27096396923800       -6.43434629485000      o
       -3.72311397545700        7.85732797153800       -5.10220690605600      h
       -4.25851892105100        7.56723225994300       -8.01172010906100      h
        4.04068123751200        1.19674385649100       -8.69359787814800      o
        3.79969092606100        2.31513177588200       -7.25957647651000      h
        4.43294279784400       -0.44247582804300       -7.97175495296200      h
       -6.28078878672900       -5.18999298174700        1.71380057922400      o
       -6.71424823810500       -6.96376980484800        1.75103053577900      h
       -7.87190933639100       -4.24274646854600        1.69690974778500      h
       -7.10980531230700       -4.95180278230400       -3.76214456891100      o
       -7.95160321533800       -6.41907474085300       -3.01096650392700      h
       -7.30709789343600       -3.52938494522600       -2.58828529196400      h
       -4.46719603880900       -2.06186989837800        5.46265734907100      o
       -5.03675162931200       -3.31064410704300        4.23888285902500      h
       -4.29563186709900       -2.91716503275300        7.07838950090200      h
      -12.33425799419300        3.49783576697900       -3.10990077124600      o
      -12.69248102819100        1.71912213669200       -3.00757084951100      h
      -13.87153347027800        4.34664843704700       -3.72294023140800      h
        2.43528531554800       -7.68877645857300      -12.78480123503400      o
        3.48295681450900       -9.12474751333800      -12.30815928201500      h
        3.57872144090200       -6.24842011521800      -12.70992288085100      h
        7.58770328471800       -4.77223246705700       -0.84709907791600      o
        8.15579708716100       -6.50708129294900       -1.06765835686100      h
        6.00415559920300       -4.83531392637700        0.07089955018100      h
      -15.46160651404400       -6.41788964646700        1.02486305893000      o
      -16.40421161181400       -7.92823377085400        1.56593902315500      h
      -16.67748370687700       -5.30044487380300        0.19011865343600      h
        8.66137206802900        6.41830623126200        3.76201318968200      o
        8.70523904598600        7.69545352005500        2.46193957389600      h
       10.30500748312600        6.43754365805500        4.61693514853600      h
      -14.61903915542400      -12.22476968095700       -2.38914040637300      o
      -14.47394064552200      -11.82719697346800       -4.15257762833600      h
      -16.39598346950900      -12.22908131256400       -2.00863075824500      h
      -10.10480334434600       -1.79009191419100        7.78916528688300      o
       -9.37308837987500       -3.38965208992500        7.21945094579500      h
       -9.32678582995000       -0.46582169592900        6.79148287173200      h
        7.04717879260300        8.78406908717100       -5.79938911226100      o
        6.90595596794900        6.97643273616900       -6.10533406650900      h
        6.53844146288500        9.65382462674200       -7.34095699048000      h
       10.70542573787100       -7.21325128313300        8.86414265344700      o
        8.90354702751200       -6.98971044711900        8.52998816653600      h
       11.55753024496900       -5.87798235510000        7.94554988927500      h
       12.15306129651100       -2.81389502640400        0.56036369684500      o
       11.92970518574400       -1.34069256075000        1.62346163287500      h
       10.50148180120200       -3.55639034526900        0.29189825787300      h
      -10.83557801520000       -8.43845870020900        2.65235851499000      o
      -12.16767018182100       -7.32682967215900        2.08716406143400      h
      -11.68770161268800       -9.98775601657600        3.19075980362400      h
        3.85562303697600        9.29394750012500        2.11954094550500      o
        3.98336696629800        7.48502908647300        2.39193734099600      h
        2.40897586774600        9.80780414827300        3.13876970034600      h
        0.41283403410000       -4.01852154002200        5.74971739923200      o
       -0.87002941075000       -5.28312537409500        5.41280957103100      h
        0.93174110939700       -4.33141456739800        7.48153566273800      h
       -7.48182487225500        4.79779492093100       -3.43052023531800      o
       -6.85747192368000        4.23651210295800       -5.07190653279400      h
       -9.27442687711100        4.39375015793400       -3.41980123786900      h
        8.83445021957300       -0.48415347779700       -3.63848703589400      o
        8.37057366297300       -1.95938772198900       -2.65168036510100      h
        9.87961649939400        0.56323104813700       -2.57563272427800      h
       12.02922551244900      -12.86438744193200       -5.07249222066000      o
       13.53200857629400      -13.31863731124800       -4.16560356013800      h
       12.47826118151800      -11.56892444584600       -6.29641526149500      h
        7.94769151569400        3.79420039874700       -6.41101003489800      o
        9.70153891344500        4.25783384645100       -6.30668673744600      h
        7.76363765139900        2.27216685974000       -5.40356348438000      h
       -9.43583404679900       -1.05174518364600       -6.61420344120600      o
       -9.84430993104300        0.62206153019500       -7.23876271270600      h
      -10.38307974156000       -1.28884133569900       -5.05084048793000      h
       -3.11466989171100        2.20179355307100      -13.19282017466100      o
       -1.30165963008300        1.98692357358700      -13.41081259349700      h
       -3.72926392018400        0.59820989057600      -12.56299260270600      h
       13.55803982865800       -2.95642671323400       -4.49732476127200      o
       14.28186002815000       -2.65286255252200       -6.16045364421000      h
       14.23744891759000       -1.70330496174400       -3.32227867747000      h
       14.06702399967100        2.79265896705400       -7.67000793666000      o
       13.76826808015100        4.45868720360400       -6.97866124689500      h
       13.97988371098900        2.94038006754100       -9.50991733526100      h
        4.95194526707400       -3.23292388244300       -6.25031207709100      o
        4.64808870736400       -2.36063089067700       -4.61998233465300      h
        3.45567985215400       -4.26722953514700       -6.53995804940700      h
      -18.68190943975900       -4.07314137723900       -2.05136638071000      o
      -18.71294894455600       -4.33396119591400       -3.87691622217500      h
      -20.20771767573700       -4.89136304723300       -1.40707322986600      h
       -0.19637919702000        9.63666228477000        5.09116515626500      o
        0.43587804037500       10.04111286169000        6.76551194320000      h
       -1.42701985795800       10.93185070953400        4.66897293904900      h
       -6.11903609784700        2.92734620833900       -7.95683389739800      o
       -4.28295363258800        3.08676756404800       -8.12707726310800      h
       -6.83993345292300        3.42406196252700       -9.57064585069300      h
        6.72574077162700       -9.59694496830800       -5.74277277674400      o
        7.94173621708500       -8.22238175162700       -5.96837145666500      h
        5.20934015702000       -8.79745151974200       -5.03751964096100      h
       -1.11937631258000        2.81134436105600       -8.13850585397400      o
        0.04544422827200        3.06429845983900       -6.77231926292500      h
       -0.61170466055200        1.28914970439200       -9.02823498349100      h
       13.18722569597900       10.65394164499800        2.29005425630000      o
       12.86744484560800       11.36241604505100        3.97216136838500      h
       11.60406055449200       10.74693919443900        1.35195326647300      h
        7.45277049735700        2.91115642610900        7.46308262188000      o
        8.00144060895600        3.92586168971100        6.06029305000700      h
        6.25438277544300        1.68762442777700        6.78246710204400      h
        6.78451283280800        5.00598757304900       11.92340427043300      o
        6.89340743874700        4.22825342419300       10.22657370764600      h
        6.42630948824200        3.66051588195600       13.10347371616100      h
       15.32957292325800        0.76955077680400       -1.40209045377300      o
       16.35477361820100        2.16732775648700       -2.01225322739700      h
       13.65843545620200        1.50564857095300       -1.27803982941400      h
      -10.12635092860900        7.86046093250500        5.38921493433000      o
      -10.31153194886000        7.35307248709100        3.63923409256100      h
       -8.40809672150300        7.35082313684500        5.86840138085300      h
       -7.26500439058900        2.06837950727500        5.89626005074400      o
       -6.01852103584300        0.71203418850600        5.70256009319100      h
       -7.12744555765700        3.12897061015100        4.38048780043900      h
      -13.59201622760600       -6.91162137409300       -3.61929120026800      o
      -12.01828000129900       -7.87335759439100       -3.44871807926900      h
      -14.33935929011800       -6.98253179700100       -1.93035947047300      h
      -22.17636780235000       -0.28930883500200        0.97565606485100      o
      -20.75026515028300       -1.06760289075900        1.86445263993400      h
      -21.44139014023400        0.91927085037600       -0.17047581825400      h
        7.93947510405100       -8.47978013945600        4.05918067832300      o
        6.81819485497200       -8.98311294121000        2.68916758290000      h
        9.65521389316700       -8.51155120611200        3.41724266023800      h
      -11.80298930475600        3.04439703248000       -8.54532599435600      o
      -13.30443454070600        2.37228669614400       -7.66757002407900      h
      -11.24445903835700        4.57977508708500       -7.68391947983600      h
       -7.85763268550100        3.98806826090800      -12.79794788990000      o
       -6.20064827294400        3.55132838417900      -13.44394741206400      h
       -8.98301989469500        2.60158950575500      -13.21192001050800      h
        4.40791075281700       -3.97649213082200       14.13754729369900      o
        5.28845612167800       -5.54889584578900       14.32326140015900      h
        3.07160183035800       -4.27784700650200       12.90290227380500      h
      -15.53673723867100       -0.61282676772600        7.22647096589100      o
      -14.25737262198300        0.71599625974100        7.07109227898400      h
      -16.34902808918900       -0.28976866466300        8.85652582255700      h
      -15.74432572178200        0.40625802590200        0.22775566376400      o
      -14.98598300822700       -0.64835538775800       -1.07405211875500      h
      -16.60805112298300       -0.73730218244800        1.37261716253600      h
       13.66978704375900        5.69910098517800        1.95522646797000      o
       13.58317026207800        7.53205746463900        2.14074515050000      h
       15.46206170858500        5.24206650225300        1.80108894947600      h
       -3.36978292302300       -7.56192554986200        5.60184807355500      o
       -3.95374970723400       -8.52514334119300        4.14027660353400      h
       -2.52971676825300       -8.78709986366400        6.64997529126600      h
      -19.37026653583000        0.86712297161100       -3.30573699047500      o
      -17.97641694920900        1.07133968719700       -4.48362542751700      h
      -19.29179922149300       -0.90027787002800       -2.80598580445400      h
       -2.44625578771100       -5.85972926349900      -13.16694444863300      o
       -0.96299823219900       -6.72052098024800      -13.78150169699300      h
       -1.78585700810300       -4.35482799090800      -12.30898699653100      h
       -2.94854903818100       -9.69319669896600       -9.62782662127200      o
       -4.63809448444600      -10.30962724380900       -9.35651233766200      h
       -3.03331730203200       -8.38908263612800      -10.92565363636400      h
       -2.75513855791900       -7.64070171874000       -4.67892358696600      o
       -4.40682019197100       -6.85255423787500       -4.61850610020500      h
       -2.97925290780600       -9.43614483812100       -4.36067094946600      h
        6.48826430429000        5.59468214204800       -1.46527524349800      o
        8.11703405206800        4.71572297570000       -1.54147456336300      h
        5.70131426546900        5.07684119060600        0.09580689710700      h
        7.62000028988400       -1.95191545192200        9.93891526007800      o
        6.89245089424300       -3.49448058539000        9.22281682568900      h
        6.19653575987000       -0.91588987440600       10.39624267868200      h
      -11.47717485158000        7.25825509962400        0.41262847197900      o
      -11.73452741053200        5.75996358743800       -0.62124883824400      h
       -9.93391132585700        8.07570125726900       -0.23377820827000      h
       -2.77950672502400      -12.45081462117200       -2.84821991897400      o
       -2.05047876887200      -11.99272532704800       -1.18918052544400      h
       -1.61479539181300      -13.64710441809200       -3.55664337655000      h
       -5.28407106892700        7.37036009143700        6.40419764522800      o
       -5.01434159245600        8.61373412663300        7.73277499944000      h
       -4.90052294178300        8.29142961906600        4.82144186335600      h
       -2.21949082657100        3.56015818536900        7.09694719629500      o
       -1.81733249308600        2.65730506125700        5.53672008600700      h
       -3.38230149383200        4.95991202683200        6.73324558674300      h
       -8.20957307953900       -6.24157876644200        6.66452536376900      o
       -9.16597987033700       -7.03146006954300        5.30728345243000      h
       -6.43489393327300       -6.67811261674400        6.39186677428300      h
      -19.30910259031200        1.39108171976200       -9.96545927219200      o
      -19.29953141259300        3.24935390780000       -9.70604621615800      h
      -18.49125411681500        1.11315979016200      -11.57846303146100      h
       -9.71726091933700        8.66886780546800      -12.16689977778000      o
       -8.98349383021500        7.06297904902400      -12.69961610066200      h
       -8.30607917354600        9.87304342820800      -12.24381908795600      h
      -20.00621095755300      -10.53789288829200       -2.01094157466300      o
      -21.35840155130600       -9.34357095654500       -1.71420568053100      h
      -19.23177094854800      -10.01450942676600       -3.61659293050500      h
      -17.43723537251000       -6.57006958953600        9.60211862013900      o
      -16.39300658724500       -5.23627610642200       10.31250927033400      h
      -16.30813382343800       -7.99164360105000        9.40799542633400      h
        5.49650128049700       11.06132427043400      -10.24790147917500      o
        4.09054702917500       12.11880808729400       -9.70862818406100      h
        4.72209070208300        9.70525225724900      -11.21080606014700      h
        8.71131679505700       10.09235281841100       -0.07306055781800      o
        7.85841784641300        8.72191252190200       -0.96020206631700      h
        8.66247204348900       11.56109948224200       -1.22742039255400      h
        2.74668442026400        4.02761294882600       -4.49825838736900      o
        1.77788226236300        3.00742536593500       -3.29846410917200      h
        4.20620573302800        4.63060638565600       -3.53565210719800      h
        3.93804211957300        6.47310799220700      -11.97457447736900      o
        2.84591771536100        5.20900270525600      -12.75167605312400      h
        5.53770954084500        5.56494757673400      -11.75588527027800      h
       21.68437814296900       -3.32058043915200       -9.24381208803300      o
       22.87436646597400       -3.58583852431600       -7.87544299806100      h
       20.96381335509400       -1.67338857096800       -8.93679102972000      h
       15.54230817684800       -2.76841295844800       -9.20456434617000      o
       16.46134863845100       -4.36501843824500       -8.97866882261700      h
       16.79149616028500       -1.44843851226700       -9.23164152272900      h
      -11.56183703320900        5.42911330108900       11.79163311798400      o
       -9.73444852675600        5.26709725508600       11.54694283159500      h
      -12.05751044820000        7.12449376244900       11.34693976249100      h
       16.36985401621400       -0.93426973846200        3.53681632086800      o
       16.45311900156100        0.43980803578000        4.75619856983300      h
       16.06535310096300       -0.19850841115100        1.88180959514400      h
       12.92926690935300       -3.87252487361200        5.59086471554000      o
       14.01433411367700       -2.56925572519900        4.80941443742300      h
       12.87902207400200       -5.24228281351300        4.34266223212200      h
       11.59887787336100        1.40445550834900        3.68131224573000      o
       11.70180287376700        1.06879695170600        5.50206806978100      h
       12.44660431345800        3.00084753075000        3.39934914928100      h
      -13.28435181644000       -3.91855638373400       -8.04700127496000      o
      -11.61765043891000       -3.12963660664500       -7.92943635843300      h
      -13.05175994335100       -5.70189803412900       -7.71506810421100      h
      -18.31226536208300       -2.37879483615800        3.47871362424000      o
      -17.63339058069100       -1.49307628714100        4.95548839022300      h
      -19.00699002674500       -3.97966690499900        4.10245779684500      h
      -10.65693844799800       -2.82257762153300        2.08207604045600      o
      -11.60591108223400       -3.56108970839000        3.48100786076900      h
      -10.69930151590400       -0.97739911424000        2.32897735647200      h
        3.07955896290800        9.69898825773400       -2.72942791702700      o
        4.57089900386100        9.14726108053100       -3.66650695647800      h
        3.46980949918400        9.56531088429600       -0.90421252341800      h
       -6.76907875992300        4.01409684346600       10.70283844604400      o
       -5.28584661952400        5.02810519465600       11.08766276143500      h
       -6.66745840571500        3.62395198860200        8.90493627220500      h
       16.49724206176200        3.00736566798100        6.68442695270000      o
       14.95242774585600        3.97003467099100        6.93145820816300      h
       17.19677630648800        2.64843014834000        8.35256852854900      h
        4.11106039609500       -0.45540101099600        5.70019366384000      o
        5.32032003000300       -1.81507013169800        5.37513877826100      h
        3.38492241030900       -0.74080606959600        7.34820996200800      h
       19.02441209718600       -2.57186859843500       -3.60101436444900      o
       18.64946173669700       -1.57966537337600       -5.11038812816700      h
       19.34698981509500       -1.25733057123400       -2.33471197401800      h
       15.15528218918600        7.18968624596600      -11.59406713980900      o
       14.79294922102300        5.62662172596000      -12.46201506032200      h
       13.53357514039800        7.97715962964800      -11.29420620700900      h
       10.02529944918600       -0.51277571470100       -8.60882290935900      o
       11.58692187869100        0.36342136867300       -8.23627974395600      h
        9.34307767268800       -0.93281425150400       -6.96330968076700      h
      -23.30760255401000       -0.20240567971500       -7.07712647459600      o
      -22.08125661711200        0.26623848367900       -8.36415460501800      h
      -23.69244638781300        1.38480488447300       -6.26183642093800      h
      -22.94598383895000        4.36343642109600       -4.10024253631000      o
      -22.30282642530800        6.06171682509600       -3.87445249707100      h
      -21.50666115736000        3.24044663464900       -3.82722847803400      h
       -8.44779529131700       12.68191562445400        5.29628446543600      o
       -9.36969307090000       11.08146565595100        5.35977347892800      h
       -9.17853979005100       13.64867456814000        3.92545159933700      h
       -7.43867140700600        9.45533005443200       -1.49177223790800      o
       -7.67545307578000       10.96727747730500       -2.52163479832800      h
       -7.03934893045100        8.03760733199300       -2.59473769847900      h
        6.87149657375700       -0.31258498522800      -14.23643036116100      o
        8.40566350148900       -0.85130362536700      -15.03684239266100      h
        6.42123077151900       -1.70430491760000      -13.07947697166700      h
      -16.80408294150800       10.59538595044700        4.62744026642400      o
      -16.32104855091500        8.80715517159600        4.49105546069800      h
      -18.53593532892900       10.62547094559600        3.99133084063400      h
       -3.90596407997600       13.12016329065200       -7.07681177021900      o
       -4.27343727033900       11.30133305879400       -6.85143653111600      h
       -2.12531019341200       13.21679125611000       -7.58272098389100      h
       11.88372797822000       -2.62058031272900      -12.72664868176700      o
       13.46967932427800       -2.94036568899400      -11.85410296995800      h
       10.80218436956300       -2.03259290639200      -11.33271307916700      h
      -10.79757473289800       -0.36126151830500      -12.54723144395900      o
       -9.11733960129000       -1.13682118672300      -12.41373146004000      h
      -11.10830917715500        0.45762383119000      -10.94177701626900      h
       -1.91081732820500        0.77827637434800       11.22053524125400      o
       -2.82440744505900       -0.76160192465600       10.92479524214600      h
       -2.26169276907300        1.90493096623200        9.78569932993700      h
      -12.91961541525800       -9.18004780137400       -8.87187713111500      o
      -14.70762187532400       -9.50248780947200       -8.74883534129900      h
      -12.62128390494300       -8.35812141852100      -10.49615641401500      h
       -9.36086686075700       -9.00834049104800       -2.13641287666100      o
       -8.75005010740600      -10.66481149492300       -2.69457129677100      h
       -9.61385765575000       -9.10050676081600       -0.30846017457400      h
      -16.41385462349600        6.00895543773000       -4.42509263550000      o
      -16.16148995782600        7.83710159295200       -4.23526629961400      h
      -17.49521976700200        5.54853605349600       -3.00522235063500      h
      -10.92745591033100      -14.68846959466900        0.35879788806500      o
      -12.22279561427100      -14.11366390630600       -0.80648562185000      h
      -11.50767382729200      -14.04012499176600        1.96399389440900      h
       17.13213753724000       -4.92020809170800        8.39696876052500      o
       16.59279078904500       -4.16034051236400        9.99224468829200      h
       15.76745844048600       -4.45803663029700        7.24178216312600      h
       -2.78903044548800        6.97952349955500      -10.79086674605000      o
       -2.81884839571500        5.32310686045000      -11.57872436846600      h
       -1.18938004554500        7.09442345727400       -9.88050657430000      h
       12.05465159916400        7.13565334005500       -5.46022383917300      o
       13.42558824579900        8.34461262375500       -5.20210462067100      h
       10.49457375058000        8.10975274088700       -5.48661481466500      h
      -25.11409027874700       -2.51902941294200       -2.52328715485600      o
      -24.11503999151400       -1.53124969977000       -1.31996919293200      h
      -24.62572204293100       -1.95291838504200       -4.19070789530900      h
        5.85796298975500        8.59007486092700        7.30348996780400      o
        4.41313777939000        7.51258969159000        7.68761461575300      h
        6.77097503037100        7.67553725985900        5.96563246349600      h
        0.77568873216500        3.27177174903500       15.17956387147100      o
        1.05880513610900        4.96312267915700       14.56406454937200      h
       -0.50156938659800        2.54358606547100       14.09293741023600      h
       -4.35551551402600       -4.03307394444700       10.32387478403700      o
       -5.69143553353000       -3.14767761316900       11.25828528383900      h
       -4.73658064917600       -5.83406684463300       10.39418421607900      h
        4.81243856737200       -9.63990840819600       12.07648773758700      o
        3.03714811460300      -10.03684023969600       11.89994017203200      h
        5.67776812216000      -10.77753259314300       10.91872492442300      h
       -1.64094359345700        8.00176125746600       -2.55600601790800      o
        0.11651368409100        8.44605764748800       -2.90432019376600      h
       -1.61697970317200        7.17179518825100       -0.90026768364900      h
       10.55819155947900        0.67417955110200       15.55881832016000      o
       10.84372608452600       -1.09912332910900       15.26012466465400      h
        8.74569018045100        0.86395917787500       15.70249220894300      h
       -7.65504873395400      -13.49819550125800       -3.45141792185100      o
       -8.51269037883400      -14.23972559062700       -2.00510965493900      h
       -5.86388588447700      -13.27626885894500       -3.03895329874900      h
       -4.74778417160300       16.08047879967500        1.62973602758400      o
       -4.30920791154200       14.76550327994100        0.41747910520600      h
       -6.56622561634600       16.11864706299000        1.67249691795100      h
        1.58614901536000       12.06688842657400        9.24526099383000      o
        0.12986881428000       12.92253693025300        9.90278491842200      h
        2.28884300394900       13.16230632586100        7.94669406542500      h
       18.79023019658900        0.92725958216700       -7.24441736253000      o
       17.15179227372700        1.78969053564400       -7.18739336985100      h
       20.00657585928800        2.12590918532700       -6.55199286586900      h
       16.91088024115000       -4.96043839733400        0.51090655728500      o
       15.31477175304200       -4.05553254726000        0.68520550429500      h
       17.62470411086800       -4.33116682640500       -1.05226988211900      h
      -15.36352918037300        5.84154347127500        3.64517401428000      o
      -13.78363940185200        6.19727733255200        2.80969073954500      h
      -16.58782063651000        5.50427830270000        2.28712000133900      h
        5.84078371054700      -10.79803868575200      -10.61368014339800      o
        7.27763051326100      -10.19960636554900      -11.55669076464100      h
        6.23007453022500      -10.39365598381900       -8.84974795099800      h
      -13.73721067965000        9.20936032039600        8.81058111529600      o
      -14.82586605422200       10.34043160169100        7.88292742927000      h
      -12.50792621172000        8.62162028069800        7.56634815562600      h
       -0.56717816559200      -10.96602066044900        1.37302501358400      o
        1.26580547981200      -10.98377314966300        1.19059501933200      h
       -1.04368778469400       -9.18032838467000        1.10628378003200      h
      -16.25332084394600       10.98396378937400       -3.78540768059500      o
      -15.56284307965200       11.39218551379200       -2.10206456736300      h
      -15.02032576777800       11.62254909309600       -4.98536970976400      h
      -11.45181733697300        2.05456592900500        2.23246486838800      o
      -11.83576671548600        2.78183615599800        3.85998077468400      h
      -13.09035226173600        1.74925755426500        1.43705923247700      h
       16.60991275456500        9.40110896715400        7.13126929774000      o
       15.82051828512100       11.00429728443000        7.45251876375000      h
       16.75700266731000        8.51915584637900        8.77209997137800      h
      -17.10642904251000       -3.85606786334700      -11.38152180292100      o
      -16.99965783299200       -2.45633416352800      -12.53453145662400      h
      -15.50151790933000       -3.91707181710700      -10.47775288359900      h
        8.64113911244000       13.91946111025300       -3.17611542945000      o
        6.88274927252200       14.33445906349000       -3.55036590347800      h
        9.42131770836100       13.41045303779700       -4.75118233935400      h
       11.35076874391800       12.58072942212200       -7.48357036732800      o
       11.09003660720400       11.00599099704300       -8.39319212223900      h
       11.19204920067800       13.90469363063700       -8.70347926515200      h
        9.61078244858800       -9.42998559669800       -1.39497437021400      o
       11.22789250581200       -8.81803331685100       -2.01706185976300      h
        8.81017859894400      -10.22428307293500       -2.83565198266500      h
        2.48572226062800       -8.71423854664500        5.38458201189500      o
        2.73975402646700      -10.52230056786600        5.25747936957800      h
        2.85509465505000       -8.03314693756900        3.73624409503200      h
       -8.10771722088000      -11.44241753264300        6.95957612256400      o
       -8.08194049721600      -13.26744384877800        6.65592585819000      h
       -9.82170804883000      -10.97284488604100        7.39083592084100      h
      -13.69756135949600       -5.00199421494400        5.58699885743400      o
      -14.34863544098600       -3.48457073382200        6.42581122382300      h
      -14.84084923887300       -5.36039756999400        4.19776370209100      h
       12.99350101986600       -7.96056269953900        2.65704568673300      o
       14.34205707025300       -8.66079526206400        3.71143301509200      h
       13.71414289041800       -7.50472558269000        1.04014163836100      h
       22.71576190159800       -6.65131247835600       -0.36707365429900      o
       22.29319689134000       -5.15666248186900        0.66341646294500      h
       22.25002955266800       -8.06515682816800        0.68891252413200      h
       16.45759366379400       -9.51516560972400        6.12296863965800      o
       16.83915154309500       -8.09738062761800        7.23430910920100      h
       15.24911671299000      -10.61381800287500        6.97739087106700      h
      -23.68777494955100       -2.58833975613400        5.52616390488900      o
      -22.81666918283700       -1.24983085875600        6.41694418104800      h
      -23.99292673800800       -1.89355850249500        3.86985085149000      h
      -12.14531617477300        3.13944588983300        7.29714778598000      o
      -10.33662499839800        3.00735819279200        7.08103289113400      h
      -12.36939290513000        3.99759345857000        8.91074928219700      h
       -5.28655110312200       -9.19399355917100       10.70075950523600      o
       -6.66263834353000       -8.94472973630800       11.86782315003500      h
       -6.04451729615100      -10.06805673301200        9.25763747274400      h
       -7.92078937141000      -16.16012187976500        5.23137799950100      o
       -6.62570213996000      -15.92293604717600        3.93412568673100      h
       -9.41865364981900      -16.65069701502300        4.33651623087500      h
      -18.11327477677300      -10.28222338956900        2.66800512157300      o
      -18.99400488089800      -10.62394092444600        1.07729023900200      h
      -19.24087501889300       -9.30074094699400        3.73161386394400      h
       13.04146703299400       -8.77676594644300       -8.21497693589500      o
       12.15568201589000       -7.48842843114600       -7.25354994335900      h
       14.78064657351300       -8.24607608894600       -8.38034286205000      h
       12.55042754766100        6.32790512011000        6.91257298698000      o
       11.68882683110800        6.88721377464300        8.43140232386400      h
       13.91410026330300        7.53624944994800        6.63409039213100      h
       11.88818058376100       12.41258120407500        6.83988250950200      o
       11.36781278942300       11.32738011795900        8.22974801619400      h
       10.29972564032700       12.98485754735600        6.09937965267100      h
      -20.36656289973600       -6.49592567450800        5.47662937783800      o
      -21.85246817484200       -5.45393973089500        5.80208731569500      h
      -19.42318308027800       -6.55031234524300        7.07658455032600      h
       18.47710379164800        1.77043224854400       11.20757306030100      o
       19.77280122335600        0.79987289249700       10.36207148678300      h
       17.27755386937800        0.53191653057800       11.84920515443200      h
        7.25951186130000      -14.62852137712800       -4.62338380583500      o
        9.07348596026200      -14.61877540486200       -4.88902085191600      h
        6.74594807796500      -12.97680930204700       -5.23619279426300      h
      -18.51927856574900        4.69723916443400        0.02385369904200      o
      -20.06311929768100        4.64883422484900        1.04635806270300      h
      -17.84157796444200        2.98530479408700       -0.11517226401600      h
       -9.90417776379900       -7.06661840495600       11.48529644263200      o
      -11.12678633734200       -5.75280992875600       11.90343414246500      h
       -9.17956270040800       -6.56558174551900        9.86132657514400      h
       -1.67738212163500      -12.50680416445000        6.12898132073900      o
       -1.19722524698100      -12.05794967474600        4.39574872038200      h
       -1.95396017678500      -14.29019143944300        6.14584663672100      h
        3.58167710759200      -13.87445854041400        4.54456241638200      o
        4.66478975986200      -13.70715056595600        6.01889437293700      h
        4.72267072436200      -14.20061162700000        3.14709929750200      h
        9.51444036710900       -5.50648699454700       -6.09322572364500      o
       10.74035907854400       -4.41301863935000       -5.26334066830500      h
        7.92525203369500       -4.56881090487500       -6.08111245672200      h
       11.92656614590700        0.46511011584300        8.61140789912200      o
       10.30068931779100       -0.34579183410100        8.92501344577800      h
       11.90050039017200        2.01878476958700        9.61694079673800      h
       -7.82039507461100       -0.81015135930100       12.13734768327000      o
       -7.17362126860900        0.90623466265300       11.93776208599700      h
       -8.80301486027600       -1.12543513755700       10.58688251494400      h
       -8.28700314371000       13.68807029425300       -4.17590129666600      o
       -9.78770895559600       13.35945352942800       -5.18921922060700      h
       -6.89793146572500       13.96948199569300       -5.32718188136100      h
       19.21107309524200       -8.42235989883600       -3.60756697065900      o
       19.41771002631500      -10.18320748590000       -3.23477421781100      h
       20.45959130159900       -7.52706366709700       -2.55632172062700      h
       -2.74319827783200        7.13860371834600       11.40373647518400      o
       -0.93362891840800        7.20151748263000       11.68110796597700      h
       -3.30680114107700        8.85540694813700       11.20200405134600      h
       -9.98817142426000        7.64290425197000       -7.33393335439200      o
       -8.24290161731400        7.75091113325600       -6.75122503771200      h
       -9.89720292081300        7.96448094954000       -9.17738970623900      h
        6.69715668488900      -14.44757384453700        0.40928375474800      o
        6.93031295694800      -14.77699507382500       -1.39555960246700      h
        8.38572223700600      -14.26155776213800        1.12319886515900      h
      -14.03231476311000       11.66905879818000        0.63023765836000      o
      -13.13072874900200       10.05805885498600        0.57163611962500      h
      -15.11165778571100       11.56730087267900        2.15074317479200      h
      -13.01792680414900       -9.33659744487100        8.27581760939600      o
      -12.04337697787700       -8.81579685567000        9.76365217054100      h
      -13.16237141898400       -7.78792068805100        7.26113953328200      h
      -17.28114064538600        1.17320939924700       11.60671788220800      o
      -15.94069252049900        1.07924940104200       12.83688786456900      h
      -17.13927677901400        2.83119103833000       10.80603933698900      h
       -4.86270213349700       11.63955312025300        9.24128777793700      o
       -3.88190503518600       12.65805158464300        8.05100648939400      h
       -6.57674354147400       12.12742019866800        8.87674438202400      h
      -12.42840655133200        0.82539401107300       14.03698416046800      o
      -10.71895799434000        0.16139795538500       13.88840150122900      h
      -12.27823394754300        2.57697059015700       13.51809155707100      h
      -18.45591757741100        6.18622294956500       -9.15609492686800      o
      -17.77516645235300        6.12370403822700       -7.44286559025600      h
      -17.01598406760700        6.33763351509100      -10.28536736253600      h
      -17.04818227657800        5.19043930175700        8.42570478104100      o
      -16.30504405045700        4.99940245882800        6.75260144304000      h
      -16.22554975397100        6.69957588616000        9.06733374295000      h
        2.79600938502200       14.95478671589200        4.94150105902100      o
        4.54632499438800       14.39382847743700        4.78107851063000      h
        2.23409901948500       15.19870332221000        3.20526282573100      h
       18.30759662499500        7.34153913945600       -7.58575166986600      o
       17.36331098921400        7.15249951065500       -9.16015752925600      h
       17.73544579447700        8.93216547646100       -6.89052108210400      h
      -11.22513786873600       -6.09610289036200      -12.63563387001900      o
      -11.74244677955400       -4.41583671830500      -13.09119375367700      h
       -9.84502728707600       -5.89203908006200      -11.43689171545300      h
      -21.11006774780900        9.29674060786400       -3.05585774150600      o
      -22.30277179881100       10.47746416427600       -3.72832687802900      h
      -19.43576994975200        9.96512224467100       -3.42967918840700      h
      -22.87706641003400       -6.42473669673600       -0.40844210501400      o
      -23.25609007235100       -6.26088008146800        1.35681754200900      h
      -23.99903130191200       -5.23434016401200       -1.30971109737400      h
      -20.91958377784400        1.59586162980600        7.54407139244800      o
      -19.75322198463300        3.00974633282600        7.51532963680300      h
      -20.77679923793400        0.96108670070200        9.24049576336700      h
      -22.50437341770900        4.60961784525700        3.12378603457000      o
      -23.97727317647800        4.12238085665300        2.11112960069400      h
      -22.40267398470600        3.46057064356800        4.53147455542600      h
      -17.53969202115800       -8.84948150134000       -6.13569277674600      o
      -18.54811682818700       -7.45371892284300       -6.75762697796200      h
      -16.07942222592900       -8.06068281222100       -5.30307215336500      h
      -15.73619271527300        0.96327139473100      -13.77406172820000      o
      -14.04244584281600        0.27903835663700      -13.68124631905000      h
      -15.49658480411600        2.77724592587400      -13.66926618143000      h
       11.87550500544900        4.14376936132900       12.08903365688800      o
       10.17487571971600        4.84769921084700       12.01806774387800      h
       11.80945784386100        2.92967706378800       13.48173426065200      h
       10.62957674976400       -4.29168916026400       13.30563573480100      o
       10.87752725901300       -5.82674288233800       12.34297664170200      h
        9.40864619825100       -3.33571421852100       12.29071766916100      h
        2.05480569535400        1.95487055452800      -13.29093533195300      o
        2.58015739678600        1.50125594512500      -11.56780500639800      h
        3.24375223814400        1.10505222862400      -14.36840619776400      h
        5.98476104358700       -4.28108965056400      -11.31750624922900      o
        7.39659225965200       -5.46990325283400      -11.46459813447000      h
        5.84739984254000       -3.83655614226500       -9.55146317492900      h
       -7.77675389660500       -5.79119734283400       -8.75830863556000      o
       -7.99019616621500       -5.16416785974500       -7.04698639639200      h
       -7.56409087249900       -7.60633687056000       -8.59237237707500      h
       16.39497339530400        6.69831560184600       11.35902218889800      o
       17.54851571135200        5.29552618776600       11.53826653303300      h
       14.73428124084500        5.98068120122900       11.69455228575000      h
       14.16496646454500       -7.63143603071700       -2.80989359236600      o
       15.96627515872500       -7.82234764207400       -3.13214437256800      h
       13.82711736366000       -5.85518750012000       -3.24569474602900      h
        5.27270174572500        0.92784154103700       15.08387996472100      o
        5.04015754758600       -0.90873759125600       15.06697029498200      h
        3.71909834239700        1.66322399303400       15.75736214817700      h
       12.08616115760500      -11.86402085796400        7.23637038050400      o
       11.73687510778500      -12.09942127879800        5.44571539714300      h
       11.56575955701500      -10.14780941305000        7.71407789934100      h
        9.81514361577100        9.12279395093400       10.26460865854300      o
        8.19178622906100        8.91308212790500        9.36043891285100      h
        9.43485322517400        9.07671526474900       12.02946610177500      h
       14.95056789099400       -1.95801375969900       11.80676369143300      o
       13.96848772658900       -1.10127836332200       10.47252928593300      h
       13.67280928511600       -2.85618039142500       12.77764756633700      h
        2.36681259111500        7.71147674996500       12.33481488698100      o
        2.48459049298500        9.26236502056000       11.38184565697300      h
        3.97577380139100        6.83845089583000       12.10284177290600      h
        6.94498680196500      -11.98860161470300        7.90071362458000      o
[...]
   385   8 o      387   1 h                                       0.9627558
   388   8 o      389   1 h                                       0.9591437
   388   8 o      390   1 h                                       0.9728799
   391   8 o      392   1 h                                       0.9802668
   391   8 o      393   1 h                                       0.9751388
   394   8 o      395   1 h                                       0.9752949
   394   8 o      396   1 h                                       0.9684158
   397   8 o      398   1 h                                       0.9642984
   397   8 o      399   1 h                                       0.9838924
   400   8 o      401   1 h                                       0.9630327
   400   8 o      402   1 h                                       0.9795541
   403   8 o      404   1 h                                       0.9649376
   403   8 o      405   1 h                                       0.9764280
   406   8 o      407   1 h                                       0.9748107
   406   8 o      408   1 h                                       0.9881469
   409   8 o      410   1 h                                       0.9867487
   409   8 o      411   1 h                                       0.9711487
   412   8 o      413   1 h                                       0.9649540
   412   8 o      414   1 h                                       0.9772860
   415   8 o      416   1 h                                       0.9607967
   415   8 o      417   1 h                                       0.9888399
   418   8 o      419   1 h                                       0.9613107
   418   8 o      420   1 h                                       0.9752178
   421   8 o      422   1 h                                       0.9763602
   421   8 o      423   1 h                                       0.9683515
   424   8 o      425   1 h                                       0.9721887
   424   8 o      426   1 h                                       0.9563700
   427   8 o      428   1 h                                       0.9723801
   427   8 o      429   1 h                                       0.9681814
   430   8 o      431   1 h                                       0.9685210
   430   8 o      432   1 h                                       0.9638205
   433   8 o      434   1 h                                       0.9791337
   433   8 o      435   1 h                                       0.9677216
   436   8 o      437   1 h                                       0.9800611
   436   8 o      438   1 h                                       0.9707965
   439   8 o      440   1 h                                       0.9787150
   439   8 o      441   1 h                                       0.9673226
   442   8 o      443   1 h                                       0.9863798
   442   8 o      444   1 h                                       0.9657984
   445   8 o      446   1 h                                       0.9744305
   445   8 o      447   1 h                                       0.9753946
   448   8 o      449   1 h                                       0.9676742
   448   8 o      450   1 h                                       0.9640924
   451   8 o      452   1 h                                       0.9664574
   451   8 o      453   1 h                                       0.9743672
   454   8 o      455   1 h                                       0.9638853
   454   8 o      456   1 h                                       0.9787777
   457   8 o      458   1 h                                       0.9781011
   457   8 o      459   1 h                                       0.9591167
   460   8 o      461   1 h                                       0.9790252
   460   8 o      462   1 h                                       0.9708714
   463   8 o      464   1 h                                       0.9712631
   463   8 o      465   1 h                                       0.9661976
   466   8 o      467   1 h                                       0.9702901
   466   8 o      468   1 h                                       0.9753602
   469   8 o      470   1 h                                       0.9729050
   469   8 o      471   1 h                                       0.9756160
   472   8 o      473   1 h                                       0.9756932
   472   8 o      474   1 h                                       0.9832991
   475   8 o      476   1 h                                       0.9664826
   475   8 o      477   1 h                                       0.9735327
   478   8 o      479   1 h                                       0.9701654
   478   8 o      480   1 h                                       0.9710706
   481   8 o      482   1 h                                       0.9802361
   481   8 o      483   1 h                                       0.9770919
   484   8 o      485   1 h                                       0.9751380
   484   8 o      486   1 h                                       0.9776731
   487   8 o      488   1 h                                       0.9809234
   487   8 o      489   1 h                                       0.9550513 (min)
   490   8 o      491   1 h                                       0.9721290
   490   8 o      492   1 h                                       0.9701633
   493   8 o      494   1 h                                       0.9739247
   493   8 o      495   1 h                                       0.9764579
   496   8 o      497   1 h                                       0.9756665
   496   8 o      498   1 h                                       0.9794327
   499   8 o      500   1 h                                       0.9763474
   499   8 o      501   1 h                                       0.9855900
   502   8 o      503   1 h                                       0.9738760
   502   8 o      504   1 h                                       0.9662608
   505   8 o      506   1 h                                       0.9587105
   505   8 o      507   1 h                                       0.9851043
   508   8 o      509   1 h                                       0.9693387
   508   8 o      510   1 h                                       0.9621365
   511   8 o      512   1 h                                       0.9753501
   511   8 o      513   1 h                                       0.9914158
   514   8 o      515   1 h                                       0.9786689
   514   8 o      516   1 h                                       0.9751131
   517   8 o      518   1 h                                       0.9774195
   517   8 o      519   1 h                                       0.9881984
   520   8 o      521   1 h                                       0.9807116
   520   8 o      522   1 h                                       0.9827372
   523   8 o      524   1 h                                       0.9640541
   523   8 o      525   1 h                                       0.9772050
   526   8 o      527   1 h                                       0.9780581
   526   8 o      528   1 h                                       0.9625855
   529   8 o      530   1 h                                       0.9736260
   529   8 o      531   1 h                                       0.9699722
   532   8 o      533   1 h                                       0.9761112
   532   8 o      534   1 h                                       0.9716694
   535   8 o      536   1 h                                       0.9740347
   535   8 o      537   1 h                                       0.9708500
   538   8 o      539   1 h                                       0.9763305
   538   8 o      540   1 h                                       0.9742844
   541   8 o      542   1 h                                       0.9766389
   541   8 o      543   1 h                                       0.9672217
   544   8 o      545   1 h                                       0.9610707
   544   8 o      546   1 h                                       0.9733597
   547   8 o      548   1 h                                       0.9567528
   547   8 o      549   1 h                                       0.9742827
   550   8 o      551   1 h                                       0.9593518
   550   8 o      552   1 h                                       0.9883205
   553   8 o      554   1 h                                       0.9700406
   553   8 o      555   1 h                                       0.9614704
   556   8 o      557   1 h                                       0.9803795
   556   8 o      558   1 h                                       0.9630792
   559   8 o      560   1 h                                       0.9688246
   559   8 o      561   1 h                                       0.9825966
   562   8 o      563   1 h                                       0.9679125
   562   8 o      564   1 h                                       0.9698388
   565   8 o      566   1 h                                       0.9747056
   565   8 o      567   1 h                                       0.9783337
   568   8 o      569   1 h                                       0.9677699
   568   8 o      570   1 h                                       0.9807096
   571   8 o      572   1 h                                       0.9830369
   571   8 o      573   1 h                                       0.9608216
   574   8 o      575   1 h                                       0.9797901
   574   8 o      576   1 h                                       0.9664385
   577   8 o      578   1 h                                       0.9710579
   577   8 o      579   1 h                                       0.9710788
   580   8 o      581   1 h                                       0.9657458
   580   8 o      582   1 h                                       0.9736686
   583   8 o      584   1 h                                       0.9736007
   583   8 o      585   1 h                                       0.9842019
   586   8 o      587   1 h                                       0.9796764
   586   8 o      588   1 h                                       0.9769090
   589   8 o      590   1 h                                       0.9734358
   589   8 o      591   1 h                                       0.9821057
   592   8 o      593   1 h                                       0.9895461
   592   8 o      594   1 h                                       0.9556692
   595   8 o      596   1 h                                       0.9869771
   595   8 o      597   1 h                                       0.9731663
   598   8 o      599   1 h                                       0.9652629
   598   8 o      600   1 h                                       0.9764348
   601   8 o      602   1 h                                       0.9782683
   601   8 o      603   1 h                                       0.9692832
   604   8 o      605   1 h                                       0.9721049
   604   8 o      606   1 h                                       0.9747002
   607   8 o      608   1 h                                       0.9742383
   607   8 o      609   1 h                                       0.9764137
   610   8 o      611   1 h                                       0.9731801
   610   8 o      612   1 h                                       0.9695852
   613   8 o      614   1 h                                       0.9653886
   613   8 o      615   1 h                                       0.9656612
   616   8 o      617   1 h                                       0.9860396
   616   8 o      618   1 h                                       0.9763832
   619   8 o      620   1 h                                       0.9788971
   619   8 o      621   1 h                                       0.9811392
   622   8 o      623   1 h                                       0.9806555
   622   8 o      624   1 h                                       0.9635792
   625   8 o      626   1 h                                       0.9799165
   625   8 o      627   1 h                                       0.9696134
   628   8 o      629   1 h                                       0.9692882
   628   8 o      630   1 h                                       0.9690660
   631   8 o      632   1 h                                       0.9766805
   631   8 o      633   1 h                                       0.9701536
   634   8 o      635   1 h                                       0.9675822
   634   8 o      636   1 h                                       0.9690777
   637   8 o      638   1 h                                       0.9644185
   637   8 o      639   1 h                                       0.9602185
   640   8 o      641   1 h                                       0.9753917
   640   8 o      642   1 h                                       0.9609490
   643   8 o      644   1 h                                       0.9923629
   643   8 o      645   1 h                                       0.9679010
   646   8 o      647   1 h                                       0.9773489
   646   8 o      648   1 h                                       0.9712605
   649   8 o      650   1 h                                       0.9810206
   649   8 o      651   1 h                                       0.9670158
   652   8 o      653   1 h                                       0.9680192
   652   8 o      654   1 h                                       0.9729103
   655   8 o      656   1 h                                       0.9717539
   655   8 o      657   1 h                                       0.9614380
   658   8 o      659   1 h                                       0.9796187
   658   8 o      660   1 h                                       0.9766605
   661   8 o      662   1 h                                       0.9761283
   661   8 o      663   1 h                                       0.9620264
   664   8 o      665   1 h                                       0.9626057
   664   8 o      666   1 h                                       0.9769680
   667   8 o      668   1 h                                       0.9821658
   667   8 o      669   1 h                                       0.9589788
   670   8 o      671   1 h                                       0.9674082
   670   8 o      672   1 h                                       0.9761772
   673   8 o      674   1 h                                       0.9776854
   673   8 o      675   1 h                                       0.9737103
   676   8 o      677   1 h                                       0.9687836
   676   8 o      678   1 h                                       0.9654375
   679   8 o      680   1 h                                       0.9731415
   679   8 o      681   1 h                                       0.9779142
   682   8 o      683   1 h                                       0.9644140
   682   8 o      684   1 h                                       0.9799813
   685   8 o      686   1 h                                       0.9770909
   685   8 o      687   1 h                                       0.9685002
   688   8 o      689   1 h                                       0.9725537
   688   8 o      690   1 h                                       0.9796072
   691   8 o      692   1 h                                       0.9932271
   691   8 o      693   1 h                                       0.9574390
   694   8 o      695   1 h                                       0.9713886
   694   8 o      696   1 h                                       0.9844602
   697   8 o      698   1 h                                       0.9624751
   697   8 o      699   1 h                                       0.9705413
   700   8 o      701   1 h                                       0.9776860
   700   8 o      702   1 h                                       0.9745603
   703   8 o      704   1 h                                       0.9719231
   703   8 o      705   1 h                                       0.9680683
   706   8 o      707   1 h                                       0.9860028
   706   8 o      708   1 h                                       0.9846178
   709   8 o      710   1 h                                       0.9791776
   709   8 o      711   1 h                                       0.9706033
   712   8 o      713   1 h                                       0.9574538
   712   8 o      714   1 h                                       0.9941857 (max)
   715   8 o      716   1 h                                       0.9698714
   715   8 o      717   1 h                                       0.9825362
   718   8 o      719   1 h                                       0.9850447
   718   8 o      720   1 h                                       0.9592101
   721   8 o      722   1 h                                       0.9705661
   721   8 o      723   1 h                                       0.9684371
   724   8 o      725   1 h                                       0.9818235
   724   8 o      726   1 h                                       0.9690527
   727   8 o      728   1 h                                       0.9664603
   727   8 o      729   1 h                                       0.9777845
   730   8 o      731   1 h                                       0.9933963
   730   8 o      732   1 h                                       0.9623242
   733   8 o      734   1 h                                       0.9820959
   733   8 o      735   1 h                                       0.9626951
   736   8 o      737   1 h                                       0.9704655
   736   8 o      738   1 h                                       0.9712299
   739   8 o      740   1 h                                       0.9793284
   739   8 o      741   1 h                                       0.9711644
   742   8 o      743   1 h                                       0.9786313
   742   8 o      744   1 h                                       0.9615291
   745   8 o      746   1 h                                       0.9749670
   745   8 o      747   1 h                                       0.9737746
   748   8 o      749   1 h                                       0.9660911
   748   8 o      750   1 h                                       0.9687930
   751   8 o      752   1 h                                       0.9604992
   751   8 o      753   1 h                                       0.9773960
   754   8 o      755   1 h                                       0.9673533
   754   8 o      756   1 h                                       0.9585069

 * 1 distinct bonds (by element types)

   Z      Z             #   av. dist./Å        max./Å        min./Å
   1 H    8 O         504     0.9735427     0.9941857     0.9550513


optimized geometry written to: xtbopt.coord


           -------------------------------------------------
          | TOTAL ENERGY            -1283.358386892486 Eh   |
          | GRADIENT NORM               0.003148364815 Eh/α |
          | HOMO-LUMO GAP               8.087366643884 eV   |
           -------------------------------------------------

------------------------------------------------------------------------
 * finished run on 2022/11/24 at 09:13:11.223     
------------------------------------------------------------------------
 total:
 * wall-time:     0 d,  0 h,  5 min, 18.858 sec
 *  cpu-time:     0 d,  0 h,  7 min, 55.469 sec
 * ratio c/w:     1.491 speedup
 SCF:
 * wall-time:     0 d,  0 h,  0 min, 21.995 sec
 *  cpu-time:     0 d,  0 h,  0 min, 35.888 sec
 * ratio c/w:     1.632 speedup
 ANC optimizer:
 * wall-time:     0 d,  0 h,  4 min, 55.831 sec
 *  cpu-time:     0 d,  0 h,  7 min, 17.852 sec
 * ratio c/w:     1.480 speedup

