      -----------------------------------------------------------      
     |                   =====================                   |     
     |                           x T B                           |     
     |                   =====================                   |     
     |                         S. Grimme                         |     
     |          Mulliken Center for Theoretical Chemistry        |     
     |                    University of Bonn                     |     
      -----------------------------------------------------------      

   * xtb version 6.5.1 (579679a) compiled by 'ehlert@majestix' on 2022-07-11

   xtb is free software: you can redistribute it and/or modify it under
   the terms of the GNU Lesser General Public License as published by
   the Free Software Foundation, either version 3 of the License, or
   (at your option) any later version.
   
   xtb is distributed in the hope that it will be useful,
   but WITHOUT ANY WARRANTY; without even the implied warranty of
   MERCHANTABILITY or FITNESS FOR A PARTICULAR PURPOSE.  See the
   GNU Lesser General Public License for more details.
   
   Cite this work as:
   * C. Bannwarth, E. Caldeweyher, S. Ehlert, A. Hansen, P. Pracht,
     J. Seibert, S. Spicher, S. Grimme, WIREs Comput. Mol. Sci., 2020, 11,
     e01493. DOI: 10.1002/wcms.1493
   
   for GFN2-xTB:
   * C. Bannwarth, S. Ehlert and S. Grimme., J. Chem. Theory Comput., 2019,
     15, 1652-1671. DOI: 10.1021/acs.jctc.8b01176
   for GFN1-xTB:
   * S. Grimme, C. Bannwarth, P. Shushkov, J. Chem. Theory Comput., 2017,
     13, 1989-2009. DOI: 10.1021/acs.jctc.7b00118
   for GFN0-xTB:
   * P. Pracht, E. Caldeweyher, S. Ehlert, S. Grimme, ChemRxiv, 2019, preprint.
     DOI: 10.26434/chemrxiv.8326202.v1
   for GFN-FF:
   * S. Spicher and S. Grimme, Angew. Chem. Int. Ed., 2020, 59, 15665-15673.
     DOI: 10.1002/anie.202004239
   
   for ALPB and GBSA implicit solvation:
   * S. Ehlert, M. Stahn, S. Spicher, S. Grimme, J. Chem. Theory Comput.,
     2021, 17, 4250-4261. DOI: 10.1021/acs.jctc.1c00471
   
   for DFT-D4:
   * E. Caldeweyher, C. Bannwarth and S. Grimme, J. Chem. Phys., 2017,
     147, 034112. DOI: 10.1063/1.4993215
   * E. Caldeweyher, S. Ehlert, A. Hansen, H. Neugebauer, S. Spicher,
     C. Bannwarth and S. Grimme, J. Chem. Phys., 2019, 150, 154122.
     DOI: 10.1063/1.5090222
   * E. Caldeweyher, J.-M. Mewes, S. Ehlert and S. Grimme, Phys. Chem. Chem. Phys.
     2020, 22, 8499-8512. DOI: 10.1039/D0CP00502A
   
   for sTDA-xTB:
   * S. Grimme and C. Bannwarth, J. Chem. Phys., 2016, 145, 054103.
     DOI: 10.1063/1.4959605
   
   in the mass-spec context:
   * V. Asgeirsson, C. Bauer and S. Grimme, Chem. Sci., 2017, 8, 4879.
     DOI: 10.1039/c7sc00601b
   * J. Koopman and S. Grimme, ACS Omega 2019, 4, 12, 15120-15133.
     DOI: 10.1021/acsomega.9b02011
   
   for metadynamics refer to:
   * S. Grimme, J. Chem. Theory Comput., 2019, 155, 2847-2862
     DOI: 10.1021/acs.jctc.9b00143
   
   for SPH calculations refer to:
   * S. Spicher and S. Grimme, J. Chem. Theory Comput., 2021, 17, 1701-1714
     DOI: 10.1021/acs.jctc.0c01306
   
   with help from (in alphabetical order)
   P. Atkinson, C. Bannwarth, F. Bohle, G. Brandenburg, E. Caldeweyher
   M. Checinski, S. Dohm, S. Ehlert, S. Ehrlich, I. Gerasimov, C. Hölzer
   A. Katbashev, J. Koopman, C. Lavigne, S. Lehtola, F. März, M. Müller,
   F. Musil, H. Neugebauer, J. Pisarek, C. Plett, P. Pracht, F. Pultar,
   J. Seibert, P. Shushkov, S. Spicher, M. Stahn, M. Steiner, T. Strunk,
   J. Stückrath, T. Rose, and J. Unsleber
   
 * started run on 2022/11/24 at 09:27:46.529     

           -------------------------------------------------
          |                Calculation Setup                |
           -------------------------------------------------

          program call               : xtb xtbopt.coord --gfn2 --sp --gbsa water
          hostname                   : cn0341
          coordinate file            : xtbopt.coord
          omp threads                :                     2

   ID    Z sym.   atoms
    1    8 o      1, 4, 7, 10, 13, 16, 19, 22, 25, 28, 31, 34, 37, 40, 43,
                  46, 49, 52, 55, 58, 61, 64, 67, 70, 73, 76, 79, 82, 85, 88,
                  91, 94, 97, 100, 103, 106, 109, 112, 115, 118, 121, 124,
                  127, 130, 133, 136, 139, 142, 145, 148, 151, 154, 157, 160,
                  163, 166, 169, 172, 175, 178, 181, 184, 187, 190, 193, 196,
                  199, 202, 205, 208, 211, 214, 217, 220, 223, 226, 229, 232,
                  235, 238, 241, 244, 247, 250, 253, 256, 259, 262, 265, 268,
                  271, 274, 277, 280, 283, 286, 289, 292, 295, 298, 301, 304,
                  307, 310, 313, 316, 319, 322, 325, 328, 331, 334, 337, 340,
                  343, 346, 349, 352, 355, 358, 361, 364, 367, 370, 373, 376,
                  379, 382, 385, 388, 391, 394, 397, 400, 403, 406, 409, 412,
                  415, 418, 421, 424, 427, 430, 433, 436, 439, 442, 445, 448,
                  451, 454, 457, 460, 463, 466, 469, 472, 475, 478, 481, 484,
                  487, 490, 493, 496, 499, 502, 505, 508, 511, 514, 517, 520,
                  523, 526, 529, 532, 535, 538, 541, 544, 547, 550, 553, 556,
                  559, 562, 565, 568, 571, 574, 577, 580, 583, 586, 589, 592,
                  595, 598, 601, 604, 607, 610, 613, 616, 619, 622, 625, 628,
                  631, 634, 637, 640, 643, 646, 649, 652, 655, 658, 661, 664,
                  667, 670, 673, 676, 679, 682, 685, 688, 691, 694, 697, 700,
                  703, 706, 709, 712, 715, 718, 721, 724, 727, 730, 733, 736,
                  739, 742, 745, 748, 751, 754
    2    1 h      2, 3, 5, 6, 8, 9, 11, 12, 14, 15, 17, 18, 20, 21, 23, 24,
                  26, 27, 29, 30, 32, 33, 35, 36, 38, 39, 41, 42, 44, 45, 47,
                  48, 50, 51, 53, 54, 56, 57, 59, 60, 62, 63, 65, 66, 68, 69,
                  71, 72, 74, 75, 77, 78, 80, 81, 83, 84, 86, 87, 89, 90, 92,
                  93, 95, 96, 98, 99, 101, 102, 104, 105, 107, 108, 110, 111,
                  113, 114, 116, 117, 119, 120, 122, 123, 125, 126, 128, 129,
                  131, 132, 134, 135, 137, 138, 140, 141, 143, 144, 146, 147,
                  149, 150, 152, 153, 155, 156, 158, 159, 161, 162, 164, 165,
                  167, 168, 170, 171, 173, 174, 176, 177, 179, 180, 182, 183,
                  185, 186, 188, 189, 191, 192, 194, 195, 197, 198, 200, 201,
                  203, 204, 206, 207, 209, 210, 212, 213, 215, 216, 218, 219,
                  221, 222, 224, 225, 227, 228, 230, 231, 233, 234, 236, 237,
                  239, 240, 242, 243, 245, 246, 248, 249, 251, 252, 254, 255,
                  257, 258, 260, 261, 263, 264, 266, 267, 269, 270, 272, 273,
                  275, 276, 278, 279, 281, 282, 284, 285, 287, 288, 290, 291,
                  293, 294, 296, 297, 299, 300, 302, 303, 305, 306, 308, 309,
                  311, 312, 314, 315, 317, 318, 320, 321, 323, 324, 326, 327,
                  329, 330, 332, 333, 335, 336, 338, 339, 341, 342, 344, 345,
                  347, 348, 350, 351, 353, 354, 356, 357, 359, 360, 362, 363,
                  365, 366, 368, 369, 371, 372, 374, 375, 377, 378, 380, 381,
                  383, 384, 386, 387, 389, 390, 392, 393, 395, 396, 398, 399,
                  401, 402, 404, 405, 407, 408, 410, 411, 413, 414, 416, 417,
                  419, 420, 422, 423, 425, 426, 428, 429, 431, 432, 434, 435,
                  437, 438, 440, 441, 443, 444, 446, 447, 449, 450, 452, 453,
                  455, 456, 458, 459, 461, 462, 464, 465, 467, 468, 470, 471,
                  473, 474, 476, 477, 479, 480, 482, 483, 485, 486, 488, 489,
                  491, 492, 494, 495, 497, 498, 500, 501, 503, 504, 506, 507,
                  509, 510, 512, 513, 515, 516, 518, 519, 521, 522, 524, 525,
                  527, 528, 530, 531, 533, 534, 536, 537, 539, 540, 542, 543,
                  545, 546, 548, 549, 551, 552, 554, 555, 557, 558, 560, 561,
                  563, 564, 566, 567, 569, 570, 572, 573, 575, 576, 578, 579,
                  581, 582, 584, 585, 587, 588, 590, 591, 593, 594, 596, 597,
                  599, 600, 602, 603, 605, 606, 608, 609, 611, 612, 614, 615,
                  617, 618, 620, 621, 623, 624, 626, 627, 629, 630, 632, 633,
                  635, 636, 638, 639, 641, 642, 644, 645, 647, 648, 650, 651,
                  653, 654, 656, 657, 659, 660, 662, 663, 665, 666, 668, 669,
                  671, 672, 674, 675, 677, 678, 680, 681, 683, 684, 686, 687,
                  689, 690, 692, 693, 695, 696, 698, 699, 701, 702, 704, 705,
                  707, 708, 710, 711, 713, 714, 716, 717, 719, 720, 722, 723,
                  725, 726, 728, 729, 731, 732, 734, 735, 737, 738, 740, 741,
                  743, 744, 746, 747, 749, 750, 752, 753, 755, 756

molecular fragmentation (1/2 indicates fragments):
111222222222222222222222222222222222222222222222222222222222222222222222
222222222222222222222222222222222222222222222222222222222222222222222222
222222222222222222222222222222222222222222222222222222222222222222222222
222222222222222222222222222222222222222222222222222222222222222222222222
222222222222222222222222222222222222222222222222222222222222222222222222
222222222222222222222222222222222222222222222222222222222222222222222222
222222222222222222222222222222222222222222222222222222222222222222222222
222222222222222222222222222222222222222222222222222222222222222222222222
222222222222222222222222222222222222222222222222222222222222222222222222
222222222222222222222222222222222222222222222222222222222222222222222222
222222222222222222222222222222222222
# atoms in fragment 1/2:     3   753
 fragment masses (1/2) :       18.02     4521.84
CMA distance (Bohr)    :  15.807
constraining FC (au)   :  0.0500

           -------------------------------------------------
          |                 G F N 2 - x T B                 |
           -------------------------------------------------

        Reference                      10.1021/acs.jctc.8b01176
      * Hamiltonian:
        H0-scaling (s, p, d)           1.850000    2.230000    2.230000
        zeta-weighting                 0.500000
      * Dispersion:
        s8                             2.700000
        a1                             0.520000
        a2                             5.000000
        s9                             5.000000
      * Repulsion:
        kExp                           1.500000    1.000000
        rExp                           1.000000
      * Coulomb:
        alpha                          2.000000
        third order                    shell-resolved
        anisotropic                    true
        a3                             3.000000
        a5                             4.000000
        cn-shift                       1.200000
        cn-exp                         4.000000
        max-rad                        5.000000

      * Solvation model:               GBSA
        Solvent                        water
        Parameter file                 internal GFN2-xTB/GBSA
        Dielectric constant                8.0200E+01
        Reference state                gsolv [1 M gas/solution]
        Free energy shift                  1.8574E-03 Eh       1.1656E+00 kcal/mol
        Temperature                        2.9815E+02 K
        Density                            1.0000E+00 kg/L
        Solvent mass                       1.8000E+01 g/mol
        Interaction kernel             Still
        Born radius scaling (c1)           1.5524E+00
        Born radii integrator          GBOBC
        Born offset                        2.4628E-02 a0       4.6540E-02 AA
        H-bond correction              true
        Ion screening                  false
        Surface tension                    1.0000E-05 Eh       1.5569E+01 dyn/cm
        Grid points                               230 per atom

          ...................................................
          :                      SETUP                      :
          :.................................................:
          :  # basis functions                1512          :
          :  # atomic orbitals                1512          :
          :  # shells                         1008          :
          :  # electrons                      2016          :
          :  max. iterations                   250          :
          :  Hamiltonian                  GFN2-xTB          :
          :  restarted?                      false          :
          :  GBSA solvation                   true          :
          :  PC potential                    false          :
          :  electronic temp.          300.0000000     K    :
          :  accuracy                    1.0000000          :
          :  -> integral cutoff          0.2500000E+02      :
          :  -> integral neglect         0.1000000E-07      :
          :  -> SCF convergence          0.1000000E-05 Eh   :
          :  -> wf. convergence          0.1000000E-03 e    :
          :  Broyden damping             0.4000000          :
          ...................................................

 iter      E             dE          RMSdq      gap      omega  full diag
   1  -1291.2884097 -0.129129E+04  0.409E+00    8.30       0.0  T
   2  -1291.3704606 -0.820508E-01  0.242E+00    8.11       1.0  T
   3  -1291.4056006 -0.351400E-01  0.224E-01    7.74       1.0  T
   4  -1291.4109730 -0.537240E-02  0.476E-02    7.83       1.0  T
   5  -1291.4111190 -0.145956E-03  0.305E-02    7.81       1.0  T
   6  -1291.4111644 -0.454230E-04  0.368E-03    7.80       1.0  T
   7  -1291.4111660 -0.157845E-05  0.855E-04    7.80       4.3  T
   8  -1291.4111660 -0.850716E-07  0.437E-04    7.80       8.3  T
   9  -1291.4111661 -0.325992E-07  0.127E-04    7.80      28.7  T

   *** convergence criteria satisfied after 9 iterations ***

         #    Occupation            Energy/Eh            Energy/eV
      -------------------------------------------------------------
         1        2.0000           -0.6519559             -17.7406
       ...           ...                  ...                  ...
      1002        2.0000           -0.3586632              -9.7597
      1003        2.0000           -0.3576088              -9.7310
      1004        2.0000           -0.3556573              -9.6779
      1005        2.0000           -0.3534030              -9.6166
      1006        2.0000           -0.3509846              -9.5508
      1007        2.0000           -0.3494577              -9.5092
      1008        2.0000           -0.3472275              -9.4485 (HOMO)
      1009                         -0.0606921              -1.6515 (LUMO)
      1010                         -0.0536133              -1.4589
      1011                         -0.0391278              -1.0647
      1012                         -0.0379592              -1.0329
      1013                         -0.0341718              -0.9299
       ...                                ...                  ...
      1512                          0.4814928              13.1021
      -------------------------------------------------------------
                  HL-Gap            0.2865354 Eh            7.7970 eV
             Fermi-level           -0.2039598 Eh           -5.5500 eV

 SCC (total)                   0 d,  0 h,  0 min, 20.712 sec
 SCC setup                      ...        0 min,  0.117 sec (  0.566%)
 Dispersion                     ...        0 min,  0.111 sec (  0.535%)
 classical contributions        ...        0 min,  0.023 sec (  0.112%)
 integral evaluation            ...        0 min,  0.613 sec (  2.962%)
 iterations                     ...        0 min,  7.505 sec ( 36.237%)
 molecular gradient             ...        0 min, 12.277 sec ( 59.273%)
 printout                       ...        0 min,  0.065 sec (  0.314%)

         :::::::::::::::::::::::::::::::::::::::::::::::::::::
         ::                     SUMMARY                     ::
         :::::::::::::::::::::::::::::::::::::::::::::::::::::
         :: total energy           -1283.614125294376 Eh    ::
         :: total w/o Gsasa/hb     -1283.391849962915 Eh    ::
         :: gradient norm              0.098371911820 Eh/a0 ::
         :: HOMO-LUMO gap              7.797024864082 eV    ::
         ::.................................................::
         :: SCC energy             -1291.411166075957 Eh    ::
         :: -> isotropic ES            7.355216925760 Eh    ::
         :: -> anisotropic ES         -1.656688880965 Eh    ::
         :: -> anisotropic XC         -0.118189906480 Eh    ::
         :: -> dispersion             -0.795807539780 Eh    ::
         :: -> Gsolv                  -0.277737368776 Eh    ::
         ::    -> Gelec               -0.055462037316 Eh    ::
         ::    -> Gsasa                0.007925373642 Eh    ::
         ::    -> Ghb                 -0.232058148229 Eh    ::
         ::    -> Gshift               0.001857443127 Eh    ::
         :: repulsion energy           7.639249987868 Eh    ::
         :: add. restraining           0.000000000000 Eh    ::
         :: total charge               0.000000000000 e     ::
         :::::::::::::::::::::::::::::::::::::::::::::::::::::

           -------------------------------------------------
          |                Property Printout                |
           -------------------------------------------------

    * Orbital Energies and Occupations

         #    Occupation            Energy/Eh            Energy/eV
      -------------------------------------------------------------
         1        2.0000           -0.6519559             -17.7406
       ...           ...                  ...                  ...
       996        2.0000           -0.3637556              -9.8983
       997        2.0000           -0.3631446              -9.8817
       998        2.0000           -0.3626184              -9.8673
       999        2.0000           -0.3612945              -9.8313
      1000        2.0000           -0.3600299              -9.7969
      1001        2.0000           -0.3600064              -9.7963
      1002        2.0000           -0.3586632              -9.7597
      1003        2.0000           -0.3576088              -9.7310
      1004        2.0000           -0.3556573              -9.6779
      1005        2.0000           -0.3534030              -9.6166
      1006        2.0000           -0.3509846              -9.5508
      1007        2.0000           -0.3494577              -9.5092
      1008        2.0000           -0.3472275              -9.4485 (HOMO)
      1009                         -0.0606921              -1.6515 (LUMO)
      1010                         -0.0536133              -1.4589
      1011                         -0.0391278              -1.0647
      1012                         -0.0379592              -1.0329
      1013                         -0.0341718              -0.9299
      1014                         -0.0271495              -0.7388
      1015                         -0.0252397              -0.6868
      1016                         -0.0188840              -0.5139
      1017                         -0.0093752              -0.2551
      1018                         -0.0079402              -0.2161
      1019                         -0.0070771              -0.1926
       ...                                ...                  ...
      1512                          0.4814928              13.1021
      -------------------------------------------------------------
                  HL-Gap            0.2865354 Eh            7.7970 eV
             Fermi-level           -0.2039598 Eh           -5.5500 eV

     #   Z          covCN         q      C6AA      α(0)
     1   8 o        1.609    -0.669    26.887     6.998
     2   1 h        0.804     0.334     0.627     1.244
     3   1 h        0.805     0.338     0.618     1.235
     4   8 o        1.607    -0.705    27.847     7.122
     5   1 h        0.804     0.347     0.596     1.213
     6   1 h        0.803     0.353     0.582     1.198
     7   8 o        1.609    -0.686    27.341     7.057
     8   1 h        0.805     0.345     0.600     1.217
     9   1 h        0.804     0.346     0.599     1.216
    10   8 o        1.607    -0.697    27.622     7.093
    11   1 h        0.803     0.348     0.593     1.210
    12   1 h        0.804     0.348     0.594     1.211
    13   8 o        1.609    -0.677    27.105     7.027
    14   1 h        0.805     0.330     0.637     1.254
    15   1 h        0.804     0.344     0.602     1.218
    16   8 o        1.608    -0.665    26.792     6.986
    17   1 h        0.805     0.329     0.641     1.257
    18   1 h        0.804     0.336     0.623     1.240
    19   8 o        1.608    -0.685    27.320     7.054
    20   1 h        0.804     0.344     0.603     1.220
    21   1 h        0.804     0.340     0.611     1.228
    22   8 o        1.608    -0.687    27.369     7.061
    23   1 h        0.804     0.350     0.588     1.204
    24   1 h        0.803     0.354     0.580     1.196
    25   8 o        1.607    -0.687    27.371     7.061
    26   1 h        0.804     0.356     0.574     1.190
    27   1 h        0.803     0.328     0.643     1.260
    28   8 o        1.605    -0.716    28.131     7.158
    29   1 h        0.803     0.351     0.585     1.201
    30   1 h        0.802     0.348     0.592     1.209
    31   8 o        1.606    -0.694    27.554     7.085
    32   1 h        0.804     0.342     0.607     1.224
    33   1 h        0.803     0.347     0.596     1.213
    34   8 o        1.608    -0.683    27.252     7.046
    35   1 h        0.804     0.354     0.579     1.196
    36   1 h        0.804     0.346     0.598     1.214
    37   8 o        1.608    -0.665    26.792     6.986
    38   1 h        0.804     0.350     0.588     1.205
    39   1 h        0.803     0.327     0.647     1.263
    40   8 o        1.608    -0.682    27.236     7.044
    41   1 h        0.804     0.355     0.576     1.193
    42   1 h        0.804     0.346     0.599     1.215
    43   8 o        1.605    -0.699    27.698     7.103
    44   1 h        0.803     0.341     0.610     1.227
    45   1 h        0.804     0.356     0.575     1.192
    46   8 o        1.607    -0.705    27.857     7.123
    47   1 h        0.803     0.342     0.608     1.225
    48   1 h        0.803     0.354     0.579     1.195
    49   8 o        1.609    -0.684    27.289     7.050
    50   1 h        0.804     0.347     0.596     1.213
    51   1 h        0.805     0.348     0.594     1.211
    52   8 o        1.606    -0.673    27.008     7.014
    53   1 h        0.802     0.333     0.631     1.248
    54   1 h        0.804     0.349     0.590     1.207
    55   8 o        1.606    -0.695    27.585     7.089
    56   1 h        0.803     0.345     0.599     1.216
    57   1 h        0.803     0.354     0.579     1.195
    58   8 o        1.610    -0.675    27.044     7.019
    59   1 h        0.805     0.337     0.618     1.235
    60   1 h        0.804     0.344     0.602     1.219
    61   8 o        1.607    -0.686    27.346     7.058
    62   1 h        0.803     0.359     0.568     1.184
    63   1 h        0.803     0.345     0.601     1.217
    64   8 o        1.608    -0.700    27.699     7.103
    65   1 h        0.804     0.345     0.600     1.217
    66   1 h        0.804     0.336     0.622     1.239
    67   8 o        1.608    -0.691    27.483     7.075
    68   1 h        0.805     0.342     0.607     1.224
    69   1 h        0.803     0.351     0.587     1.203
    70   8 o        1.606    -0.692    27.503     7.078
    71   1 h        0.804     0.350     0.587     1.204
    72   1 h        0.803     0.353     0.582     1.199
    73   8 o        1.608    -0.678    27.132     7.030
    74   1 h        0.804     0.351     0.587     1.203
    75   1 h        0.804     0.336     0.622     1.239
    76   8 o        1.608    -0.681    27.220     7.042
    77   1 h        0.805     0.345     0.600     1.216
    78   1 h        0.803     0.343     0.605     1.222
    79   8 o        1.608    -0.686    27.353     7.059
    80   1 h        0.804     0.328     0.643     1.259
    81   1 h        0.804     0.344     0.603     1.219
    82   8 o        1.608    -0.691    27.467     7.073
    83   1 h        0.804     0.335     0.624     1.241
    84   1 h        0.804     0.349     0.590     1.207
    85   8 o        1.605    -0.685    27.315     7.054
    86   1 h        0.803     0.333     0.629     1.246
    87   1 h        0.803     0.352     0.585     1.201
    88   8 o        1.608    -0.682    27.226     7.042
    89   1 h        0.805     0.344     0.602     1.219
    90   1 h        0.803     0.348     0.594     1.210
    91   8 o        1.611    -0.632    25.953     6.876
    92   1 h        0.805     0.324     0.653     1.269
    93   1 h        0.805     0.324     0.654     1.270
    94   8 o        1.608    -0.704    27.809     7.117
    95   1 h        0.804     0.355     0.576     1.192
    96   1 h        0.804     0.353     0.582     1.198
    97   8 o        1.608    -0.675    27.065     7.021
    98   1 h        0.804     0.357     0.573     1.189
    99   1 h        0.804     0.324     0.653     1.269
   100   8 o        1.608    -0.701    27.737     7.108
   101   1 h        0.803     0.352     0.584     1.200
   102   1 h        0.804     0.347     0.595     1.211
   103   8 o        1.609    -0.701    27.729     7.107
   104   1 h        0.804     0.341     0.610     1.227
   105   1 h        0.804     0.342     0.608     1.224
   106   8 o        1.608    -0.663    26.745     6.980
   107   1 h        0.805     0.349     0.589     1.206
   108   1 h        0.803     0.330     0.637     1.254
   109   8 o        1.609    -0.689    27.407     7.066
   110   1 h        0.804     0.353     0.581     1.197
   111   1 h        0.804     0.333     0.631     1.247
   112   8 o        1.608    -0.676    27.068     7.022
   113   1 h        0.804     0.338     0.616     1.233
   114   1 h        0.804     0.325     0.650     1.266
   115   8 o        1.607    -0.695    27.577     7.087
   116   1 h        0.804     0.349     0.590     1.207
   117   1 h        0.804     0.345     0.600     1.217
   118   8 o        1.609    -0.685    27.303     7.052
   119   1 h        0.804     0.358     0.571     1.187
   120   1 h        0.805     0.339     0.615     1.232
   121   8 o        1.609    -0.664    26.760     6.982
   122   1 h        0.805     0.314     0.680     1.295
   123   1 h        0.804     0.339     0.615     1.231
   124   8 o        1.609    -0.663    26.738     6.979
   125   1 h        0.805     0.337     0.619     1.236
   126   1 h        0.804     0.365     0.555     1.170
   127   8 o        1.608    -0.690    27.434     7.069
   128   1 h        0.804     0.330     0.637     1.254
   129   1 h        0.804     0.345     0.601     1.218
   130   8 o        1.608    -0.682    27.228     7.043
   131   1 h        0.804     0.338     0.617     1.234
   132   1 h        0.804     0.342     0.606     1.223
   133   8 o        1.607    -0.683    27.251     7.046
   134   1 h        0.804     0.331     0.635     1.252
   135   1 h        0.803     0.357     0.572     1.188
   136   8 o        1.608    -0.664    26.762     6.982
   137   1 h        0.805     0.342     0.608     1.225
   138   1 h        0.803     0.328     0.642     1.259
   139   8 o        1.605    -0.710    27.994     7.141
   140   1 h        0.801     0.375     0.534     1.148
   141   1 h        0.804     0.350     0.588     1.205
   142   8 o        1.607    -0.663    26.746     6.980
   143   1 h        0.803     0.339     0.614     1.231
   144   1 h        0.803     0.329     0.640     1.257
   145   8 o        1.608    -0.655    26.540     6.953
   146   1 h        0.804     0.333     0.630     1.247
   147   1 h        0.804     0.338     0.617     1.234
   148   8 o        1.607    -0.681    27.202     7.039
   149   1 h        0.803     0.351     0.587     1.203
   150   1 h        0.804     0.324     0.652     1.269
   151   8 o        1.606    -0.711    28.009     7.143
   152   1 h        0.803     0.358     0.571     1.187
   153   1 h        0.803     0.360     0.565     1.181
   154   8 o        1.610    -0.676    27.090     7.025
   155   1 h        0.805     0.341     0.610     1.227
   156   1 h        0.804     0.340     0.612     1.229
   157   8 o        1.607    -0.686    27.330     7.056
   158   1 h        0.803     0.339     0.615     1.232
   159   1 h        0.804     0.350     0.588     1.205
   160   8 o        1.609    -0.701    27.729     7.107
   161   1 h        0.805     0.344     0.602     1.219
   162   1 h        0.804     0.354     0.579     1.195
   163   8 o        1.606    -0.690    27.446     7.071
   164   1 h        0.802     0.373     0.537     1.151
   165   1 h        0.805     0.319     0.666     1.282
   166   8 o        1.608    -0.677    27.111     7.027
   167   1 h        0.804     0.339     0.614     1.231
   168   1 h        0.804     0.344     0.602     1.219
   169   8 o        1.607    -0.704    27.809     7.117
   170   1 h        0.804     0.348     0.592     1.209
   171   1 h        0.803     0.353     0.582     1.199
   172   8 o        1.605    -0.715    28.106     7.155
   173   1 h        0.803     0.355     0.577     1.194
   174   1 h        0.803     0.357     0.573     1.189
   175   8 o        1.606    -0.691    27.461     7.072
   176   1 h        0.803     0.347     0.596     1.213
   177   1 h        0.803     0.346     0.597     1.214
   178   8 o        1.608    -0.693    27.523     7.081
   179   1 h        0.803     0.353     0.582     1.198
   180   1 h        0.805     0.336     0.621     1.238
   181   8 o        1.608    -0.678    27.144     7.032
   182   1 h        0.804     0.350     0.588     1.205
   183   1 h        0.804     0.342     0.607     1.224
   184   8 o        1.605    -0.694    27.553     7.084
   185   1 h        0.802     0.352     0.585     1.202
   186   1 h        0.803     0.349     0.590     1.207
   187   8 o        1.609    -0.664    26.766     6.983
   188   1 h        0.804     0.341     0.610     1.227
   189   1 h        0.804     0.335     0.624     1.241
   190   8 o        1.609    -0.669    26.908     7.001
   191   1 h        0.805     0.309     0.694     1.308
   192   1 h        0.803     0.354     0.580     1.196
   193   8 o        1.606    -0.676    27.087     7.024
   194   1 h        0.803     0.356     0.576     1.192
   195   1 h        0.803     0.323     0.657     1.273
   196   8 o        1.608    -0.685    27.323     7.055
   197   1 h        0.804     0.348     0.593     1.210
   198   1 h        0.804     0.345     0.601     1.218
   199   8 o        1.609    -0.691    27.481     7.075
   200   1 h        0.804     0.338     0.617     1.234
   201   1 h        0.803     0.347     0.594     1.211
   202   8 o        1.609    -0.660    26.656     6.968
   203   1 h        0.803     0.356     0.575     1.191
   204   1 h        0.805     0.328     0.642     1.259
   205   8 o        1.608    -0.701    27.736     7.108
   206   1 h        0.804     0.341     0.611     1.227
   207   1 h        0.804     0.343     0.605     1.222
   208   8 o        1.608    -0.690    27.449     7.071
   209   1 h        0.805     0.317     0.671     1.287
   210   1 h        0.803     0.353     0.583     1.199
   211   8 o        1.609    -0.664    26.777     6.984
   212   1 h        0.805     0.321     0.662     1.278
   213   1 h        0.804     0.332     0.631     1.248
   214   8 o        1.608    -0.665    26.785     6.985
   215   1 h        0.804     0.339     0.615     1.232
   216   1 h        0.804     0.330     0.638     1.254
   217   8 o        1.608    -0.689    27.429     7.069
   218   1 h        0.803     0.354     0.580     1.196
   219   1 h        0.805     0.349     0.591     1.208
   220   8 o        1.608    -0.681    27.211     7.040
   221   1 h        0.803     0.358     0.571     1.187
   222   1 h        0.805     0.340     0.611     1.228
   223   8 o        1.606    -0.704    27.809     7.117
   224   1 h        0.804     0.355     0.576     1.192
   225   1 h        0.803     0.352     0.583     1.200
   226   8 o        1.607    -0.672    26.984     7.011
   227   1 h        0.802     0.366     0.553     1.168
   228   1 h        0.805     0.318     0.670     1.286
   229   8 o        1.606    -0.676    27.088     7.024
   230   1 h        0.804     0.326     0.649     1.265
   231   1 h        0.802     0.365     0.556     1.171
   232   8 o        1.607    -0.704    27.818     7.118
   233   1 h        0.803     0.360     0.566     1.182
   234   1 h        0.803     0.349     0.590     1.207
   235   8 o        1.608    -0.694    27.545     7.083
   236   1 h        0.804     0.351     0.586     1.203
   237   1 h        0.803     0.356     0.573     1.190
   238   8 o        1.606    -0.672    26.972     7.009
   239   1 h        0.801     0.343     0.605     1.222
   240   1 h        0.804     0.325     0.650     1.266
   241   8 o        1.607    -0.687    27.364     7.060
   242   1 h        0.804     0.344     0.604     1.221
   243   1 h        0.803     0.335     0.626     1.242
   244   8 o        1.607    -0.692    27.493     7.077
   245   1 h        0.805     0.328     0.644     1.260
   246   1 h        0.802     0.342     0.608     1.225
   247   8 o        1.609    -0.676    27.081     7.023
   248   1 h        0.804     0.342     0.608     1.225
   249   1 h        0.805     0.331     0.635     1.252
   250   8 o        1.608    -0.677    27.114     7.028
   251   1 h        0.804     0.331     0.634     1.251
   252   1 h        0.804     0.340     0.612     1.229
   253   8 o        1.605    -0.705    27.838     7.121
   254   1 h        0.804     0.357     0.572     1.188
   255   1 h        0.803     0.327     0.646     1.263
   256   8 o        1.606    -0.696    27.597     7.090
   257   1 h        0.803     0.351     0.585     1.202
   258   1 h        0.803     0.355     0.577     1.194
   259   8 o        1.607    -0.698    27.646     7.096
   260   1 h        0.804     0.335     0.625     1.242
   261   1 h        0.803     0.345     0.601     1.218
   262   8 o        1.609    -0.674    27.039     7.018
   263   1 h        0.804     0.335     0.624     1.241
   264   1 h        0.805     0.337     0.619     1.236
   265   8 o        1.608    -0.658    26.606     6.962
   266   1 h        0.803     0.337     0.619     1.236
   267   1 h        0.805     0.327     0.646     1.262
   268   8 o        1.608    -0.672    26.988     7.011
   269   1 h        0.803     0.352     0.584     1.201
   270   1 h        0.805     0.329     0.639     1.256
   271   8 o        1.608    -0.685    27.306     7.053
   272   1 h        0.804     0.334     0.627     1.243
   273   1 h        0.804     0.350     0.587     1.204
   274   8 o        1.604    -0.715    28.128     7.158
   275   1 h        0.802     0.359     0.568     1.184
   276   1 h        0.803     0.348     0.594     1.211
   277   8 o        1.607    -0.692    27.486     7.076
   278   1 h        0.803     0.349     0.592     1.208
   279   1 h        0.805     0.342     0.608     1.225
   280   8 o        1.608    -0.687    27.358     7.059
   281   1 h        0.803     0.355     0.577     1.193
   282   1 h        0.805     0.331     0.634     1.251
   283   8 o        1.606    -0.686    27.334     7.056
   284   1 h        0.803     0.345     0.600     1.216
   285   1 h        0.803     0.335     0.624     1.241
   286   8 o        1.606    -0.704    27.822     7.119
   287   1 h        0.803     0.347     0.596     1.213
   288   1 h        0.802     0.349     0.590     1.206
   289   8 o        1.606    -0.697    27.644     7.096
   290   1 h        0.803     0.348     0.594     1.211
   291   1 h        0.802     0.354     0.579     1.196
   292   8 o        1.608    -0.686    27.354     7.059
   293   1 h        0.804     0.337     0.620     1.237
   294   1 h        0.804     0.360     0.565     1.181
   295   8 o        1.608    -0.676    27.091     7.025
   296   1 h        0.804     0.353     0.581     1.197
   297   1 h        0.804     0.324     0.653     1.269
   298   8 o        1.608    -0.671    26.958     7.008
   299   1 h        0.803     0.359     0.567     1.183
   300   1 h        0.805     0.339     0.614     1.231
   301   8 o        1.607    -0.685    27.312     7.053
   302   1 h        0.803     0.339     0.615     1.232
   303   1 h        0.803     0.355     0.577     1.193
   304   8 o        1.609    -0.673    27.014     7.015
   305   1 h        0.805     0.332     0.631     1.248
   306   1 h        0.805     0.342     0.608     1.225
   307   8 o        1.609    -0.690    27.441     7.070
   308   1 h        0.805     0.331     0.635     1.252
   309   1 h        0.804     0.354     0.578     1.194
   310   8 o        1.609    -0.678    27.137     7.031
   311   1 h        0.804     0.339     0.615     1.232
   312   1 h        0.805     0.330     0.636     1.253
   313   8 o        1.608    -0.688    27.401     7.065
   314   1 h        0.804     0.327     0.646     1.263
   315   1 h        0.803     0.358     0.570     1.186
   316   8 o        1.608    -0.685    27.315     7.054
   317   1 h        0.803     0.340     0.612     1.229
   318   1 h        0.804     0.319     0.666     1.282
   319   8 o        1.608    -0.675    27.052     7.020
   320   1 h        0.804     0.332     0.632     1.249
   321   1 h        0.804     0.358     0.569     1.185
   322   8 o        1.607    -0.669    26.901     7.000
   323   1 h        0.805     0.313     0.684     1.299
   324   1 h        0.802     0.358     0.571     1.187
   325   8 o        1.606    -0.697    27.643     7.096
   326   1 h        0.803     0.353     0.582     1.199
   327   1 h        0.803     0.325     0.651     1.268
   328   8 o        1.604    -0.721    28.274     7.176
   329   1 h        0.802     0.357     0.572     1.188
   330   1 h        0.803     0.328     0.642     1.259
   331   8 o        1.606    -0.708    27.931     7.133
   332   1 h        0.804     0.327     0.644     1.261
   333   1 h        0.802     0.366     0.553     1.168
   334   8 o        1.607    -0.708    27.921     7.132
   335   1 h        0.803     0.345     0.599     1.216
   336   1 h        0.805     0.352     0.583     1.200
   337   8 o        1.608    -0.688    27.387     7.063
   338   1 h        0.805     0.332     0.632     1.249
   339   1 h        0.803     0.366     0.552     1.167
   340   8 o        1.608    -0.655    26.550     6.954
   341   1 h        0.805     0.317     0.672     1.288
   342   1 h        0.803     0.336     0.622     1.239
   343   8 o        1.607    -0.685    27.318     7.054
   344   1 h        0.803     0.333     0.630     1.247
   345   1 h        0.803     0.352     0.583     1.199
   346   8 o        1.607    -0.669    26.890     6.999
   347   1 h        0.803     0.333     0.629     1.246
   348   1 h        0.804     0.349     0.591     1.208
   349   8 o        1.609    -0.676    27.068     7.022
   350   1 h        0.804     0.333     0.630     1.247
   351   1 h        0.805     0.329     0.639     1.256
   352   8 o        1.607    -0.703    27.795     7.115
   353   1 h        0.803     0.326     0.648     1.265
   354   1 h        0.803     0.355     0.577     1.193
   355   8 o        1.608    -0.684    27.283     7.050
   356   1 h        0.804     0.339     0.615     1.231
   357   1 h        0.803     0.350     0.588     1.205
   358   8 o        1.607    -0.675    27.051     7.020
   359   1 h        0.803     0.331     0.635     1.252
   360   1 h        0.804     0.346     0.598     1.215
   361   8 o        1.608    -0.689    27.407     7.066
   362   1 h        0.803     0.349     0.590     1.207
   363   1 h        0.805     0.331     0.635     1.251
   364   8 o        1.606    -0.710    27.974     7.138
   365   1 h        0.804     0.353     0.582     1.198
   366   1 h        0.802     0.359     0.569     1.185
   367   8 o        1.609    -0.676    27.077     7.023
   368   1 h        0.805     0.333     0.629     1.246
   369   1 h        0.805     0.348     0.592     1.209
   370   8 o        1.606    -0.680    27.184     7.037
   371   1 h        0.803     0.334     0.628     1.245
   372   1 h        0.804     0.338     0.616     1.233
   373   8 o        1.609    -0.674    27.037     7.018
   374   1 h        0.805     0.335     0.625     1.242
   375   1 h        0.804     0.336     0.622     1.239
   376   8 o        1.606    -0.696    27.600     7.090
   377   1 h        0.803     0.344     0.603     1.220
   378   1 h        0.803     0.350     0.587     1.204
   379   8 o        1.610    -0.666    26.811     6.988
   380   1 h        0.805     0.331     0.634     1.251
   381   1 h        0.805     0.336     0.621     1.238
   382   8 o        1.607    -0.687    27.374     7.061
   383   1 h        0.804     0.337     0.619     1.236
   384   1 h        0.803     0.350     0.589     1.206
   385   8 o        1.609    -0.673    27.008     7.014
   386   1 h        0.804     0.356     0.575     1.192
   387   1 h        0.805     0.321     0.662     1.278
   388   8 o        1.609    -0.641    26.193     6.907
   389   1 h        0.805     0.317     0.672     1.288
   390   1 h        0.804     0.347     0.595     1.212
   391   8 o        1.606    -0.692    27.503     7.078
   392   1 h        0.803     0.350     0.587     1.204
   393   1 h        0.804     0.330     0.637     1.254
   394   8 o        1.608    -0.697    27.633     7.095
   395   1 h        0.804     0.366     0.552     1.167
   396   1 h        0.804     0.339     0.615     1.232
   397   8 o        1.607    -0.693    27.524     7.081
   398   1 h        0.805     0.350     0.589     1.205
   399   1 h        0.803     0.343     0.605     1.222
   400   8 o        1.608    -0.689    27.424     7.068
   401   1 h        0.805     0.320     0.663     1.279
   402   1 h        0.803     0.352     0.584     1.201
   403   8 o        1.608    -0.683    27.250     7.045
   404   1 h        0.805     0.319     0.667     1.282
   405   1 h        0.803     0.356     0.574     1.190
   406   8 o        1.606    -0.698    27.655     7.097
   407   1 h        0.804     0.341     0.610     1.227
   408   1 h        0.802     0.363     0.559     1.175
   409   8 o        1.606    -0.687    27.375     7.061
   410   1 h        0.802     0.344     0.602     1.219
   411   1 h        0.804     0.333     0.629     1.246
   412   8 o        1.609    -0.680    27.184     7.037
   413   1 h        0.805     0.334     0.626     1.243
   414   1 h        0.803     0.343     0.605     1.221
   415   8 o        1.607    -0.652    26.473     6.944
   416   1 h        0.805     0.321     0.662     1.278
   417   1 h        0.802     0.349     0.592     1.208
   418   8 o        1.609    -0.679    27.154     7.033
   419   1 h        0.805     0.317     0.671     1.287
   420   1 h        0.804     0.353     0.580     1.197
   421   8 o        1.609    -0.677    27.098     7.026
   422   1 h        0.803     0.335     0.624     1.241
   423   1 h        0.804     0.331     0.634     1.251
   424   8 o        1.610    -0.649    26.398     6.934
   425   1 h        0.804     0.352     0.584     1.200
   426   1 h        0.806     0.311     0.689     1.304
   427   8 o        1.608    -0.662    26.711     6.975
   428   1 h        0.804     0.348     0.592     1.209
   429   1 h        0.804     0.336     0.621     1.238
   430   8 o        1.610    -0.661    26.684     6.972
   431   1 h        0.804     0.325     0.650     1.266
   432   1 h        0.805     0.349     0.591     1.207
   433   8 o        1.608    -0.655    26.544     6.953
   434   1 h        0.803     0.326     0.647     1.264
   435   1 h        0.805     0.330     0.637     1.254
   436   8 o        1.607    -0.681    27.218     7.041
   437   1 h        0.803     0.348     0.594     1.211
   438   1 h        0.804     0.338     0.617     1.233
   439   8 o        1.608    -0.664    26.784     6.985
   440   1 h        0.803     0.330     0.638     1.255
   441   1 h        0.805     0.349     0.590     1.207
   442   8 o        1.607    -0.682    27.239     7.044
   443   1 h        0.802     0.347     0.596     1.212
   444   1 h        0.805     0.322     0.658     1.274
   445   8 o        1.607    -0.676    27.068     7.022
   446   1 h        0.804     0.339     0.614     1.231
   447   1 h        0.804     0.333     0.630     1.247
   448   8 o        1.609    -0.667    26.837     6.992
   449   1 h        0.805     0.337     0.619     1.236
   450   1 h        0.805     0.336     0.623     1.240
   451   8 o        1.608    -0.678    27.122     7.029
   452   1 h        0.805     0.350     0.588     1.205
   453   1 h        0.804     0.326     0.648     1.265
   454   8 o        1.608    -0.665    26.803     6.987
   455   1 h        0.805     0.323     0.656     1.272
   456   1 h        0.803     0.354     0.579     1.196
   457   8 o        1.609    -0.668    26.875     6.997
   458   1 h        0.803     0.348     0.593     1.210
   459   1 h        0.805     0.320     0.663     1.279
   460   8 o        1.608    -0.662    26.709     6.975
   461   1 h        0.803     0.338     0.617     1.234
   462   1 h        0.804     0.340     0.613     1.230
   463   8 o        1.609    -0.670    26.929     7.004
   464   1 h        0.804     0.366     0.552     1.167
   465   1 h        0.805     0.331     0.634     1.251
   466   8 o        1.608    -0.655    26.555     6.955
   467   1 h        0.804     0.336     0.622     1.239
   468   1 h        0.804     0.335     0.624     1.241
   469   8 o        1.608    -0.692    27.507     7.079
   470   1 h        0.804     0.342     0.608     1.225
   471   1 h        0.804     0.337     0.620     1.237
   472   8 o        1.606    -0.669    26.901     7.000
   473   1 h        0.804     0.326     0.647     1.263
   474   1 h        0.802     0.342     0.607     1.224
   475   8 o        1.609    -0.662    26.724     6.977
   476   1 h        0.805     0.332     0.633     1.250
   477   1 h        0.804     0.345     0.599     1.216
   478   8 o        1.608    -0.681    27.206     7.040
   479   1 h        0.804     0.334     0.628     1.244
   480   1 h        0.804     0.350     0.589     1.205
   481   8 o        1.607    -0.682    27.247     7.045
   482   1 h        0.803     0.333     0.629     1.246
   483   1 h        0.803     0.360     0.565     1.181
   484   8 o        1.607    -0.708    27.930     7.133
   485   1 h        0.804     0.328     0.642     1.258
   486   1 h        0.803     0.362     0.560     1.176
   487   8 o        1.609    -0.662    26.722     6.977
   488   1 h        0.803     0.361     0.562     1.178
   489   1 h        0.806     0.292     0.747     1.357
   490   8 o        1.608    -0.673    27.005     7.014
   491   1 h        0.804     0.329     0.640     1.257
   492   1 h        0.804     0.336     0.621     1.238
   493   8 o        1.608    -0.715    28.105     7.155
   494   1 h        0.804     0.354     0.580     1.196
   495   1 h        0.803     0.353     0.582     1.198
   496   8 o        1.607    -0.671    26.948     7.006
   497   1 h        0.804     0.354     0.578     1.194
   498   1 h        0.803     0.340     0.614     1.230
   499   8 o        1.605    -0.711    28.002     7.142
   500   1 h        0.803     0.337     0.621     1.238
   501   1 h        0.802     0.355     0.577     1.193
   502   8 o        1.609    -0.663    26.744     6.980
   503   1 h        0.804     0.336     0.623     1.240
   504   1 h        0.805     0.334     0.626     1.243
   505   8 o        1.608    -0.647    26.352     6.928
   506   1 h        0.805     0.316     0.675     1.290
   507   1 h        0.802     0.351     0.585     1.202
   508   8 o        1.609    -0.659    26.641     6.966
   509   1 h        0.804     0.334     0.628     1.245
   510   1 h        0.805     0.315     0.677     1.292
   511   8 o        1.605    -0.681    27.215     7.041
   512   1 h        0.804     0.355     0.578     1.194
   513   1 h        0.802     0.335     0.625     1.242
   514   8 o        1.607    -0.685    27.312     7.053
   515   1 h        0.803     0.333     0.631     1.248
   516   1 h        0.804     0.335     0.625     1.241
   517   8 o        1.605    -0.695    27.573     7.087
   518   1 h        0.803     0.357     0.571     1.187
   519   1 h        0.802     0.332     0.632     1.249
   520   8 o        1.605    -0.713    28.073     7.151
   521   1 h        0.803     0.331     0.635     1.252
   522   1 h        0.802     0.362     0.561     1.177
   523   8 o        1.608    -0.672    26.971     7.009
   524   1 h        0.805     0.323     0.657     1.273
   525   1 h        0.803     0.345     0.600     1.217
   526   8 o        1.608    -0.671    26.949     7.006
   527   1 h        0.803     0.348     0.594     1.211
   528   1 h        0.805     0.326     0.649     1.265
   529   8 o        1.608    -0.693    27.536     7.082
   530   1 h        0.804     0.339     0.614     1.231
   531   1 h        0.804     0.337     0.620     1.237
   532   8 o        1.608    -0.689    27.414     7.067
   533   1 h        0.803     0.348     0.593     1.210
   534   1 h        0.804     0.332     0.632     1.249
   535   8 o        1.608    -0.683    27.269     7.048
   536   1 h        0.804     0.358     0.569     1.185
   537   1 h        0.804     0.320     0.663     1.279
   538   8 o        1.607    -0.702    27.752     7.110
   539   1 h        0.803     0.335     0.626     1.243
   540   1 h        0.804     0.330     0.637     1.253
   541   8 o        1.608    -0.675    27.059     7.021
   542   1 h        0.803     0.336     0.621     1.238
   543   1 h        0.805     0.333     0.630     1.247
   544   8 o        1.609    -0.686    27.334     7.056
   545   1 h        0.805     0.320     0.663     1.279
   546   1 h        0.804     0.353     0.581     1.197
   547   8 o        1.609    -0.645    26.291     6.920
   548   1 h        0.806     0.315     0.678     1.293
   549   1 h        0.804     0.349     0.591     1.208
   550   8 o        1.607    -0.656    26.564     6.956
   551   1 h        0.805     0.321     0.660     1.276
   552   1 h        0.802     0.344     0.603     1.220
   553   8 o        1.609    -0.654    26.518     6.950
   554   1 h        0.804     0.345     0.600     1.217
   555   1 h        0.805     0.316     0.676     1.291
   556   8 o        1.608    -0.655    26.546     6.954
   557   1 h        0.803     0.337     0.619     1.236
   558   1 h        0.805     0.332     0.632     1.248
   559   8 o        1.607    -0.697    27.632     7.095
   560   1 h        0.804     0.328     0.643     1.260
   561   1 h        0.803     0.361     0.564     1.180
   562   8 o        1.609    -0.682    27.242     7.044
   563   1 h        0.804     0.339     0.614     1.231
   564   1 h        0.804     0.335     0.626     1.242
   565   8 o        1.607    -0.672    26.968     7.009
   566   1 h        0.804     0.340     0.612     1.228
   567   1 h        0.803     0.330     0.638     1.254
   568   8 o        1.607    -0.702    27.757     7.111
   569   1 h        0.805     0.327     0.646     1.263
   570   1 h        0.803     0.356     0.576     1.192
   571   8 o        1.608    -0.675    27.066     7.022
   572   1 h        0.802     0.372     0.540     1.154
   573   1 h        0.805     0.317     0.672     1.288
   574   8 o        1.608    -0.679    27.150     7.032
   575   1 h        0.803     0.339     0.615     1.232
   576   1 h        0.805     0.361     0.563     1.178
   577   8 o        1.608    -0.685    27.313     7.053
   578   1 h        0.804     0.359     0.568     1.184
   579   1 h        0.804     0.330     0.637     1.253
   580   8 o        1.609    -0.671    26.947     7.006
   581   1 h        0.805     0.328     0.641     1.258
   582   1 h        0.804     0.346     0.598     1.215
   583   8 o        1.606    -0.709    27.943     7.134
   584   1 h        0.804     0.326     0.647     1.263
   585   1 h        0.802     0.361     0.564     1.180
   586   8 o        1.606    -0.677    27.115     7.028
   587   1 h        0.803     0.351     0.587     1.203
   588   1 h        0.803     0.337     0.620     1.237
   589   8 o        1.606    -0.708    27.928     7.132
   590   1 h        0.804     0.342     0.608     1.225
   591   1 h        0.803     0.352     0.583     1.199
   592   8 o        1.607    -0.672    26.984     7.011
   593   1 h        0.802     0.360     0.566     1.182
   594   1 h        0.806     0.307     0.699     1.313
   595   8 o        1.606    -0.703    27.797     7.116
   596   1 h        0.802     0.359     0.567     1.183
   597   1 h        0.804     0.320     0.663     1.280
   598   8 o        1.608    -0.687    27.359     7.059
   599   1 h        0.805     0.328     0.643     1.260
   600   1 h        0.803     0.343     0.606     1.223
   601   8 o        1.607    -0.679    27.161     7.034
   602   1 h        0.803     0.365     0.554     1.170
   603   1 h        0.804     0.317     0.673     1.289
   604   8 o        1.608    -0.699    27.671     7.100
   605   1 h        0.804     0.330     0.638     1.254
   606   1 h        0.804     0.328     0.644     1.260
   607   8 o        1.607    -0.681    27.223     7.042
   608   1 h        0.804     0.339     0.614     1.231
   609   1 h        0.803     0.341     0.610     1.227
   610   8 o        1.608    -0.677    27.095     7.025
   611   1 h        0.804     0.346     0.598     1.215
   612   1 h        0.804     0.335     0.624     1.240
   613   8 o        1.610    -0.659    26.643     6.967
   614   1 h        0.805     0.324     0.654     1.270
   615   1 h        0.805     0.331     0.634     1.251
   616   8 o        1.605    -0.703    27.805     7.117
   617   1 h        0.803     0.351     0.587     1.203
   618   1 h        0.803     0.354     0.579     1.195
   619   8 o        1.606    -0.690    27.441     7.070
   620   1 h        0.803     0.322     0.657     1.274
   621   1 h        0.803     0.360     0.565     1.181
   622   8 o        1.608    -0.674    27.023     7.016
   623   1 h        0.803     0.340     0.613     1.230
   624   1 h        0.805     0.330     0.638     1.254
   625   8 o        1.607    -0.692    27.512     7.079
   626   1 h        0.803     0.362     0.562     1.177
   627   1 h        0.804     0.324     0.653     1.270
   628   8 o        1.610    -0.672    26.965     7.009
   629   1 h        0.804     0.344     0.602     1.219
   630   1 h        0.804     0.345     0.601     1.218
   631   8 o        1.608    -0.674    27.038     7.018
   632   1 h        0.803     0.374     0.534     1.148
   633   1 h        0.804     0.338     0.616     1.233
   634   8 o        1.609    -0.678    27.137     7.031
   635   1 h        0.805     0.334     0.627     1.244
   636   1 h        0.804     0.331     0.635     1.251
   637   8 o        1.610    -0.642    26.214     6.910
   638   1 h        0.805     0.328     0.642     1.258
   639   1 h        0.805     0.319     0.665     1.281
   640   8 o        1.609    -0.674    27.017     7.015
   641   1 h        0.804     0.346     0.598     1.215
   642   1 h        0.805     0.313     0.684     1.299
   643   8 o        1.605    -0.702    27.764     7.111
   644   1 h        0.802     0.362     0.562     1.177
   645   1 h        0.805     0.323     0.656     1.272
   646   8 o        1.607    -0.690    27.459     7.072
   647   1 h        0.803     0.357     0.572     1.188
   648   1 h        0.804     0.348     0.593     1.209
   649   8 o        1.607    -0.667    26.836     6.992
   650   1 h        0.803     0.337     0.621     1.238
   651   1 h        0.805     0.325     0.651     1.268
   652   8 o        1.608    -0.674    27.019     7.016
   653   1 h        0.804     0.319     0.668     1.284
   654   1 h        0.804     0.367     0.550     1.164
   655   8 o        1.609    -0.668    26.867     6.996
   656   1 h        0.804     0.341     0.611     1.227
   657   1 h        0.805     0.329     0.641     1.257
   658   8 o        1.606    -0.701    27.740     7.108
   659   1 h        0.803     0.361     0.564     1.180
   660   1 h        0.803     0.334     0.627     1.244
   661   8 o        1.609    -0.666    26.833     6.991
   662   1 h        0.804     0.346     0.597     1.214
   663   1 h        0.805     0.317     0.672     1.287
   664   8 o        1.609    -0.656    26.557     6.955
   665   1 h        0.805     0.317     0.671     1.287
   666   1 h        0.803     0.361     0.563     1.178
   667   8 o        1.608    -0.672    26.973     7.010
   668   1 h        0.803     0.344     0.604     1.221
   669   1 h        0.805     0.318     0.669     1.285
   670   8 o        1.608    -0.692    27.500     7.078
   671   1 h        0.805     0.335     0.626     1.242
   672   1 h        0.803     0.334     0.627     1.244
   673   8 o        1.607    -0.694    27.559     7.085
   674   1 h        0.803     0.332     0.632     1.249
   675   1 h        0.804     0.360     0.565     1.180
   676   8 o        1.609    -0.656    26.577     6.958
   677   1 h        0.804     0.319     0.667     1.283
   678   1 h        0.805     0.320     0.665     1.281
   679   8 o        1.608    -0.677    27.097     7.026
   680   1 h        0.804     0.347     0.596     1.213
   681   1 h        0.803     0.324     0.652     1.269
   682   8 o        1.608    -0.677    27.094     7.025
   683   1 h        0.805     0.331     0.636     1.252
   684   1 h        0.803     0.337     0.621     1.238
   685   8 o        1.608    -0.664    26.774     6.984
   686   1 h        0.803     0.338     0.617     1.234
   687   1 h        0.804     0.336     0.623     1.240
   688   8 o        1.608    -0.660    26.664     6.969
   689   1 h        0.804     0.330     0.638     1.254
   690   1 h        0.803     0.355     0.577     1.193
   691   8 o        1.606    -0.655    26.537     6.952
   692   1 h        0.802     0.350     0.589     1.206
   693   1 h        0.806     0.309     0.695     1.310
   694   8 o        1.606    -0.688    27.407     7.066
   695   1 h        0.804     0.322     0.660     1.276
   696   1 h        0.803     0.345     0.600     1.217
   697   8 o        1.609    -0.648    26.372     6.931
   698   1 h        0.805     0.328     0.642     1.259
   699   1 h        0.804     0.344     0.603     1.220
   700   8 o        1.607    -0.682    27.234     7.043
   701   1 h        0.803     0.332     0.631     1.248
   702   1 h        0.804     0.345     0.599     1.216
   703   8 o        1.609    -0.686    27.353     7.059
   704   1 h        0.804     0.349     0.591     1.208
   705   1 h        0.804     0.332     0.633     1.249
   706   8 o        1.604    -0.702    27.774     7.113
   707   1 h        0.802     0.342     0.607     1.224
   708   1 h        0.802     0.374     0.535     1.149
   709   8 o        1.607    -0.688    27.383     7.063
   710   1 h        0.803     0.364     0.557     1.173
   711   1 h        0.804     0.319     0.667     1.283
   712   8 o        1.606    -0.675    27.053     7.020
   713   1 h        0.806     0.313     0.684     1.299
   714   1 h        0.801     0.363     0.559     1.174
   715   8 o        1.607    -0.688    27.385     7.063
   716   1 h        0.804     0.320     0.663     1.279
   717   1 h        0.803     0.362     0.560     1.176
   718   8 o        1.608    -0.666    26.812     6.988
   719   1 h        0.802     0.361     0.564     1.180
   720   1 h        0.805     0.311     0.689     1.304
   721   8 o        1.609    -0.667    26.839     6.992
   722   1 h        0.804     0.340     0.611     1.228
   723   1 h        0.804     0.331     0.636     1.252
   724   8 o        1.608    -0.669    26.890     6.999
   725   1 h        0.803     0.361     0.564     1.180
   726   1 h        0.804     0.328     0.642     1.259
   727   8 o        1.608    -0.704    27.814     7.118
   728   1 h        0.805     0.351     0.586     1.203
   729   1 h        0.803     0.327     0.646     1.262
   730   8 o        1.606    -0.691    27.461     7.073
   731   1 h        0.801     0.360     0.566     1.182
   732   1 h        0.805     0.321     0.661     1.277
   733   8 o        1.608    -0.689    27.413     7.066
   734   1 h        0.803     0.356     0.574     1.191
   735   1 h        0.805     0.320     0.663     1.279
   736   8 o        1.608    -0.667    26.835     6.992
   737   1 h        0.804     0.338     0.617     1.234
   738   1 h        0.804     0.339     0.614     1.231
   739   8 o        1.607    -0.693    27.520     7.080
   740   1 h        0.803     0.348     0.594     1.211
   741   1 h        0.804     0.329     0.641     1.258
   742   8 o        1.608    -0.653    26.481     6.945
   743   1 h        0.803     0.351     0.587     1.203
   744   1 h        0.805     0.319     0.665     1.281
   745   8 o        1.607    -0.686    27.354     7.059
   746   1 h        0.804     0.338     0.618     1.235
   747   1 h        0.804     0.330     0.637     1.254
   748   8 o        1.609    -0.669    26.911     7.001
   749   1 h        0.805     0.331     0.634     1.251
   750   1 h        0.804     0.347     0.595     1.212
   751   8 o        1.609    -0.672    26.988     7.011
   752   1 h        0.805     0.317     0.672     1.287
   753   1 h        0.803     0.348     0.593     1.210
   754   8 o        1.610    -0.658    26.613     6.963
   755   1 h        0.805     0.329     0.639     1.256
   756   1 h        0.806     0.325     0.651     1.267

 Mol. C6AA /au·bohr⁶  :    2900762.202011
 Mol. C8AA /au·bohr⁸  :   52643377.967782
 Mol. α(0) /au        :       2393.464655


Wiberg/Mayer (AO) data.
largest (>0.10) Wiberg bond orders for each atom

 ---------------------------------------------------------------------------
     #   Z sym  total        # sym  WBO       # sym  WBO       # sym  WBO
 ---------------------------------------------------------------------------
     1   8 o    1.823 --     2 h    0.851     3 h    0.849
     2   1 h    0.888 --     1 o    0.851
     3   1 h    0.886 --     1 o    0.849
     4   8 o    1.828 --     5 h    0.822     6 h    0.803
     5   1 h    0.880 --     4 o    0.822
     6   1 h    0.875 --     4 o    0.803
     7   8 o    1.843 --     8 h    0.828     9 h    0.821
     8   1 h    0.881 --     7 o    0.828
     9   1 h    0.881 --     7 o    0.821
    10   8 o    1.835 --    12 h    0.834    11 h    0.800
    11   1 h    0.879 --    10 o    0.800
    12   1 h    0.879 --    10 o    0.834
    13   8 o    1.814 --    14 h    0.854    15 h    0.835
    14   1 h    0.891 --    13 o    0.854
    15   1 h    0.881 --    13 o    0.835
    16   8 o    1.845 --    17 h    0.846    18 h    0.835
    17   1 h    0.892 --    16 o    0.846
    18   1 h    0.887 --    16 o    0.835
    19   8 o    1.842 --    21 h    0.832    20 h    0.813
    20   1 h    0.882 --    19 o    0.813
    21   1 h    0.884 --    19 o    0.832
    22   8 o    1.875 --    23 h    0.823    24 h    0.801
    23   1 h    0.877 --    22 o    0.823
    24   1 h    0.875 --    22 o    0.801
    25   8 o    1.860 --    27 h    0.830    26 h    0.803
    26   1 h    0.873 --    25 o    0.803
    27   1 h    0.893 --    25 o    0.830
    28   8 o    1.823 --    29 h    0.803    30 h    0.798
    29   1 h    0.876 --    28 o    0.803
    30   1 h    0.879 --    28 o    0.798
    31   8 o    1.859 --    32 h    0.821    33 h    0.793
    32   1 h    0.883 --    31 o    0.821
    33   1 h    0.880 --    31 o    0.793
    34   8 o    1.872 --    36 h    0.830    35 h    0.813
    35   1 h    0.875 --    34 o    0.813
    36   1 h    0.880 --    34 o    0.830
    37   8 o    1.867 --    38 h    0.836    39 h    0.828
    38   1 h    0.877 --    37 o    0.836
    39   1 h    0.893 --    37 o    0.828
    40   8 o    1.858 --    42 h    0.825    41 h    0.824
    41   1 h    0.874 --    40 o    0.824
    42   1 h    0.880 --    40 o    0.825
    43   8 o    1.869 --    44 h    0.820    45 h    0.775
    44   1 h    0.884 --    43 o    0.820
    45   1 h    0.874 --    43 o    0.775
    46   8 o    1.844 --    47 h    0.816    48 h    0.805
    47   1 h    0.883 --    46 o    0.816
    48   1 h    0.875 --    46 o    0.805
    49   8 o    1.833 --    51 h    0.829    50 h    0.828
    50   1 h    0.880 --    49 o    0.828
    51   1 h    0.879 --    49 o    0.829
    52   8 o    1.885 --    54 h    0.829    53 h    0.810
    53   1 h    0.889 --    52 o    0.810
    54   1 h    0.878 --    52 o    0.829
    55   8 o    1.864 --    57 h    0.813    56 h    0.809
    56   1 h    0.881 --    55 o    0.809
    57   1 h    0.875 --    55 o    0.813
    58   8 o    1.830 --    59 h    0.845    60 h    0.838
    59   1 h    0.886 --    58 o    0.845
    60   1 h    0.881 --    58 o    0.838
    61   8 o    1.879 --    62 h    0.812    63 h    0.811
    62   1 h    0.871 --    61 o    0.812
    63   1 h    0.881 --    61 o    0.811
    64   8 o    1.812 --    65 h    0.825    66 h    0.825
    65   1 h    0.881 --    64 o    0.825
    66   1 h    0.887 --    64 o    0.825
    67   8 o    1.831 --    68 h    0.844    69 h    0.794
    68   1 h    0.883 --    67 o    0.844
    69   1 h    0.877 --    67 o    0.794
    70   8 o    1.843 --    72 h    0.839    71 h    0.791
    71   1 h    0.877 --    70 o    0.791
    72   1 h    0.875 --    70 o    0.839
    73   8 o    1.856 --    75 h    0.838    74 h    0.822
    74   1 h    0.877 --    73 o    0.822
    75   1 h    0.887 --    73 o    0.838
    76   8 o    1.845 --    77 h    0.849    78 h    0.800
    77   1 h    0.881 --    76 o    0.849
    78   1 h    0.882 --    76 o    0.800
    79   8 o    1.829 --    80 h    0.838    81 h    0.833
    80   1 h    0.892 --    79 o    0.838
    81   1 h    0.882 --    79 o    0.833
    82   8 o    1.827 --    84 h    0.827    83 h    0.825
    83   1 h    0.888 --    82 o    0.825
    84   1 h    0.878 --    82 o    0.827
    85   8 o    1.875 --    86 h    0.810    87 h    0.808
    86   1 h    0.889 --    85 o    0.810
    87   1 h    0.876 --    85 o    0.808
    88   8 o    1.852 --    89 h    0.838    90 h    0.808
    89   1 h    0.881 --    88 o    0.838
    90   1 h    0.879 --    88 o    0.808
    91   8 o    1.830 --    92 h    0.886    93 h    0.878
    92   1 h    0.895 --    91 o    0.886
    93   1 h    0.895 --    91 o    0.878
    94   8 o    1.850 --    96 h    0.816    95 h    0.797
    95   1 h    0.874 --    94 o    0.797
    96   1 h    0.875 --    94 o    0.816
    97   8 o    1.861 --    99 h    0.843    98 h    0.821
    98   1 h    0.873 --    97 o    0.821
    99   1 h    0.895 --    97 o    0.843
   100   8 o    1.834 --   102 h    0.836   101 h    0.814
   101   1 h    0.876 --   100 o    0.814
   102   1 h    0.879 --   100 o    0.836
   103   8 o    1.802 --   104 h    0.834   105 h    0.825
   104   1 h    0.884 --   103 o    0.834
   105   1 h    0.883 --   103 o    0.825
   106   8 o    1.877 --   107 h    0.842   108 h    0.825
   107   1 h    0.878 --   106 o    0.842
   108   1 h    0.891 --   106 o    0.825
   109   8 o    1.850 --   111 h    0.827   110 h    0.819
   110   1 h    0.875 --   109 o    0.819
   111   1 h    0.889 --   109 o    0.827
   112   8 o    1.836 --   113 h    0.835   114 h    0.835
   113   1 h    0.885 --   112 o    0.835
   114   1 h    0.894 --   112 o    0.835
   115   8 o    1.847 --   117 h    0.820   116 h    0.808
   116   1 h    0.878 --   115 o    0.808
   117   1 h    0.881 --   115 o    0.820
   118   8 o    1.831 --   120 h    0.847   119 h    0.814
   119   1 h    0.872 --   118 o    0.814
   120   1 h    0.885 --   118 o    0.847
   121   8 o    1.807 --   122 h    0.885   123 h    0.837
   122   1 h    0.901 --   121 o    0.885
   123   1 h    0.885 --   121 o    0.837
   124   8 o    1.871 --   125 h    0.860   126 h    0.816
   125   1 h    0.886 --   124 o    0.860
   126   1 h    0.867 --   124 o    0.816
   127   8 o    1.837 --   128 h    0.836   129 h    0.817
   128   1 h    0.891 --   127 o    0.836
   129   1 h    0.881 --   127 o    0.817
   130   8 o    1.817 --   132 h    0.851   131 h    0.829
   131   1 h    0.886 --   130 o    0.829
   132   1 h    0.883 --   130 o    0.851
   133   8 o    1.859 --   134 h    0.831   135 h    0.801
   134   1 h    0.890 --   133 o    0.831
   135   1 h    0.872 --   133 o    0.801
   136   8 o    1.865 --   137 h    0.842   138 h    0.833
   137   1 h    0.883 --   136 o    0.842
   138   1 h    0.892 --   136 o    0.833
   139   8 o    1.857 --   141 h    0.822   140 h    0.766
   140   1 h    0.859 --   139 o    0.766
   141   1 h    0.877 --   139 o    0.822
   142   8 o    1.874 --   144 h    0.830   143 h    0.830
   143   1 h    0.885 --   142 o    0.830
   144   1 h    0.892 --   142 o    0.830
   145   8 o    1.872 --   147 h    0.842   146 h    0.834
   146   1 h    0.889 --   145 o    0.834
   147   1 h    0.886 --   145 o    0.842
   148   8 o    1.847 --   150 h    0.844   149 h    0.806
   149   1 h    0.877 --   148 o    0.806
   150   1 h    0.895 --   148 o    0.844
   151   8 o    1.858 --   152 h    0.799   153 h    0.796
   152   1 h    0.872 --   151 o    0.799
   153   1 h    0.870 --   151 o    0.796
   154   8 o    1.828 --   155 h    0.850   156 h    0.833
   155   1 h    0.884 --   154 o    0.850
   156   1 h    0.884 --   154 o    0.833
   157   8 o    1.860 --   159 h    0.819   158 h    0.813
   158   1 h    0.885 --   157 o    0.813
   159   1 h    0.877 --   157 o    0.819
   160   8 o    1.825 --   161 h    0.842   162 h    0.796
   161   1 h    0.882 --   160 o    0.842
   162   1 h    0.875 --   160 o    0.796
   163   8 o    1.854 --   165 h    0.866   164 h    0.774
   164   1 h    0.861 --   163 o    0.774
   165   1 h    0.898 --   163 o    0.866
   166   8 o    1.851 --   167 h    0.833   168 h    0.828
   167   1 h    0.885 --   166 o    0.833
   168   1 h    0.881 --   166 o    0.828
   169   8 o    1.842 --   170 h    0.825   171 h    0.794
   170   1 h    0.879 --   169 o    0.825
   171   1 h    0.876 --   169 o    0.794
   172   8 o    1.838 --   174 h    0.797   173 h    0.796
   173   1 h    0.874 --   172 o    0.796
   174   1 h    0.873 --   172 o    0.797
   175   8 o    1.877 --   177 h    0.809   176 h    0.805
   176   1 h    0.880 --   175 o    0.805
   177   1 h    0.880 --   175 o    0.809
   178   8 o    1.823 --   180 h    0.853   179 h    0.798
   179   1 h    0.875 --   178 o    0.798
   180   1 h    0.887 --   178 o    0.853
   181   8 o    1.862 --   183 h    0.839   182 h    0.819
   182   1 h    0.877 --   181 o    0.819
   183   1 h    0.883 --   181 o    0.839
   184   8 o    1.877 --   186 h    0.814   185 h    0.795
   185   1 h    0.876 --   184 o    0.795
   186   1 h    0.878 --   184 o    0.814
   187   8 o    1.857 --   188 h    0.842   189 h    0.841
   188   1 h    0.884 --   187 o    0.842
   189   1 h    0.888 --   187 o    0.841
   190   8 o    1.808 --   191 h    0.893   192 h    0.815
   191   1 h    0.904 --   190 o    0.893
   192   1 h    0.875 --   190 o    0.815
   193   8 o    1.870 --   195 h    0.828   194 h    0.803
   194   1 h    0.873 --   193 o    0.803
   195   1 h    0.896 --   193 o    0.828
   196   8 o    1.860 --   198 h    0.823   197 h    0.814
   197   1 h    0.879 --   196 o    0.814
   198   1 h    0.881 --   196 o    0.823
   199   8 o    1.868 --   200 h    0.805   201 h    0.793
   200   1 h    0.886 --   199 o    0.805
   201   1 h    0.879 --   199 o    0.793
   202   8 o    1.872 --   204 h    0.866   203 h    0.809
   203   1 h    0.873 --   202 o    0.809
   204   1 h    0.892 --   202 o    0.866
   205   8 o    1.814 --   206 h    0.821   207 h    0.813
   206   1 h    0.884 --   205 o    0.821
   207   1 h    0.882 --   205 o    0.813
   208   8 o    1.809 --   209 h    0.873   210 h    0.804
   209   1 h    0.899 --   208 o    0.873
   210   1 h    0.876 --   208 o    0.804
   211   8 o    1.815 --   212 h    0.869   213 h    0.835
   212   1 h    0.897 --   211 o    0.869
   213   1 h    0.889 --   211 o    0.835
   214   8 o    1.861 --   216 h    0.841   215 h    0.837
   215   1 h    0.885 --   214 o    0.837
   216   1 h    0.891 --   214 o    0.841
   217   8 o    1.863 --   219 h    0.840   218 h    0.798
   218   1 h    0.875 --   217 o    0.798
   219   1 h    0.878 --   217 o    0.840
   220   8 o    1.861 --   222 h    0.845   221 h    0.798
   221   1 h    0.872 --   220 o    0.798
   222   1 h    0.884 --   220 o    0.845
   223   8 o    1.847 --   224 h    0.816   225 h    0.788
   224   1 h    0.874 --   223 o    0.816
   225   1 h    0.876 --   223 o    0.788
   226   8 o    1.863 --   228 h    0.877   227 h    0.776
   227   1 h    0.866 --   226 o    0.776
   228   1 h    0.899 --   226 o    0.877
   229   8 o    1.900 --   230 h    0.839   231 h    0.774
   230   1 h    0.894 --   229 o    0.839
   231   1 h    0.867 --   229 o    0.774
   232   8 o    1.872 --   233 h    0.798   234 h    0.790
   233   1 h    0.871 --   232 o    0.798
   234   1 h    0.878 --   232 o    0.790
   235   8 o    1.857 --   236 h    0.821   237 h    0.799
   236   1 h    0.877 --   235 o    0.821
   237   1 h    0.873 --   235 o    0.799
   238   8 o    1.871 --   240 h    0.852   239 h    0.795
   239   1 h    0.882 --   238 o    0.795
   240   1 h    0.894 --   238 o    0.852
   241   8 o    1.849 --   242 h    0.829   243 h    0.820
   242   1 h    0.882 --   241 o    0.829
   243   1 h    0.888 --   241 o    0.820
   244   8 o    1.808 --   245 h    0.859   246 h    0.808
   245   1 h    0.893 --   244 o    0.859
   246   1 h    0.883 --   244 o    0.808
   247   8 o    1.818 --   249 h    0.860   248 h    0.840
   248   1 h    0.883 --   247 o    0.840
   249   1 h    0.891 --   247 o    0.860
   250   8 o    1.824 --   252 h    0.844   251 h    0.840
   251   1 h    0.890 --   250 o    0.840
   252   1 h    0.884 --   250 o    0.844
   253   8 o    1.822 --   254 h    0.809   255 h    0.804
   254   1 h    0.873 --   253 o    0.809
   255   1 h    0.893 --   253 o    0.804
   256   8 o    1.842 --   257 h    0.833   258 h    0.798
   257   1 h    0.876 --   256 o    0.833
   258   1 h    0.874 --   256 o    0.798
   259   8 o    1.829 --   260 h    0.830   261 h    0.806
   260   1 h    0.888 --   259 o    0.830
   261   1 h    0.881 --   259 o    0.806
   262   8 o    1.817 --   264 h    0.862   263 h    0.852
   263   1 h    0.888 --   262 o    0.852
   264   1 h    0.886 --   262 o    0.862
   265   8 o    1.872 --   267 h    0.867   266 h    0.810
   266   1 h    0.886 --   265 o    0.810
   267   1 h    0.893 --   265 o    0.867
   268   8 o    1.843 --   270 h    0.864   269 h    0.818
   269   1 h    0.876 --   268 o    0.818
   270   1 h    0.891 --   268 o    0.864
   271   8 o    1.850 --   273 h    0.827   272 h    0.823
   272   1 h    0.888 --   271 o    0.823
   273   1 h    0.877 --   271 o    0.827
   274   8 o    1.850 --   276 h    0.804   275 h    0.775
   275   1 h    0.871 --   274 o    0.775
   276   1 h    0.879 --   274 o    0.804
   277   8 o    1.848 --   279 h    0.827   278 h    0.802
   278   1 h    0.878 --   277 o    0.802
   279   1 h    0.883 --   277 o    0.827
   280   8 o    1.842 --   282 h    0.846   281 h    0.797
   281   1 h    0.874 --   280 o    0.797
   282   1 h    0.890 --   280 o    0.846
   283   8 o    1.859 --   284 h    0.815   285 h    0.803
   284   1 h    0.881 --   283 o    0.815
   285   1 h    0.887 --   283 o    0.803
   286   8 o    1.851 --   287 h    0.811   288 h    0.792
   287   1 h    0.880 --   286 o    0.811
   288   1 h    0.878 --   286 o    0.792
   289   8 o    1.886 --   290 h    0.809   291 h    0.781
   290   1 h    0.879 --   289 o    0.809
   291   1 h    0.875 --   289 o    0.781
   292   8 o    1.852 --   293 h    0.838   294 h    0.814
   293   1 h    0.886 --   292 o    0.838
   294   1 h    0.870 --   292 o    0.814
   295   8 o    1.859 --   297 h    0.825   296 h    0.815
   296   1 h    0.875 --   295 o    0.815
   297   1 h    0.895 --   295 o    0.825
   298   8 o    1.883 --   300 h    0.848   299 h    0.797
   299   1 h    0.871 --   298 o    0.797
   300   1 h    0.885 --   298 o    0.848
   301   8 o    1.873 --   302 h    0.818   303 h    0.805
   302   1 h    0.885 --   301 o    0.818
   303   1 h    0.874 --   301 o    0.805
   304   8 o    1.816 --   305 h    0.859   306 h    0.850
   305   1 h    0.889 --   304 o    0.859
   306   1 h    0.883 --   304 o    0.850
   307   8 o    1.818 --   308 h    0.850   309 h    0.813
   308   1 h    0.890 --   307 o    0.850
   309   1 h    0.874 --   307 o    0.813
   310   8 o    1.798 --   312 h    0.864   311 h    0.836
   311   1 h    0.885 --   310 o    0.836
   312   1 h    0.891 --   310 o    0.864
   313   8 o    1.832 --   314 h    0.856   315 h    0.808
   314   1 h    0.893 --   313 o    0.856
   315   1 h    0.872 --   313 o    0.808
   316   8 o    1.822 --   318 h    0.858   317 h    0.819
   317   1 h    0.884 --   316 o    0.819
   318   1 h    0.898 --   316 o    0.858
   319   8 o    1.882 --   320 h    0.824   321 h    0.813
   320   1 h    0.889 --   319 o    0.824
   321   1 h    0.871 --   319 o    0.813
   322   8 o    1.841 --   323 h    0.892   324 h    0.793
   323   1 h    0.902 --   322 o    0.892
   324   1 h    0.872 --   322 o    0.793
   325   8 o    1.838 --   327 h    0.843   326 h    0.798
   326   1 h    0.876 --   325 o    0.798
   327   1 h    0.894 --   325 o    0.843
   328   8 o    1.818 --   330 h    0.825   329 h    0.782
   329   1 h    0.872 --   328 o    0.782
   330   1 h    0.892 --   328 o    0.825
   331   8 o    1.824 --   332 h    0.844   333 h    0.797
   332   1 h    0.893 --   331 o    0.844
   333   1 h    0.866 --   331 o    0.797
   334   8 o    1.810 --   336 h    0.842   335 h    0.803
   335   1 h    0.881 --   334 o    0.803
   336   1 h    0.876 --   334 o    0.842
   337   8 o    1.847 --   338 h    0.859   339 h    0.791
   338   1 h    0.890 --   337 o    0.859
   339   1 h    0.866 --   337 o    0.791
   340   8 o    1.834 --   341 h    0.873   342 h    0.841
   341   1 h    0.899 --   340 o    0.873
   342   1 h    0.887 --   340 o    0.841
   343   8 o    1.880 --   344 h    0.806   345 h    0.805
   344   1 h    0.889 --   343 o    0.806
   345   1 h    0.876 --   343 o    0.805
   346   8 o    1.891 --   348 h    0.824   347 h    0.817
   347   1 h    0.889 --   346 o    0.817
   348   1 h    0.878 --   346 o    0.824
   349   8 o    1.801 --   351 h    0.853   350 h    0.851
   350   1 h    0.889 --   349 o    0.851
   351   1 h    0.891 --   349 o    0.853
   352   8 o    1.827 --   353 h    0.831   354 h    0.809
   353   1 h    0.894 --   352 o    0.831
   354   1 h    0.874 --   352 o    0.809
   355   8 o    1.847 --   356 h    0.837   357 h    0.817
   356   1 h    0.885 --   355 o    0.837
   357   1 h    0.877 --   355 o    0.817
   358   8 o    1.848 --   360 h    0.829   359 h    0.826
   359   1 h    0.890 --   358 o    0.826
   360   1 h    0.880 --   358 o    0.829
   361   8 o    1.825 --   363 h    0.863   362 h    0.811
   362   1 h    0.878 --   361 o    0.811
   363   1 h    0.890 --   361 o    0.863
   364   8 o    1.853 --   365 h    0.805   366 h    0.788
[...]
   369   1 h    0.879 --   367 o    0.849
   370   8 o    1.842 --   372 h    0.830   371 h    0.822
   371   1 h    0.889 --   370 o    0.822
   372   1 h    0.885 --   370 o    0.830
   373   8 o    1.832 --   374 h    0.856   375 h    0.844
   374   1 h    0.888 --   373 o    0.856
   375   1 h    0.887 --   373 o    0.844
   376   8 o    1.857 --   377 h    0.819   378 h    0.800
   377   1 h    0.882 --   376 o    0.819
   378   1 h    0.877 --   376 o    0.800
   379   8 o    1.820 --   380 h    0.867   381 h    0.853
   380   1 h    0.890 --   379 o    0.867
   381   1 h    0.887 --   379 o    0.853
   382   8 o    1.849 --   383 h    0.837   384 h    0.808
   383   1 h    0.886 --   382 o    0.837
   384   1 h    0.878 --   382 o    0.808
   385   8 o    1.829 --   387 h    0.875   386 h    0.823
   386   1 h    0.874 --   385 o    0.823
   387   1 h    0.897 --   385 o    0.875
   388   8 o    1.850 --   389 h    0.893   390 h    0.840
   389   1 h    0.899 --   388 o    0.893
   390   1 h    0.879 --   388 o    0.840
   391   8 o    1.829 --   393 h    0.837   392 h    0.808
   392   1 h    0.877 --   391 o    0.808
   393   1 h    0.891 --   391 o    0.837
   394   8 o    1.826 --   396 h    0.840   395 h    0.804
   395   1 h    0.866 --   394 o    0.804
   396   1 h    0.885 --   394 o    0.840
   397   8 o    1.854 --   398 h    0.832   399 h    0.794
   398   1 h    0.878 --   397 o    0.832
   399   1 h    0.882 --   397 o    0.794
   400   8 o    1.805 --   401 h    0.880   402 h    0.802
   401   1 h    0.897 --   400 o    0.880
   402   1 h    0.876 --   400 o    0.802
   403   8 o    1.811 --   404 h    0.873   405 h    0.820
   404   1 h    0.898 --   403 o    0.873
   405   1 h    0.873 --   403 o    0.820
   406   8 o    1.879 --   407 h    0.823   408 h    0.775
   407   1 h    0.884 --   406 o    0.823
   408   1 h    0.868 --   406 o    0.775
   409   8 o    1.849 --   411 h    0.836   410 h    0.802
   410   1 h    0.882 --   409 o    0.802
   411   1 h    0.889 --   409 o    0.836
   412   8 o    1.845 --   413 h    0.849   414 h    0.813
   413   1 h    0.888 --   412 o    0.849
   414   1 h    0.882 --   412 o    0.813
   415   8 o    1.870 --   416 h    0.885   417 h    0.809
   416   1 h    0.897 --   415 o    0.885
   417   1 h    0.878 --   415 o    0.809
   418   8 o    1.819 --   419 h    0.877   420 h    0.814
   419   1 h    0.899 --   418 o    0.877
   420   1 h    0.875 --   418 o    0.814
   421   8 o    1.841 --   423 h    0.848   422 h    0.830
   422   1 h    0.887 --   421 o    0.830
   423   1 h    0.890 --   421 o    0.848
   424   8 o    1.835 --   426 h    0.900   425 h    0.832
   425   1 h    0.876 --   424 o    0.832
   426   1 h    0.903 --   424 o    0.900
   427   8 o    1.881 --   429 h    0.844   428 h    0.826
   428   1 h    0.879 --   427 o    0.826
   429   1 h    0.887 --   427 o    0.844
   430   8 o    1.850 --   431 h    0.850   432 h    0.847
   431   1 h    0.894 --   430 o    0.850
   432   1 h    0.878 --   430 o    0.847
   433   8 o    1.867 --   435 h    0.853   434 h    0.830
   434   1 h    0.894 --   433 o    0.830
   435   1 h    0.891 --   433 o    0.853
   436   8 o    1.868 --   438 h    0.830   437 h    0.806
   437   1 h    0.879 --   436 o    0.806
   438   1 h    0.886 --   436 o    0.830
   439   8 o    1.870 --   441 h    0.835   440 h    0.831
   440   1 h    0.891 --   439 o    0.831
   441   1 h    0.878 --   439 o    0.835
   442   8 o    1.831 --   444 h    0.867   443 h    0.802
   443   1 h    0.880 --   442 o    0.802
   444   1 h    0.896 --   442 o    0.867
   445   8 o    1.846 --   446 h    0.835   447 h    0.832
   446   1 h    0.885 --   445 o    0.835
   447   1 h    0.889 --   445 o    0.832
   448   8 o    1.818 --   450 h    0.866   449 h    0.860
   449   1 h    0.886 --   448 o    0.860
   450   1 h    0.887 --   448 o    0.866
   451   8 o    1.835 --   453 h    0.828   452 h    0.826
   452   1 h    0.877 --   451 o    0.826
   453   1 h    0.894 --   451 o    0.828
   454   8 o    1.844 --   455 h    0.872   456 h    0.819
   455   1 h    0.896 --   454 o    0.872
   456   1 h    0.875 --   454 o    0.819
   457   8 o    1.829 --   459 h    0.890   458 h    0.819
   458   1 h    0.879 --   457 o    0.819
   459   1 h    0.897 --   457 o    0.890
   460   8 o    1.875 --   462 h    0.847   461 h    0.825
   461   1 h    0.886 --   460 o    0.825
   462   1 h    0.885 --   460 o    0.847
   463   8 o    1.857 --   465 h    0.863   464 h    0.826
   464   1 h    0.866 --   463 o    0.826
   465   1 h    0.890 --   463 o    0.863
   466   8 o    1.883 --   467 h    0.840   468 h    0.827
   467   1 h    0.887 --   466 o    0.840
   468   1 h    0.887 --   466 o    0.827
   469   8 o    1.817 --   471 h    0.836   470 h    0.834
   470   1 h    0.883 --   469 o    0.834
   471   1 h    0.886 --   469 o    0.836
   472   8 o    1.862 --   473 h    0.843   474 h    0.821
   473   1 h    0.893 --   472 o    0.843
   474   1 h    0.883 --   472 o    0.821
   475   8 o    1.849 --   476 h    0.861   477 h    0.838
   476   1 h    0.890 --   475 o    0.861
   477   1 h    0.881 --   475 o    0.838
   478   8 o    1.832 --   479 h    0.848   480 h    0.833
   479   1 h    0.888 --   478 o    0.848
   480   1 h    0.878 --   478 o    0.833
   481   8 o    1.879 --   482 h    0.817   483 h    0.807
   482   1 h    0.889 --   481 o    0.817
   483   1 h    0.870 --   481 o    0.807
   484   8 o    1.819 --   485 h    0.835   486 h    0.808
   485   1 h    0.892 --   484 o    0.835
   486   1 h    0.869 --   484 o    0.808
   487   8 o    1.817 --   489 h    0.906   488 h    0.797
   488   1 h    0.869 --   487 o    0.797
   489   1 h    0.915 --   487 o    0.906
   490   8 o    1.825 --   492 h    0.845   491 h    0.841
   491   1 h    0.892 --   490 o    0.841
   492   1 h    0.887 --   490 o    0.845
   493   8 o    1.808 --   494 h    0.806   495 h    0.803
   494   1 h    0.875 --   493 o    0.806
   495   1 h    0.875 --   493 o    0.803
   496   8 o    1.901 --   498 h    0.820   497 h    0.817
   497   1 h    0.874 --   496 o    0.817
   498   1 h    0.885 --   496 o    0.820
   499   8 o    1.837 --   500 h    0.835   501 h    0.789
   500   1 h    0.887 --   499 o    0.835
   501   1 h    0.874 --   499 o    0.789
   502   8 o    1.852 --   504 h    0.854   503 h    0.834
   503   1 h    0.887 --   502 o    0.834
   504   1 h    0.888 --   502 o    0.854
   505   8 o    1.868 --   506 h    0.891   507 h    0.803
   506   1 h    0.900 --   505 o    0.891
   507   1 h    0.876 --   505 o    0.803
   508   8 o    1.812 --   510 h    0.878   509 h    0.838
   509   1 h    0.888 --   508 o    0.838
   510   1 h    0.901 --   508 o    0.878
   511   8 o    1.892 --   512 h    0.817   513 h    0.801
   512   1 h    0.874 --   511 o    0.817
   513   1 h    0.888 --   511 o    0.801
   514   8 o    1.838 --   516 h    0.833   515 h    0.817
   515   1 h    0.889 --   514 o    0.817
   516   1 h    0.888 --   514 o    0.833
   517   8 o    1.869 --   518 h    0.809   519 h    0.809
   518   1 h    0.872 --   517 o    0.809
   519   1 h    0.890 --   517 o    0.809
   520   8 o    1.821 --   521 h    0.816   522 h    0.804
   521   1 h    0.890 --   520 o    0.816
   522   1 h    0.869 --   520 o    0.804
   523   8 o    1.831 --   524 h    0.869   525 h    0.828
   524   1 h    0.896 --   523 o    0.869
   525   1 h    0.881 --   523 o    0.828
   526   8 o    1.828 --   528 h    0.880   527 h    0.820
   527   1 h    0.879 --   526 o    0.820
   528   1 h    0.894 --   526 o    0.880
   529   8 o    1.796 --   531 h    0.846   530 h    0.836
   530   1 h    0.885 --   529 o    0.836
   531   1 h    0.887 --   529 o    0.846
   532   8 o    1.841 --   534 h    0.846   533 h    0.820
   533   1 h    0.879 --   532 o    0.820
   534   1 h    0.890 --   532 o    0.846
   535   8 o    1.821 --   537 h    0.851   536 h    0.820
   536   1 h    0.872 --   535 o    0.820
   537   1 h    0.897 --   535 o    0.851
   538   8 o    1.788 --   540 h    0.837   539 h    0.820
   539   1 h    0.888 --   538 o    0.820
   540   1 h    0.891 --   538 o    0.837
   541   8 o    1.829 --   543 h    0.854   542 h    0.828
   542   1 h    0.887 --   541 o    0.828
   543   1 h    0.889 --   541 o    0.854
   544   8 o    1.799 --   545 h    0.879   546 h    0.823
   545   1 h    0.898 --   544 o    0.879
   546   1 h    0.875 --   544 o    0.823
   547   8 o    1.850 --   548 h    0.899   549 h    0.830
   548   1 h    0.901 --   547 o    0.899
   549   1 h    0.878 --   547 o    0.830
   550   8 o    1.856 --   551 h    0.889   552 h    0.807
   551   1 h    0.897 --   550 o    0.889
   552   1 h    0.882 --   550 o    0.807
   553   8 o    1.807 --   555 h    0.888   554 h    0.845
   554   1 h    0.881 --   553 o    0.845
   555   1 h    0.900 --   553 o    0.888
   556   8 o    1.862 --   558 h    0.865   557 h    0.827
   557   1 h    0.886 --   556 o    0.827
   558   1 h    0.890 --   556 o    0.865
   559   8 o    1.834 --   560 h    0.856   561 h    0.794
   560   1 h    0.893 --   559 o    0.856
   561   1 h    0.870 --   559 o    0.794
   562   8 o    1.801 --   564 h    0.852   563 h    0.849
   563   1 h    0.885 --   562 o    0.849
   564   1 h    0.888 --   562 o    0.852
   565   8 o    1.860 --   567 h    0.838   566 h    0.823
   566   1 h    0.884 --   565 o    0.823
   567   1 h    0.891 --   565 o    0.838
   568   8 o    1.805 --   569 h    0.860   570 h    0.804
   569   1 h    0.893 --   568 o    0.860
   570   1 h    0.874 --   568 o    0.804
   571   8 o    1.845 --   573 h    0.880   572 h    0.793
   572   1 h    0.862 --   571 o    0.793
   573   1 h    0.899 --   571 o    0.880
   574   8 o    1.874 --   576 h    0.827   575 h    0.822
   575   1 h    0.885 --   574 o    0.822
   576   1 h    0.869 --   574 o    0.827
   577   8 o    1.838 --   579 h    0.838   578 h    0.812
   578   1 h    0.871 --   577 o    0.812
   579   1 h    0.891 --   577 o    0.838
   580   8 o    1.830 --   581 h    0.866   582 h    0.833
   581   1 h    0.892 --   580 o    0.866
   582   1 h    0.880 --   580 o    0.833
   583   8 o    1.804 --   584 h    0.830   585 h    0.785
   584   1 h    0.893 --   583 o    0.830
   585   1 h    0.870 --   583 o    0.785
   586   8 o    1.856 --   588 h    0.836   587 h    0.820
   587   1 h    0.877 --   586 o    0.820
   588   1 h    0.886 --   586 o    0.836
   589   8 o    1.824 --   590 h    0.840   591 h    0.807
   590   1 h    0.883 --   589 o    0.840
   591   1 h    0.876 --   589 o    0.807
   592   8 o    1.834 --   594 h    0.893   593 h    0.784
   593   1 h    0.870 --   592 o    0.784
   594   1 h    0.905 --   592 o    0.893
   595   8 o    1.830 --   597 h    0.840   596 h    0.789
   596   1 h    0.871 --   595 o    0.789
   597   1 h    0.897 --   595 o    0.840
   598   8 o    1.801 --   599 h    0.862   600 h    0.819
   599   1 h    0.893 --   598 o    0.862
   600   1 h    0.882 --   598 o    0.819
   601   8 o    1.842 --   603 h    0.862   602 h    0.813
   602   1 h    0.867 --   601 o    0.813
   603   1 h    0.900 --   601 o    0.862
   604   8 o    1.779 --   606 h    0.841   605 h    0.834
   605   1 h    0.891 --   604 o    0.834
   606   1 h    0.893 --   604 o    0.841
   607   8 o    1.829 --   608 h    0.845   609 h    0.833
   608   1 h    0.885 --   607 o    0.845
   609   1 h    0.884 --   607 o    0.833
   610   8 o    1.836 --   612 h    0.845   611 h    0.832
   611   1 h    0.880 --   610 o    0.832
   612   1 h    0.887 --   610 o    0.845
   613   8 o    1.809 --   614 h    0.867   615 h    0.864
   614   1 h    0.895 --   613 o    0.867
   615   1 h    0.890 --   613 o    0.864
   616   8 o    1.859 --   618 h    0.829   617 h    0.789
   617   1 h    0.877 --   616 o    0.789
   618   1 h    0.875 --   616 o    0.829
   619   8 o    1.852 --   620 h    0.829   621 h    0.785
   620   1 h    0.896 --   619 o    0.829
   621   1 h    0.870 --   619 o    0.785
   622   8 o    1.832 --   624 h    0.867   623 h    0.819
   623   1 h    0.884 --   622 o    0.819
   624   1 h    0.891 --   622 o    0.867
   625   8 o    1.832 --   627 h    0.851   626 h    0.809
   626   1 h    0.869 --   625 o    0.809
   627   1 h    0.895 --   625 o    0.851
   628   8 o    1.846 --   629 h    0.847   630 h    0.841
   629   1 h    0.881 --   628 o    0.847
   630   1 h    0.881 --   628 o    0.841
   631   8 o    1.875 --   633 h    0.844   632 h    0.796
   632   1 h    0.860 --   631 o    0.796
   633   1 h    0.885 --   631 o    0.844
   634   8 o    1.811 --   635 h    0.855   636 h    0.851
   635   1 h    0.888 --   634 o    0.855
   636   1 h    0.890 --   634 o    0.851
   637   8 o    1.818 --   639 h    0.880   638 h    0.871
   638   1 h    0.892 --   637 o    0.871
   639   1 h    0.898 --   637 o    0.880
   640   8 o    1.796 --   642 h    0.881   641 h    0.819
   641   1 h    0.880 --   640 o    0.819
   642   1 h    0.902 --   640 o    0.881
   643   8 o    1.843 --   645 h    0.856   644 h    0.768
   644   1 h    0.869 --   643 o    0.768
   645   1 h    0.896 --   643 o    0.856
   646   8 o    1.856 --   648 h    0.839   647 h    0.815
   647   1 h    0.872 --   646 o    0.815
   648   1 h    0.879 --   646 o    0.839
   649   8 o    1.833 --   651 h    0.859   650 h    0.819
   650   1 h    0.887 --   649 o    0.819
   651   1 h    0.895 --   649 o    0.859
   652   8 o    1.851 --   653 h    0.858   654 h    0.817
   653   1 h    0.898 --   652 o    0.858
   654   1 h    0.865 --   652 o    0.817
   655   8 o    1.805 --   657 h    0.882   656 h    0.840
   656   1 h    0.884 --   655 o    0.840
   657   1 h    0.892 --   655 o    0.882
   658   8 o    1.843 --   660 h    0.832   659 h    0.809
   659   1 h    0.870 --   658 o    0.809
   660   1 h    0.888 --   658 o    0.832
   661   8 o    1.826 --   663 h    0.873   662 h    0.823
   662   1 h    0.880 --   661 o    0.823
   663   1 h    0.899 --   661 o    0.873
   664   8 o    1.863 --   665 h    0.880   666 h    0.813
   665   1 h    0.899 --   664 o    0.880
   666   1 h    0.869 --   664 o    0.813
   667   8 o    1.819 --   669 h    0.889   668 h    0.815
   668   1 h    0.882 --   667 o    0.815
   669   1 h    0.899 --   667 o    0.889
   670   8 o    1.794 --   671 h    0.851   672 h    0.829
   671   1 h    0.888 --   670 o    0.851
   672   1 h    0.888 --   670 o    0.829
   673   8 o    1.848 --   674 h    0.823   675 h    0.804
   674   1 h    0.890 --   673 o    0.823
   675   1 h    0.870 --   673 o    0.804
   676   8 o    1.819 --   678 h    0.862   677 h    0.846
   677   1 h    0.898 --   676 o    0.846
   678   1 h    0.898 --   676 o    0.862
   679   8 o    1.859 --   681 h    0.834   680 h    0.816
   680   1 h    0.880 --   679 o    0.816
   681   1 h    0.895 --   679 o    0.834
   682   8 o    1.828 --   683 h    0.852   684 h    0.819
   683   1 h    0.891 --   682 o    0.852
   684   1 h    0.887 --   682 o    0.819
   685   8 o    1.871 --   687 h    0.843   686 h    0.829
   686   1 h    0.886 --   685 o    0.829
   687   1 h    0.887 --   685 o    0.843
   688   8 o    1.911 --   689 h    0.827   690 h    0.808
   689   1 h    0.891 --   688 o    0.827
   690   1 h    0.874 --   688 o    0.808
   691   8 o    1.858 --   693 h    0.895   692 h    0.786
   692   1 h    0.878 --   691 o    0.786
   693   1 h    0.905 --   691 o    0.895
   694   8 o    1.841 --   695 h    0.830   696 h    0.795
   695   1 h    0.897 --   694 o    0.830
   696   1 h    0.881 --   694 o    0.795
   697   8 o    1.862 --   698 h    0.871   699 h    0.841
   698   1 h    0.892 --   697 o    0.871
   699   1 h    0.882 --   697 o    0.841
   700   8 o    1.839 --   701 h    0.835   702 h    0.826
   701   1 h    0.889 --   700 o    0.835
   702   1 h    0.881 --   700 o    0.826
   703   8 o    1.817 --   705 h    0.852   704 h    0.838
   704   1 h    0.878 --   703 o    0.838
   705   1 h    0.890 --   703 o    0.852
   706   8 o    1.880 --   707 h    0.804   708 h    0.787
   707   1 h    0.883 --   706 o    0.804
   708   1 h    0.860 --   706 o    0.787
   709   8 o    1.838 --   711 h    0.858   710 h    0.800
   710   1 h    0.868 --   709 o    0.800
   711   1 h    0.898 --   709 o    0.858
   712   8 o    1.848 --   713 h    0.896   714 h    0.774
   713   1 h    0.902 --   712 o    0.896
   714   1 h    0.868 --   712 o    0.774
   715   8 o    1.849 --   716 h    0.848   717 h    0.785
   716   1 h    0.897 --   715 o    0.848
   717   1 h    0.869 --   715 o    0.785
   718   8 o    1.844 --   720 h    0.895   719 h    0.795
   719   1 h    0.870 --   718 o    0.795
   720   1 h    0.903 --   718 o    0.895
   721   8 o    1.826 --   723 h    0.853   722 h    0.849
   722   1 h    0.884 --   721 o    0.849
   723   1 h    0.891 --   721 o    0.853
   724   8 o    1.893 --   726 h    0.841   725 h    0.785
   725   1 h    0.870 --   724 o    0.785
   726   1 h    0.892 --   724 o    0.841
   727   8 o    1.792 --   728 h    0.842   729 h    0.832
   728   1 h    0.877 --   727 o    0.842
   729   1 h    0.893 --   727 o    0.832
   730   8 o    1.839 --   732 h    0.875   731 h    0.773
   731   1 h    0.871 --   730 o    0.773
   732   1 h    0.897 --   730 o    0.875
   733   8 o    1.820 --   735 h    0.873   734 h    0.798
   734   1 h    0.873 --   733 o    0.798
   735   1 h    0.897 --   733 o    0.873
   736   8 o    1.851 --   737 h    0.849   738 h    0.836
   737   1 h    0.886 --   736 o    0.849
   738   1 h    0.885 --   736 o    0.836
   739   8 o    1.825 --   741 h    0.845   740 h    0.813
   740   1 h    0.879 --   739 o    0.813
   741   1 h    0.892 --   739 o    0.845
   742   8 o    1.852 --   744 h    0.882   743 h    0.817
   743   1 h    0.877 --   742 o    0.817
   744   1 h    0.898 --   742 o    0.882
   745   8 o    1.819 --   747 h    0.842   746 h    0.830
   746   1 h    0.886 --   745 o    0.830
   747   1 h    0.891 --   745 o    0.842
   748   8 o    1.820 --   749 h    0.857   750 h    0.840
   749   1 h    0.890 --   748 o    0.857
   750   1 h    0.879 --   748 o    0.840
   751   8 o    1.819 --   752 h    0.884   753 h    0.816
   752   1 h    0.899 --   751 o    0.884
   753   1 h    0.879 --   751 o    0.816
   754   8 o    1.811 --   756 h    0.883   755 h    0.854
   755   1 h    0.892 --   754 o    0.854
   756   1 h    0.894 --   754 o    0.883
 ---------------------------------------------------------------------------

Topologies differ in total number of bonds
Writing topology from bond orders to xtbtopo.mol

molecular dipole:
                 x           y           z       tot (Debye)
 q only:        1.387      -0.978      -1.547
   full:        1.497      -0.844      -1.965       6.635
molecular quadrupole (traceless):
                xx          xy          yy          xz          yz          zz
 q only:      -70.930      75.133      81.623     -44.119     -20.990     -10.693
  q+dip:      -80.184      62.295     103.599     -48.349     -31.277     -23.415
   full:      -79.723      61.093     103.744     -48.870     -32.260     -24.021


           -------------------------------------------------
          | TOTAL ENERGY            -1283.614125294376 Eh   |
          | GRADIENT NORM               0.098371911820 Eh/α |
          | HOMO-LUMO GAP               7.797024864082 eV   |
           -------------------------------------------------

------------------------------------------------------------------------
 * finished run on 2022/11/24 at 09:28:08.257     
------------------------------------------------------------------------
 total:
 * wall-time:     0 d,  0 h,  0 min, 21.728 sec
 *  cpu-time:     0 d,  0 h,  0 min, 35.144 sec
 * ratio c/w:     1.617 speedup
 SCF:
 * wall-time:     0 d,  0 h,  0 min, 20.723 sec
 *  cpu-time:     0 d,  0 h,  0 min, 33.429 sec
 * ratio c/w:     1.613 speedup

