756
 energy: -1283.355026334961 gnorm: 0.011125902035 xtb: 6.5.1 (579679a)
o           -4.23409826297294       -5.75109291143069       -4.25638322720524
h           -5.18091343273008       -5.64039443380075       -4.43520524731457
h           -4.16918457519523       -6.32357824751678       -3.47941054389066
o            1.53927789549041       -2.38164582413813        0.76642035079390
h            0.73472567553453       -2.72501199748154        0.33881218486599
h            1.23148080194659       -2.15163611957774        1.66790257025688
o            2.11759369553604       -0.42689809409341       -1.04119448160098
h            2.80497745166256        0.09154857730654       -0.60325062113219
h            1.84473971295030       -1.09206675338126       -0.38527238775578
o            3.81254474578325        0.45318487805476        0.82240798269916
h            4.65358806485374        0.79835278073113        1.18742308253462
h            3.77070662926471       -0.44365767843866        1.18870571131528
o            0.03265348957029       -1.73513505011928       -2.11176099487725
h           -0.72385467634298       -1.55743738190535       -2.68042042281835
h            0.22446973487452       -0.90673387387612       -1.64661665173200
o           -3.19785015271288       -5.50655661131798        1.22874807120020
h           -2.84266170066626       -6.35574595843267        0.92956506815760
h           -3.68130266825955       -5.70501680020505        2.05077249483514
o            4.18222207268548       -1.80561154588067        2.33373181588300
h            4.05094622736486       -2.77224129539948        2.31200082569930
h            5.08446646207839       -1.66695445054489        2.66934070664667
o           -0.85915642888998       -3.34787586459372        0.03878395330155
h           -1.70443694796723       -3.01743978475098        0.38271882179237
h           -0.97566340858061       -3.47305939597953       -0.92853482985342
o            2.33775645990993       -5.26153925704978        0.31781135961415
h            2.06993532165761       -4.82157920636784       -0.51126775056627
h            2.75240547873978       -6.12122263259094        0.10921982976684
o            1.89926008949201        2.21357024903129        1.48760396358421
h            2.48508029804173        1.43870178332168        1.37989184537773
h            1.73218807519289        2.29841687705957        2.45433017279452
o            1.30151431164926        2.59663626909194        4.04967666998311
h            1.55835408072029        1.84774236767210        4.61726627202369
h            0.32116696430331        2.54347435782389        4.01000840436338
o           -0.19671325294964        0.28308261613648        1.85382006020827
h            0.70611040028936        0.11291726142372        2.18167033359084
h           -0.72448586288449       -0.46140017039248        2.19102049052353
o            0.57206166252590       -3.19075887177095       -4.33320501857787
h           -0.22820165732832       -3.53505921292736       -3.90920472761564
h            0.70254675611984       -3.67041408876968       -5.17317604094801
o           -0.69280223332360        3.07882138325605        1.04611004334507
h            0.13171283627991        2.56735744850829        1.08500992663571
h           -0.57464806888570        3.81423741972649        1.67462999343284
o            5.91153645644486        2.01203934512875       -0.92147606280818
h            6.22678977889690        2.59010566159744       -1.64302845196450
h            6.32764715873932        2.41410398612672       -0.11905514345429
o           -0.38921132409001       -1.01782389786950       -5.46370761929314
h            0.21529635992555       -1.65652202231249       -5.03864067302952
h           -1.18047861107866       -1.03852931654855       -4.88992261762747
o           -2.24850209739067       -0.97977702629892       -3.60181902953377
h           -2.82977561086164       -0.24156062498881       -3.85161763485802
h           -2.80710948646459       -1.59404141730963       -3.11123204494879
o           -8.27522462424916        0.24770951951835       -3.55890897241462
h           -8.99097609604387        0.36500856033545       -4.22973742707740
h           -7.95099543583009       -0.66268364051829       -3.67028235438196
o           -6.58391484846355       -1.11653494691131       -1.39967818904195
h           -6.86613734778002       -1.99164434062102       -1.74108208156769
h           -6.12393448583953       -1.29353224078964       -0.55361322613727
o           -3.42893568427355        2.61390292348958        0.99211233345497
h           -3.67195684182687        2.53083487309655        0.06252172149958
h           -2.47576726560559        2.78444370346727        1.02532110667368
o           -2.60884192105944        4.37680564473292       -3.40490942630238
h           -1.97018706941187        4.15791890114033       -2.69997162000435
h           -2.25351116522578        4.00440686158314       -4.23961970186034
o            2.13823642742071        0.63328957614499       -4.60045387788357
h            2.01070984655207        1.22511497603760       -3.84160243218742
h            2.34581230586225       -0.23414812457645       -4.21847105202250
o           -3.32365029244146       -2.74642601069477        0.90690421056026
h           -3.55302715596081       -3.68506828271039        0.92660545513213
h           -4.16563502712442       -2.24516474280006        0.89796596748951
o           -3.76234694524056       -2.62038118528874       -1.99084116999581
h           -4.20780721171176       -3.39682806795207       -1.59333485667494
h           -3.86674968305455       -1.86767008152300       -1.36966159182663
o           -2.36393834038054       -1.09109456207160        2.89071378010832
h           -2.66533417921798       -1.75191741486241        2.24312020868971
h           -2.27315049050391       -1.54369725578035        3.74572241378296
o           -6.52700824394349        1.85097497537192       -1.64568861631769
h           -6.71657170995630        0.90972025749884       -1.59153795374189
h           -7.34049939277003        2.30014729669890       -1.97009512802061
o            1.28869749103836       -4.06872528161578       -6.76542545952360
h            1.84310137280267       -4.82860843931591       -6.51319740022494
h            1.89377783070063       -3.30652152913059       -6.72580154089992
o            4.01523966137793       -2.52535666670509       -0.44826552741136
h            4.31586195528684       -3.44339912973155       -0.56498047148258
h            3.17726231382284       -2.55873793740783        0.03751842621916
o           -8.18192981120454       -3.39620094301023        0.54233417508362
h           -8.68073494782682       -4.19544063425933        0.82865924471967
h           -8.82534431291029       -2.80487463487209        0.10060645876618
o            4.58340071356566        3.39642139019015        1.99077164710183
h            4.60661411861176        4.07225863038786        1.30280231712968
h            5.45317511827054        3.40660139804545        2.44317686482920
o           -7.73606236637084       -6.46906952371863       -1.26427865670369
h           -7.65927954159450       -6.25868310723785       -2.19744944742724
h           -8.67638080243094       -6.47135114090687       -1.06292162238506
o           -5.34723165049940       -0.94727584641428        4.12184876178684
h           -4.96002476642356       -1.79372663888310        3.82036891575760
h           -4.93552251219648       -0.24650222583051        3.59389796396877
o            3.72920641821494        4.64832917994152       -3.06890455537616
h            3.65447451774849        3.69176921738871       -3.23080365295542
h            3.45999421699177        5.10858399054043       -3.88466714559204
o            5.66506733351174       -3.81708819556157        4.69070228641063
h            4.71155418317578       -3.69879547943643        4.51387534701585
h            6.11598161997701       -3.11049430841764        4.20460392950904
o            6.43112308083903       -1.48904912185049        0.29653169818857
h            6.31292811710487       -0.70946394997809        0.85909889889525
h            5.55714484992436       -1.88196072379711        0.15446590596911
o           -5.73394095262157       -4.46544003930935        1.40356768128119
h           -6.43885377002180       -3.87719129068538        1.10447965672974
h           -6.18486534128617       -5.28529287204625        1.68847737354791
o            2.04030784500607        4.91814521640893        1.12161276594021
h            2.10790702123467        3.96090681551878        1.26575873076657
h            1.27477513083006        5.19006644428062        1.66096539570063
o            0.21846236273149       -2.12651002050847        3.04261941681462
h           -0.46039973698556       -2.79570955032235        2.86433547195533
h            0.49305616155576       -2.29208588004676        3.95905817529019
o           -3.95921121837576        2.53888373475001       -1.81535313007700
h           -3.62881786642885        2.24186565860644       -2.68393735299220
h           -4.90781534756726        2.32507245398669       -1.80968088090325
o            4.67498972706822       -0.25620298703033       -1.92540442156654
h            4.42951682464265       -1.03686332980265       -1.40320881981435
h            5.22806790395532        0.29804903514795       -1.36296614134777
o            6.36559200601893       -6.80754066651635       -2.68424728566359
h            7.16083055633893       -7.04791934541473       -2.20434247368765
h            6.60321144897349       -6.12201117141759       -3.33191946677440
o            4.20573722940425        2.00780438462165       -3.39256040934804
h            5.13383330369823        2.25314863935969       -3.33735489777003
h            4.10834011884043        1.20237892154683       -2.85944265360957
o           -4.99322834344274       -0.55655958286402       -3.50008572937229
h           -5.20938447258873        0.32918078555957       -3.83058826270920
h           -5.49448917823766       -0.68202546332362       -2.67278968212628
o           -1.64821232618382        1.16513897140160       -6.98133978399163
h           -0.68880861259430        1.05143467495116       -7.09669640418959
h           -1.97344148000972        0.31655904143049       -6.64804938611373
o            7.17460570186126       -1.56447364235270       -2.37988177370163
h            7.55763485622477       -1.40383440645656       -3.25997167734946
h            7.53413350860546       -0.90135016897547       -1.75807416439104
o            7.44394852587246        1.47781148319306       -4.05879340753706
h            7.28585370163966        2.35943565869872       -3.69294849447916
h            7.39783587095030        1.55598212314051       -5.03243153140570
o            2.62045658498192       -1.71078964317771       -3.30752271223768
h            2.45966261819955       -1.24919207070344       -2.44478936627970
h            1.82866702594170       -2.25812062369836       -3.46079676001758
o           -9.88604073170198       -2.15541359362702       -1.08553633988736
h           -9.90246613027831       -2.29343349782207       -2.05157571336095
h          -10.69346367839192       -2.58839785485606       -0.74459108731887
o           -0.10391939575871        5.09950207028310        2.69412857764645
h            0.23065672570016        5.31352809852634        3.58015474044361
h           -0.75514638833954        5.78488626849550        2.47071407767450
o           -3.23805445568258        1.54908490188067       -4.21057516945540
h           -2.26644145772618        1.63344705025337       -4.30066407889681
h           -3.61953690739013        1.81193555929420       -5.06456767782437
o            3.55910874279620       -5.07848457153313       -3.03894448085564
h            4.20258582109624       -4.35109704231797       -3.15832616107997
h            2.75666409494461       -4.65541085828456       -2.66574059348034
o           -0.59234843504364        1.48769936787569       -4.30671182873585
h            0.02404804996868        1.62155691235653       -3.58375701890942
h           -0.32370016616819        0.68218864500851       -4.77753620795413
o            6.97837931336622        5.63782312483926        1.21184452416880
h            6.80915857486623        6.01273163185654        2.10197727418455
h            6.14060439939291        5.68703530867340        0.71542285882540
o            3.94383630530266        1.54051763807505        3.94929324659625
h            4.23418002466528        2.07747653935806        3.20696897346658
h            3.30967683303803        0.89305238774532        3.58912702411112
o            3.59020957821107        2.64905454172862        6.30959381631445
h            3.64783412206442        2.23749535401182        5.41166975172133
h            3.40065653139698        1.93706158488507        6.93405967427840
o            8.11206064388669        0.40722873371853       -0.74195431576341
h            8.65457348825398        1.14690045729368       -1.06483855050751
h            7.22773278003200        0.79675491137924       -0.67630955235415
o           -5.35863414104143        4.15957679268672        2.85184972791359
h           -5.45662771685030        3.89107839029737        1.92579974692997
h           -4.44937317210016        3.88988808540785        3.10542427518786
o           -3.84447476062078        1.09453929875179        3.12016644842029
h           -3.18486417551742        0.37679226594225        3.01766484513008
h           -3.77168176107455        1.65577994048183        2.31805431663746
o           -7.19258523789314       -3.65747252157041       -1.91524642280899
h           -6.35979989095665       -4.16640141225353       -1.82498301438347
h           -7.58806215530207       -3.69499670138892       -1.02150224062798
o          -11.73522846163976       -0.15309564239639        0.51629495519990
h          -10.98056743775545       -0.56495112008542        0.98662584786379
h          -11.34629503232411        0.48645718466777       -0.09021191803031
o            4.20138929160736       -4.48730640328063        2.14802590991237
h            3.60803333675744       -4.75365865146956        1.42304620117380
h            5.10931915867242       -4.50411892772112        1.80832693992859
o           -6.24587296062633        1.61102553053368       -4.52199177596297
h           -7.04040356291219        1.25536005733132       -4.05750331975702
h           -5.95031147204757        2.42351260715352       -4.06615507915431
o           -4.15808014882540        2.11039483920402       -6.77238236967832
h           -3.28124175887626        1.87928204934580       -7.11423059506270
h           -4.75360941337427        1.37670187857383       -6.99144698185388
o            2.33256591809162       -2.10426901497205        7.48126784590999
h            2.79853046046035       -2.93634922727415        7.57954351879211
h            1.62542168959798       -2.26373914757686        6.82792183782536
o           -8.22168727851589       -0.32429395971286        3.82408375041249
h           -7.54467667892703        0.37888890374779        3.74186089024104
h           -8.65153308523624       -0.15333897377389        4.68667163308433
o           -8.33153837302446        0.21498248905439        0.12052310691833
h           -7.93024069095568       -0.34309489576868       -0.56836390456883
h           -8.78860217181937       -0.39016351250163        0.72635772171044
o            7.23373978147475        3.01583436399954        1.03466128900701
h            7.18790415452728        3.98579316151003        1.13283354799891
h            8.18217068978216        2.77398213103811        0.95309522687461
o           -1.78321232855890       -4.00159867154339        2.96437033947454
h           -2.09223424268854       -4.51131157585352        2.19094002543125
h           -1.33866846380245       -4.64993299779296        3.51901537721593
o          -10.25030361990714        0.45886171562832       -1.74932068060337
h           -9.51271018323866        0.56692854760220       -2.37263239847391
h          -10.20878050535912       -0.47640653230045       -1.48486374183857
o           -1.29450281489988       -3.10083518831384       -6.96764693946200
h           -0.50959671862102       -3.55634654815276       -7.29285663009029
h           -0.94503483062219       -2.30447573019751       -6.51363540788394
o           -1.56030495623975       -5.12941879390746       -5.09482643851674
h           -2.45437390319064       -5.45561979034382       -4.95125310263745
h           -1.60516238967763       -4.43931135143352       -5.78160691859963
o           -1.45795653773500       -4.04328522487600       -2.47597973378591
h           -2.33198881814481       -3.62621553917045       -2.44400817665187
h           -1.57655274433188       -4.99339280712769       -2.30756769071066
o            3.43344160815536        2.96057829182613       -0.77539026656167
h            4.29534944049013        2.49545313167916       -0.81571321012065
h            3.01700558149088        2.68654866144993        0.05069882659650
o            4.03233050049224       -1.03290917476947        5.25944745674417
h            3.64732794051169       -1.84919948973658        4.88050448450113
h            3.27906551067796       -0.48466804923383        5.50145470459119
o           -6.07345937702229        3.84090318965234        0.21835358394163
h           -6.20964448638764        3.04804146611188       -0.32875072749962
h           -5.25679948878956        4.27347706741951       -0.12371010022257
o           -1.47085161643848       -6.58868735472067       -1.50721307276528
h           -1.08506663593056       -6.34627693971093       -0.62928723371639
h           -0.85451292162103       -7.22173665288830       -1.88209462218467
o           -2.79620999047591        3.90022659654841        3.38895544798287
h           -2.65347529841826        4.55819180060450        4.09200830675565
h           -2.59324506230621        4.38763560022824        2.55139715778889
o           -1.17450396523295        1.88395457891237        3.75554272327185
h           -0.96169093997736        1.40618528083837        2.92990609267207
h           -1.78983687094412        2.62467241269061        3.56308011992764
o           -4.34431898494705       -3.30290124326648        3.52671494400153
h           -4.85042766299166       -3.72088842818707        2.80849345483647
h           -3.40519922407565       -3.53390500863469        3.38243023208817
o          -10.21793705381002        0.73612874460388       -5.27349394304088
h          -10.21287220467960        1.71948403817122       -5.13621846557659
h           -9.78515027966237        0.58905879304896       -6.12705877354931
o           -5.14215303092598        4.58736728699730       -6.43844608976011
h           -4.75386020925089        3.73756755383938       -6.72034742770610
h           -4.39538781060896        5.22458958447804       -6.47915003578374
o          -10.58683091528479       -5.57641276743665       -1.06414445377205
h          -11.30237936229829       -4.94440481867270       -0.90711858094003
h          -10.17701491130668       -5.29945016703278       -1.91381855994154
o           -9.22738758031000       -3.47673110083908        5.08122235017925
h           -8.67480550417728       -2.77091798552223        5.45714489310207
h           -8.62989277174414       -4.22899567134637        4.97849677990965
o            2.90862321734637        5.85340072633843       -5.42295592237385
h            2.16462426797248        6.41299706312105       -5.13758478415015
h            2.49882278736632        5.13579832061556       -5.93250308289977
o            4.60983032491372        5.34064311591083       -0.03866198221326
h            4.15849563808692        4.61543734209307       -0.50811705135836
h            4.58398279551165        6.11787037900219       -0.64952289993902
o            1.45348280075013        2.13132098686256       -2.38037582735567
h            0.94081477691382        1.59146096714891       -1.74547203756021
h            2.22582821829424        2.45041137195797       -1.87098652081563
o            2.08392214526006        3.42542123319968       -6.33667192370225
h            1.50599479907842        2.75648552316133       -6.74789636814976
h            2.93042968962355        2.94484343748581       -6.22094657903892
o           11.47487874589467       -1.75717549537447       -4.89161469887054
h           12.10459344767137       -1.89754402905142       -4.16750496035123
h           11.09357228117099       -0.88551909674430       -4.72914615154352
o            8.22463529204251       -1.46498104798337       -4.87084568829717
h            8.71097056022196       -2.30986828269717       -4.75130692518759
h            8.88567710501311       -0.76648065208810       -4.88517431306783
o           -6.11826067416581        2.87296303435476        6.23986352538382
h           -5.15124832108209        2.78722783500912        6.11037900209706
h           -6.38055974943025        3.77011973831922        6.00454193581627
o            8.66255369121383       -0.49439425443179        1.87160259615842
h            8.70661562392576        0.23273638970744        2.51687189369216
h            8.50141874616344       -0.10504612735397        0.99581075301161
o            6.84187340213117       -2.04925191177627        2.95855819671380
h            7.41606623895928       -1.35959157876121        2.54503251807930
h            6.81528498029777       -2.77409659802737        2.29803788789460
o            6.13786184264700        0.74320584874757        1.94806654666395
h            6.19232740729420        0.56558298992700        2.91156903537337
h            6.58645935582753        1.58798012667192        1.79885810170708
o           -7.02977624289775       -2.07361073791635       -4.25828969082823
h           -6.14779585652575       -1.65613237064900       -4.19607701620025
h           -6.90669392421746       -3.01731449856219       -4.08263822132459
o           -9.69043350965003       -1.25880401671210        1.84085597321078
h           -9.33118844627961       -0.79010194529691        2.62233152500780
h          -10.05806597004242       -2.10594903311628        2.17092717478783
o           -5.63940896469243       -1.49364375332427        1.10178719197958
h           -6.14158365650213       -1.88444751966651        1.84207003089835
h           -5.66182653481229       -0.51721733721404        1.23244174175757
o            1.62963242280759        5.13248355482310       -1.44435105249721
h            2.41881558618929        4.84052210601061       -1.94023192499095
h            1.83614411314810        5.06174453518614       -0.47848866120725
o           -3.58204221856889        2.12416857192586        5.66369819763894
h           -2.79714957138865        2.66075868304245        5.86733845554578
h           -3.52826704295798        1.91771280578020        4.71228933980769
o            8.72996454185949        1.59142937635211        3.53724641132460
h            7.91248401080302        2.10085187438915        3.66796972209675
h            9.10014212241578        1.40148887917393        4.41998891782620
o            2.17547947426547       -0.24098783684195        3.01641258464631
h            2.81539211459629       -0.96049374988800        2.84440094690474
h            1.79122380021543       -0.39201768972993        3.88850525283600
o           10.06728533268657       -1.36097425173268       -1.90557473780614
h            9.86887014669537       -0.83592291644552       -2.70430093630284
h           10.23798610974959       -0.66535068487056       -1.23547637067617
o            8.01982995934398        3.80461811491868       -6.13531611208355
h            7.82809160983274        2.97747999175813       -6.59461437187098
h            7.16165954636219        4.22133108375704       -5.97663654000523
o            5.30516000100259       -0.27134922252503       -4.55559289634529
h            6.13153500273395        0.19231430625747       -4.35845154313580
h            4.94414378409707       -0.49362404390285       -3.68482479553253
o          -12.33385211240144       -0.10710847306281       -3.74505404904505
h          -11.68489778990970        0.14088733822869       -4.42612000545739
h          -12.53750269900710        0.73280718641234       -3.31362113237214
o          -12.14249172935512        2.30903111527466       -2.16975490939649
h          -11.80214748303150        3.20772240279714       -2.05027196618198
h          -11.38083496711975        1.71477051220841       -2.02528209150028
o           -4.47038075055123        6.71098073907467        2.80267304157621
h           -4.95822804629001        5.86405908855007        2.83626998065899
h           -4.85707408627509        7.22256754051140        2.07725952887773
o           -3.93637538799443        5.00354518638575       -0.78941187216091
h           -4.06167485106957        5.80363330665592       -1.33439166949892
h           -3.72506303359958        4.25331863028955       -1.37307605830986
o            3.63623939164051       -0.16541285065357       -7.53359451175521
h            4.44808556751964       -0.45049047810459       -7.95715431815878
h            3.39796899024653       -0.90187932282638       -6.92136114395628
o           -8.89233774279496        5.60683678571419        2.44873593381339
h           -8.63672695121001        4.66054580970825        2.37656420270956
h           -9.80879455886869        5.62275707953721        2.11212132204378
o           -2.06694717773483        6.94289141675873       -3.74488751466057
h           -2.26140561569330        5.98040790755535       -3.62562407422512
h           -1.12466572045665        6.99402473401517       -4.01260314132241
o            6.28859802666214       -1.38675138084115       -6.73465245357880
h            7.12784733659934       -1.55597451434111       -6.27292114741703
h            5.71626979636145       -1.07560184510877       -5.99701349921446
o           -5.71383048168778       -0.19117136266376       -6.63970894008737
h           -4.82468834107972       -0.60157986488721       -6.56906379094132
h           -5.87826406823166        0.24216410263255       -5.79013904380811
o           -1.01116098428750        0.41184612109034        5.93765154382236
h           -1.49461205423421       -0.40302238230896        5.78115267594149
h           -1.19683627146091        1.00804605567625        5.17836907816602
o           -6.83676605140491       -4.85787209150101       -4.69479519573079
h           -7.78293832302185       -5.02849999567033       -4.62968428457126
h           -6.67889581485150       -4.42292738065404       -5.55432677638576
o           -4.95355741702368       -4.76700849593079       -1.13054100741191
h           -4.63032711111166       -5.64357520170552       -1.42590572340858
h           -5.08743438030259       -4.81578078550609       -0.16323009485618
o           -8.68583780985342        3.17980227898734       -2.34165817884790
h           -8.55229217994333        4.14721556253349       -2.24120640786753
h           -9.25807160046326        2.93615883339203       -1.59029518165687
o           -5.78256064091077       -7.77280337256238        0.18986766568466
h           -6.46802489261559       -7.46862930158241       -0.42677381200516
h           -6.08959873992501       -7.42971418389319        1.03930081127681
o            9.06593675878882       -2.60366199503975        4.44348450874677
h            8.78052675086859       -2.20155738874575        5.28766817482559
h            8.34377968058888       -2.35909139013063        3.83218608706092
o           -1.47589135227105        3.69340477893688       -5.71028076791677
h           -1.49167033200707        2.81686684175950       -6.12719706713672
h           -0.62939281520696        3.75420721809566       -5.22853891131157
o            6.37904691167098        3.77602513247163       -2.88942602212779
h            7.10451534266405        4.41577883431709       -2.75283521400005
h            5.55348926696342        4.29149633654765       -2.90339152493169
o          -13.28980424811096       -1.33301295892703       -1.33526605891783
h          -12.76112960355967       -0.81030244532263       -0.69849761599561
h          -13.03137090718751       -1.03343990412063       -2.21762711575505
o            3.09990051650029        4.54567185636615        3.86484045103146
h            2.33533194143485        3.97549125966544        4.06811046087278
h            3.58304568167569        4.06171939936570        3.15687674831411
o            0.41047679981712        1.73134704887045        8.03267927225162
h            0.56029554881751        2.62637141673313        7.70697105766967
h           -0.26541908907501        1.34600777982148        7.45766131220027
o           -2.30483955176353       -2.13421082129404        5.46315926394392
h           -3.01177798167613       -1.66567926016328        5.95762800606901
h           -2.50649053715515       -3.08725522107326        5.50036541309218
o            2.54663281873113       -5.10121984482392        6.39060209849859
h            1.60718956838945       -5.31126712433631        6.29717715016622
h            3.00454549904707       -5.70322463807168        5.77794040213953
o           -0.86834995403717        4.23434970454948       -1.35258013561165
h            0.06165638637948        4.46946122903626       -1.53690005971069
h           -0.85566880941373        3.79515057489692       -0.47640114190083
o            5.58715436164045        0.35676045450100        8.23337208363199
h            5.73825272522176       -0.58163101773796        8.07531020809646
h            4.62801993712587        0.45718750808323        8.30940103137798
o           -4.05087733837174       -7.14293744759928       -1.82641170955089
h           -4.50472175196488       -7.53533827209332       -1.06105833475829