      -----------------------------------------------------------      
     |                   =====================                   |     
     |                           x T B                           |     
     |                   =====================                   |     
     |                         S. Grimme                         |     
     |          Mulliken Center for Theoretical Chemistry        |     
     |                    University of Bonn                     |     
      -----------------------------------------------------------      

   * xtb version 6.5.1 (579679a) compiled by 'ehlert@majestix' on 2022-07-11

   xtb is free software: you can redistribute it and/or modify it under
   the terms of the GNU Lesser General Public License as published by
   the Free Software Foundation, either version 3 of the License, or
   (at your option) any later version.
   
   xtb is distributed in the hope that it will be useful,
   but WITHOUT ANY WARRANTY; without even the implied warranty of
   MERCHANTABILITY or FITNESS FOR A PARTICULAR PURPOSE.  See the
   GNU Lesser General Public License for more details.
   
   Cite this work as:
   * C. Bannwarth, E. Caldeweyher, S. Ehlert, A. Hansen, P. Pracht,
     J. Seibert, S. Spicher, S. Grimme, WIREs Comput. Mol. Sci., 2020, 11,
     e01493. DOI: 10.1002/wcms.1493
   
   for GFN2-xTB:
   * C. Bannwarth, S. Ehlert and S. Grimme., J. Chem. Theory Comput., 2019,
     15, 1652-1671. DOI: 10.1021/acs.jctc.8b01176
   for GFN1-xTB:
   * S. Grimme, C. Bannwarth, P. Shushkov, J. Chem. Theory Comput., 2017,
     13, 1989-2009. DOI: 10.1021/acs.jctc.7b00118
   for GFN0-xTB:
   * P. Pracht, E. Caldeweyher, S. Ehlert, S. Grimme, ChemRxiv, 2019, preprint.
     DOI: 10.26434/chemrxiv.8326202.v1
   for GFN-FF:
   * S. Spicher and S. Grimme, Angew. Chem. Int. Ed., 2020, 59, 15665-15673.
     DOI: 10.1002/anie.202004239
   
   for ALPB and GBSA implicit solvation:
   * S. Ehlert, M. Stahn, S. Spicher, S. Grimme, J. Chem. Theory Comput.,
     2021, 17, 4250-4261. DOI: 10.1021/acs.jctc.1c00471
   
   for DFT-D4:
   * E. Caldeweyher, C. Bannwarth and S. Grimme, J. Chem. Phys., 2017,
     147, 034112. DOI: 10.1063/1.4993215
   * E. Caldeweyher, S. Ehlert, A. Hansen, H. Neugebauer, S. Spicher,
     C. Bannwarth and S. Grimme, J. Chem. Phys., 2019, 150, 154122.
     DOI: 10.1063/1.5090222
   * E. Caldeweyher, J.-M. Mewes, S. Ehlert and S. Grimme, Phys. Chem. Chem. Phys.
     2020, 22, 8499-8512. DOI: 10.1039/D0CP00502A
   
   for sTDA-xTB:
   * S. Grimme and C. Bannwarth, J. Chem. Phys., 2016, 145, 054103.
     DOI: 10.1063/1.4959605
   
   in the mass-spec context:
   * V. Asgeirsson, C. Bauer and S. Grimme, Chem. Sci., 2017, 8, 4879.
     DOI: 10.1039/c7sc00601b
   * J. Koopman and S. Grimme, ACS Omega 2019, 4, 12, 15120-15133.
     DOI: 10.1021/acsomega.9b02011
   
   for metadynamics refer to:
   * S. Grimme, J. Chem. Theory Comput., 2019, 155, 2847-2862
     DOI: 10.1021/acs.jctc.9b00143
   
   for SPH calculations refer to:
   * S. Spicher and S. Grimme, J. Chem. Theory Comput., 2021, 17, 1701-1714
     DOI: 10.1021/acs.jctc.0c01306
   
   with help from (in alphabetical order)
   P. Atkinson, C. Bannwarth, F. Bohle, G. Brandenburg, E. Caldeweyher
   M. Checinski, S. Dohm, S. Ehlert, S. Ehrlich, I. Gerasimov, C. Hölzer
   A. Katbashev, J. Koopman, C. Lavigne, S. Lehtola, F. März, M. Müller,
   F. Musil, H. Neugebauer, J. Pisarek, C. Plett, P. Pracht, F. Pultar,
   J. Seibert, P. Shushkov, S. Spicher, M. Stahn, M. Steiner, T. Strunk,
   J. Stückrath, T. Rose, and J. Unsleber
   
 * started run on 2022/11/17 at 06:48:47.983     

           -------------------------------------------------
          |                Calculation Setup                |
           -------------------------------------------------

          program call               : xtb solvent_cluster.coord --gfn2 --input xcontrol --opt 1
          hostname                   : cn0363
          coordinate file            : solvent_cluster.coord
          omp threads                :                     2

   ID    Z sym.   atoms
    1    8 o      1, 4, 7, 10, 13, 16, 19, 22, 25, 28, 31, 34, 37, 40, 43,
                  46, 49, 52, 55, 58, 61, 64, 67, 70, 73, 76, 79, 82, 85, 88,
                  91, 94, 97, 100, 103, 106, 109, 112, 115, 118, 121, 124,
                  127, 130, 133, 136, 139, 142, 145, 148, 151, 154, 157, 160,
                  163, 166, 169, 172, 175, 178, 181, 184, 187, 190, 193, 196,
                  199, 202, 205, 208, 211, 214, 217, 220, 223, 226, 229, 232,
                  235, 238, 241, 244, 247, 250, 253, 256, 259, 262, 265, 268,
                  271, 274, 277, 280, 283, 286, 289, 292, 295, 298, 301, 304,
                  307, 310, 313, 316, 319, 322, 325, 328, 331, 334, 337, 340,
                  343, 346, 349, 352, 355, 358, 361, 364, 367, 370, 373, 376,
                  379, 382, 385, 388, 391, 394, 397, 400, 403, 406, 409, 412,
                  415, 418, 421, 424, 427, 430, 433, 436, 439, 442, 445, 448,
                  451, 454, 457, 460, 463, 466, 469, 472, 475, 478, 481, 484,
                  487, 490, 493, 496, 499, 502, 505, 508, 511, 514, 517, 520,
                  523, 526, 529
    2    1 h      2, 3, 5, 6, 8, 9, 11, 12, 14, 15, 17, 18, 20, 21, 23, 24,
                  26, 27, 29, 30, 32, 33, 35, 36, 38, 39, 41, 42, 44, 45, 47,
                  48, 50, 51, 53, 54, 56, 57, 59, 60, 62, 63, 65, 66, 68, 69,
                  71, 72, 74, 75, 77, 78, 80, 81, 83, 84, 86, 87, 89, 90, 92,
                  93, 95, 96, 98, 99, 101, 102, 104, 105, 107, 108, 110, 111,
                  113, 114, 116, 117, 119, 120, 122, 123, 125, 126, 128, 129,
                  131, 132, 134, 135, 137, 138, 140, 141, 143, 144, 146, 147,
                  149, 150, 152, 153, 155, 156, 158, 159, 161, 162, 164, 165,
                  167, 168, 170, 171, 173, 174, 176, 177, 179, 180, 182, 183,
                  185, 186, 188, 189, 191, 192, 194, 195, 197, 198, 200, 201,
                  203, 204, 206, 207, 209, 210, 212, 213, 215, 216, 218, 219,
                  221, 222, 224, 225, 227, 228, 230, 231, 233, 234, 236, 237,
                  239, 240, 242, 243, 245, 246, 248, 249, 251, 252, 254, 255,
                  257, 258, 260, 261, 263, 264, 266, 267, 269, 270, 272, 273,
                  275, 276, 278, 279, 281, 282, 284, 285, 287, 288, 290, 291,
                  293, 294, 296, 297, 299, 300, 302, 303, 305, 306, 308, 309,
                  311, 312, 314, 315, 317, 318, 320, 321, 323, 324, 326, 327,
                  329, 330, 332, 333, 335, 336, 338, 339, 341, 342, 344, 345,
                  347, 348, 350, 351, 353, 354, 356, 357, 359, 360, 362, 363,
                  365, 366, 368, 369, 371, 372, 374, 375, 377, 378, 380, 381,
                  383, 384, 386, 387, 389, 390, 392, 393, 395, 396, 398, 399,
                  401, 402, 404, 405, 407, 408, 410, 411, 413, 414, 416, 417,
                  419, 420, 422, 423, 425, 426, 428, 429, 431, 432, 434, 435,
                  437, 438, 440, 441, 443, 444, 446, 447, 449, 450, 452, 453,
                  455, 456, 458, 459, 461, 462, 464, 465, 467, 468, 470, 471,
                  473, 474, 476, 477, 479, 480, 482, 483, 485, 486, 488, 489,
                  491, 492, 494, 495, 497, 498, 500, 501, 503, 504, 506, 507,
                  509, 510, 512, 513, 515, 516, 518, 519, 521, 522, 524, 525,
                  527, 528, 530, 531

molecular fragmentation (1/2 indicates fragments):
111222222222222222222222222222222222222222222222222222222222222222222222
222222222222222222222222222222222222222222222222222222222222222222222222
222222222222222222222222222222222222222222222222222222222222222222222222
222222222222222222222222222222222222222222222222222222222222222222222222
222222222222222222222222222222222222222222222222222222222222222222222222
222222222222222222222222222222222222222222222222222222222222222222222222
222222222222222222222222222222222222222222222222222222222222222222222222
222222222222222222222222222
# atoms in fragment 1/2:     3   528
 fragment masses (1/2) :       18.02     3170.69
CMA distance (Bohr)    :   6.626
constraining FC (au)   :  0.0500

           -------------------------------------------------
          |                 G F N 2 - x T B                 |
           -------------------------------------------------

        Reference                      10.1021/acs.jctc.8b01176
      * Hamiltonian:
        H0-scaling (s, p, d)           1.850000    2.230000    2.230000
        zeta-weighting                 0.500000
      * Dispersion:
        s8                             2.700000
        a1                             0.520000
        a2                             5.000000
        s9                             5.000000
      * Repulsion:
        kExp                           1.500000    1.000000
        rExp                           1.000000
      * Coulomb:
        alpha                          2.000000
        third order                    shell-resolved
        anisotropic                    true
        a3                             3.000000
        a5                             4.000000
        cn-shift                       1.200000
        cn-exp                         4.000000
        max-rad                        5.000000


          ...................................................
          :                      SETUP                      :
          :.................................................:
          :  # basis functions                1062          :
          :  # atomic orbitals                1062          :
          :  # shells                          708          :
          :  # electrons                      1416          :
          :  max. iterations                   250          :
          :  Hamiltonian                  GFN2-xTB          :
          :  restarted?                      false          :
          :  GBSA solvation                  false          :
          :  PC potential                    false          :
          :  electronic temp.          300.0000000     K    :
          :  accuracy                    1.0000000          :
          :  -> integral cutoff          0.2500000E+02      :
          :  -> integral neglect         0.1000000E-07      :
          :  -> SCF convergence          0.1000000E-05 Eh   :
          :  -> wf. convergence          0.1000000E-03 e    :
          :  Broyden damping             0.4000000          :
          ...................................................

 iter      E             dE          RMSdq      gap      omega  full diag
   1   -906.5470501 -0.906547E+03  0.406E+00    8.79       0.0  T
   2   -906.6052630 -0.582130E-01  0.241E+00    7.53       1.0  T
   3   -906.6281037 -0.228407E-01  0.215E-01    5.85       1.0  T
   4   -906.6321137 -0.401000E-02  0.467E-02    6.27       1.0  T
   5   -906.6321846 -0.709833E-04  0.314E-02    6.21       1.0  T
   6   -906.6322147 -0.300177E-04  0.423E-03    6.25       1.0  T
   7   -906.6322164 -0.169708E-05  0.760E-04    6.24       5.7  T
   8   -906.6322164 -0.213109E-07  0.389E-04    6.24      11.1  T
   9   -906.6322164 -0.104357E-07  0.645E-05    6.24      67.3  T

   *** convergence criteria satisfied after 9 iterations ***

         #    Occupation            Energy/Eh            Energy/eV
      -------------------------------------------------------------
         1        2.0000           -0.6921415             -18.8341
       ...           ...                  ...                  ...
       702        2.0000           -0.3427997              -9.3281
       703        2.0000           -0.3408314              -9.2745
       704        2.0000           -0.3376799              -9.1887
       705        2.0000           -0.3255727              -8.8593
       706        2.0000           -0.3237047              -8.8085
       707        2.0000           -0.3135670              -8.5326
       708        2.0000           -0.3077496              -8.3743 (HOMO)
       709                         -0.0782648              -2.1297 (LUMO)
       710                         -0.0633800              -1.7247
       711                         -0.0537914              -1.4637
       712                         -0.0447151              -1.2168
       713                         -0.0387631              -1.0548
       ...                                ...                  ...
      1062                          0.4840721              13.1723
      -------------------------------------------------------------
                  HL-Gap            0.2294848 Eh            6.2446 eV
             Fermi-level           -0.1930072 Eh           -5.2520 eV

 SCC (total)                   0 d,  0 h,  0 min,  8.494 sec
 SCC setup                      ...        0 min,  0.026 sec (  0.311%)
 Dispersion                     ...        0 min,  0.072 sec (  0.848%)
 classical contributions        ...        0 min,  0.017 sec (  0.198%)
 integral evaluation            ...        0 min,  0.457 sec (  5.383%)
 iterations                     ...        0 min,  3.101 sec ( 36.506%)
 molecular gradient             ...        0 min,  4.790 sec ( 56.393%)
 printout                       ...        0 min,  0.031 sec (  0.361%)

         :::::::::::::::::::::::::::::::::::::::::::::::::::::
         ::                     SUMMARY                     ::
         :::::::::::::::::::::::::::::::::::::::::::::::::::::
         :: total energy            -901.176398892887 Eh    ::
         :: gradient norm              0.105532191314 Eh/a0 ::
         :: HOMO-LUMO gap              6.244599906785 eV    ::
         ::.................................................::
         :: SCC energy              -906.632216395961 Eh    ::
         :: -> isotropic ES            5.101805957490 Eh    ::
         :: -> anisotropic ES         -1.106979120376 Eh    ::
         :: -> anisotropic XC         -0.093805944248 Eh    ::
         :: -> dispersion             -0.529515357411 Eh    ::
         :: repulsion energy           5.362041280999 Eh    ::
         :: add. restraining           0.000000000000 Eh    ::
         :: total charge              -0.000000000000 e     ::
         :::::::::::::::::::::::::::::::::::::::::::::::::::::

      ----------------------------------------------------------- 
     |                       L-ANC optimizer                     |
      ----------------------------------------------------------- 
          low memory version by Sebastian Ehlert

          ...................................................
          :                      SETUP                      :
          :.................................................:
          :   energy convergence        0.1000000E-05 Eh    :
          :   grad. convergence         0.8000000E-03 Eh/a0 :
          :   optimization log               true           :
          :   writing optlog all                1     steps :
          :   Hessian reset                    20     steps :
          :   maximium step len.        1.0000000     a0    :
          :   LBFGS images                     20           :
          ...................................................
 * calculating model hessian...
Using Lindh-Hessian (1995)
 Shifting diagonal of input Hessian by   1.000006219527648E-002
 Lowest  eigenvalues of input Hessian
    0.010000   -0.000000   -0.000000   -0.000000   -0.000000   -0.000000
   -0.000000   -0.000000   -0.000000   -0.000000   -0.000000   -0.000000
   -0.000000   -0.000000   -0.000000   -0.000000   -0.000000   -0.000000
 Highest eigenvalues
    0.300643    0.334402    1.230216    1.259605    1.376968    1.458875
 

........................................................................
.............................. CYCLE    1 ..............................
........................................................................
   1   -906.6311252 -0.906631E+03  0.463E-02    6.25       0.0  T
   2   -906.6311629 -0.376864E-04  0.285E-02    6.24       1.0  T
   3   -906.6311735 -0.105982E-04  0.385E-03    6.22       1.1  T
   4   -906.6311747 -0.119970E-05  0.871E-04    6.23       5.0  T
   5   -906.6311747 -0.119024E-07  0.137E-04    6.23      31.7  T
   6   -906.6311747 -0.555929E-09  0.511E-05    6.23      84.9  T
     SCC iter.                  ...        0 min,  1.708 sec
     gradient                   ...        0 min,  4.830 sec
 * total energy  :  -901.1827975 Eh     change       -0.6398599E-02 Eh
   gradient norm :     0.0320393 Eh/a0  converged?    E=F G=F D=F
   step length   :     0.5095756 a0

........................................................................
.............................. CYCLE    2 ..............................
........................................................................
   1   -906.6357430 -0.906636E+03  0.232E-02    6.27       0.0  T
   2   -906.6357834 -0.403965E-04  0.132E-02    6.26       1.0  T
   3   -906.6357893 -0.592242E-05  0.419E-03    6.25       1.0  T
   4   -906.6357898 -0.490990E-06  0.581E-04    6.25       7.5  T
   5   -906.6357898 -0.119253E-07  0.133E-04    6.25      32.7  T
     SCC iter.                  ...        0 min,  1.407 sec
     gradient                   ...        0 min,  4.841 sec
 * total energy  :  -901.1869456 Eh     change       -0.4148143E-02 Eh
   gradient norm :     0.0268193 Eh/a0  converged?    E=F G=F D=F
   step length   :     0.7171957 a0

........................................................................
.............................. CYCLE    3 ..............................
........................................................................
   1   -906.6393381 -0.906639E+03  0.171E-02    6.27       0.0  T
   2   -906.6393514 -0.133093E-04  0.101E-02    6.27       1.0  T
   3   -906.6393539 -0.252991E-05  0.234E-03    6.27       1.9  T
   4   -906.6393542 -0.287043E-06  0.430E-04    6.27      10.1  T
   5   -906.6393542 -0.641035E-08  0.897E-05    6.27      48.4  T
     SCC iter.                  ...        0 min,  1.400 sec
     gradient                   ...        0 min,  4.866 sec
 * total energy  :  -901.1885248 Eh     change       -0.1579211E-02 Eh
   gradient norm :     0.0165507 Eh/a0  converged?    E=F G=F D=F
   step length   :     0.5261746 a0

........................................................................
.............................. CYCLE    4 ..............................
........................................................................
   1   -906.6406718 -0.906641E+03  0.103E-02    6.29       0.0  T
   2   -906.6406747 -0.292905E-05  0.618E-03    6.29       1.0  T
   3   -906.6406754 -0.620750E-06  0.114E-03    6.29       3.8  T
   4   -906.6406754 -0.894312E-07  0.250E-04    6.29      17.4  T
   5   -906.6406754 -0.177658E-08  0.464E-05    6.29      93.6  T
     SCC iter.                  ...        0 min,  1.400 sec
     gradient                   ...        0 min,  4.885 sec
 * total energy  :  -901.1890808 Eh     change       -0.5559551E-03 Eh
   gradient norm :     0.0103841 Eh/a0  converged?    E=F G=F D=F
   step length   :     0.2173860 a0

........................................................................
.............................. CYCLE    5 ..............................
........................................................................
   1   -906.6368353 -0.906637E+03  0.209E-02    6.26       0.0  T
   2   -906.6368441 -0.882813E-05  0.125E-02    6.28       1.0  T
   3   -906.6368460 -0.183285E-05  0.208E-03    6.28       2.1  T
   4   -906.6368462 -0.282142E-06  0.418E-04    6.27      10.4  T
   5   -906.6368462 -0.166176E-08  0.470E-05    6.27      92.2  T
     SCC iter.                  ...        0 min,  1.397 sec
     gradient                   ...        0 min,  4.829 sec
 * total energy  :  -901.1891050 Eh     change       -0.2418990E-04 Eh
   gradient norm :     0.0302802 Eh/a0  converged?    E=F G=F D=F
   step length   :     0.2647457 a0

........................................................................
.............................. CYCLE    6 ..............................
........................................................................
   1   -906.6441616 -0.906644E+03  0.141E-02    6.31       0.0  T
   2   -906.6441646 -0.302855E-05  0.835E-03    6.31       1.0  T
   3   -906.6441656 -0.905990E-06  0.123E-03    6.32       3.5  T
   4   -906.6441656 -0.858224E-07  0.327E-04    6.32      13.3  T
   5   -906.6441656 -0.162595E-08  0.423E-05    6.32     102.6  T
     SCC iter.                  ...        0 min,  1.363 sec
     gradient                   ...        0 min,  4.922 sec
 * total energy  :  -901.1895196 Eh     change       -0.4146448E-03 Eh
   gradient norm :     0.0122212 Eh/a0  converged?    E=F G=F D=F
   step length   :     0.1040303 a0

........................................................................
.............................. CYCLE    7 ..............................
........................................................................
   1   -906.6427267 -0.906643E+03  0.716E-03    6.32       0.0  T
   2   -906.6427309 -0.417566E-05  0.405E-03    6.32       1.1  T
   3   -906.6427315 -0.619714E-06  0.138E-03    6.31       3.1  T
   4   -906.6427316 -0.590235E-07  0.208E-04    6.31      20.8  T
   5   -906.6427316 -0.120940E-08  0.404E-05    6.31     107.3  T
     SCC iter.                  ...        0 min,  1.345 sec
     gradient                   ...        0 min,  4.950 sec
 * total energy  :  -901.1897674 Eh     change       -0.2477290E-03 Eh
   gradient norm :     0.0056341 Eh/a0  converged?    E=F G=F D=F
   step length   :     0.0984879 a0

........................................................................
.............................. CYCLE    8 ..............................
........................................................................
   1   -906.6417462 -0.906642E+03  0.797E-03    6.31       0.0  T
   2   -906.6417466 -0.389558E-06  0.484E-03    6.31       1.0  T
   3   -906.6417467 -0.114642E-06  0.386E-04    6.31      11.3  T
   4   -906.6417467 -0.131578E-07  0.108E-04    6.31      40.2  T
     SCC iter.                  ...        0 min,  1.069 sec
     gradient                   ...        0 min,  4.960 sec
 * total energy  :  -901.1899348 Eh     change       -0.1674677E-03 Eh
   gradient norm :     0.0099645 Eh/a0  converged?    E=F G=F D=F
   step length   :     0.0961235 a0

........................................................................
.............................. CYCLE    9 ..............................
........................................................................
   1   -906.6414025 -0.906641E+03  0.114E-02    6.31       0.0  T
   2   -906.6414035 -0.101644E-05  0.705E-03    6.31       1.0  T
   3   -906.6414040 -0.456570E-06  0.630E-04    6.31       6.9  T
   4   -906.6414040 -0.249327E-07  0.197E-04    6.31      22.0  T
     SCC iter.                  ...        0 min,  1.078 sec
     gradient                   ...        0 min,  4.968 sec
 * total energy  :  -901.1900994 Eh     change       -0.1645304E-03 Eh
   gradient norm :     0.0107631 Eh/a0  converged?    E=F G=F D=F
   step length   :     0.1280155 a0

........................................................................
.............................. CYCLE   10 ..............................
........................................................................
   1   -906.6428779 -0.906643E+03  0.483E-03    6.32       0.0  T
   2   -906.6428784 -0.522732E-06  0.279E-03    6.31       1.6  T
   3   -906.6428785 -0.869539E-07  0.497E-04    6.31       8.7  T
   4   -906.6428785 -0.141648E-07  0.945E-05    6.31      45.9  T
     SCC iter.                  ...        0 min,  1.072 sec
     gradient                   ...        0 min,  4.971 sec
 * total energy  :  -901.1901950 Eh     change       -0.9565260E-04 Eh
   gradient norm :     0.0056329 Eh/a0  converged?    E=F G=F D=F
   step length   :     0.0579319 a0

........................................................................
.............................. CYCLE   11 ..............................
........................................................................
   1   -906.6434028 -0.906643E+03  0.327E-03    6.31       0.0  T
   2   -906.6434029 -0.116415E-06  0.198E-03    6.31       2.2  T
   3   -906.6434030 -0.370962E-07  0.230E-04    6.31      18.8  T
   4   -906.6434030 -0.389593E-08  0.650E-05    6.31      66.7  T
     SCC iter.                  ...        0 min,  1.052 sec
     gradient                   ...        0 min,  4.979 sec
 * total energy  :  -901.1902271 Eh     change       -0.3208936E-04 Eh
   gradient norm :     0.0027327 Eh/a0  converged?    E=F G=F D=F
   step length   :     0.0411524 a0

........................................................................
.............................. CYCLE   12 ..............................
........................................................................
   1   -906.6433779 -0.906643E+03  0.370E-03    6.31       0.0  T
   2   -906.6433780 -0.841999E-07  0.224E-03    6.30       1.9  T
   3   -906.6433780 -0.204556E-07  0.172E-04    6.30      25.2  T
   4   -906.6433780 -0.301713E-08  0.415E-05    6.30     104.5  T
     SCC iter.                  ...        0 min,  1.060 sec
     gradient                   ...        0 min,  4.961 sec
 * total energy  :  -901.1902437 Eh     change       -0.1663481E-04 Eh
   gradient norm :     0.0035558 Eh/a0  converged?    E=F G=F D=F
   step length   :     0.0528367 a0

........................................................................
.............................. CYCLE   13 ..............................
........................................................................
   1   -906.6436067 -0.906644E+03  0.249E-03    6.30       0.0  T
   2   -906.6436067 -0.655479E-07  0.149E-03    6.30       2.9  T
   3   -906.6436067 -0.121731E-07  0.154E-04    6.30      28.1  T
   4   -906.6436067 -0.242619E-08  0.325E-05    6.30     133.4  T
     SCC iter.                  ...        0 min,  1.056 sec
     gradient                   ...        0 min,  4.979 sec
 * total energy  :  -901.1902600 Eh     change       -0.1623370E-04 Eh
   gradient norm :     0.0022333 Eh/a0  converged?    E=F G=F D=F
   step length   :     0.0373988 a0

........................................................................
.............................. CYCLE   14 ..............................
........................................................................
   1   -906.6434428 -0.906643E+03  0.309E-03    6.30       0.0  T
   2   -906.6434428 -0.611852E-07  0.186E-03    6.30       2.3  T
   3   -906.6434429 -0.113290E-07  0.147E-04    6.30      29.6  T
   4   -906.6434429 -0.249008E-08  0.309E-05    6.30     140.6  T
     SCC iter.                  ...        0 min,  0.997 sec
     gradient                   ...        0 min,  4.846 sec
 * total energy  :  -901.1902743 Eh     change       -0.1435557E-04 Eh
   gradient norm :     0.0016696 Eh/a0  converged?    E=F G=F D=F
   step length   :     0.0474121 a0

........................................................................
.............................. CYCLE   15 ..............................
........................................................................
   1   -906.6433450 -0.906643E+03  0.364E-03    6.30       0.0  T
   2   -906.6433451 -0.121297E-06  0.219E-03    6.30       2.0  T
   3   -906.6433451 -0.270535E-07  0.217E-04    6.30      20.0  T
   4   -906.6433451 -0.468538E-08  0.532E-05    6.30      81.5  T
     SCC iter.                  ...        0 min,  0.989 sec
     gradient                   ...        0 min,  4.847 sec
 * total energy  :  -901.1902816 Eh     change       -0.7244971E-05 Eh
   gradient norm :     0.0010808 Eh/a0  converged?    E=F G=F D=F
   step length   :     0.0528484 a0

........................................................................
.............................. CYCLE   16 ..............................
........................................................................
   1   -906.6434074 -0.906643E+03  0.104E-03    6.30       0.0  T
   2   -906.6434074 -0.761145E-08  0.623E-04    6.31       7.0  T
   3   -906.6434074 -0.138232E-08  0.510E-05    6.31      85.1  T
     SCC iter.                  ...        0 min,  0.737 sec
     gradient                   ...        0 min,  4.814 sec
 * total energy  :  -901.1902839 Eh     change       -0.2310423E-05 Eh
   gradient norm :     0.0004293 Eh/a0  converged?    E=F G=T D=F
   step length   :     0.0152231 a0

........................................................................
.............................. CYCLE   17 ..............................
........................................................................
   1   -906.6433792 -0.906643E+03  0.320E-04    6.31       0.0  T
   2   -906.6433792 -0.145394E-08  0.194E-04    6.31      22.4  T
   3   -906.6433792 -0.447926E-09  0.235E-05    6.31     184.6  T
     SCC iter.                  ...        0 min,  0.738 sec
     gradient                   ...        0 min,  4.809 sec
 * total energy  :  -901.1902844 Eh     change       -0.5063021E-06 Eh
   gradient norm :     0.0001852 Eh/a0  converged?    E=T G=T D=F
   step length   :     0.0064711 a0

   *** GEOMETRY OPTIMIZATION CONVERGED AFTER 17 CYCLES ***

------------------------------------------------------------------------
 total energy gain   :        -0.0138855 Eh       -8.7133 kcal/mol
 total RMSD          :         0.0873251 a0        0.0462 Å
 total power (kW/mol):        -2.1444923 (step)   -0.3154 (real)
------------------------------------------------------------------------

 L-ANCopt (total)              0 d,  0 h,  1 min, 55.582 sec
 setup                          ...        0 min,  0.019 sec (  0.017%)
 model hessian                  ...        0 min,  3.935 sec (  3.405%)
 ANC generation                 ...        0 min,  1.011 sec (  0.875%)
 coordinate transformation      ...        0 min,  0.001 sec (  0.001%)
 Rational function              ...        0 min,  0.000 sec (  0.000%)
 singlepoint calculation        ...        1 min, 50.526 sec ( 95.626%)
 optimization log               ...        0 min,  0.084 sec (  0.073%)
 hessian update                 ...        0 min,  0.000 sec (  0.000%)

================
 final structure:
================
$coord
       -1.71793270500700       -5.02723885036200       -3.86811140165000      o
       -0.64590410687700       -6.51009056454900       -3.73900060331400      h
       -0.82317927474800       -3.81131709023200       -4.95031283203700      h
        7.39557066378900       -7.98836866232700        3.61401615179000      o
        7.67057799913800       -6.96793887666300        5.11892144080400      h
        5.76902546908400       -7.51606477383400        2.91069784385700      h
        4.79227141223000       -1.95232963015100        5.13942102349600      o
        3.42647893600000       -3.10502607727300        5.61492736895000      h
        4.08482418783500       -0.27675391493600        5.50203766427900      h
        3.25487764251200       -5.95314986210900       -8.88281752262000      o
        2.04052497739600       -7.22173006735000       -9.36546320301100      h
        2.89788618127700       -4.40528698039700       -9.82034426120300      h
       -8.02359558005200       -2.26461891673100        6.41909447488400      o
       -8.86564276363700       -1.67089189773600        7.95227631210000      h
       -9.29913241453300       -2.98520271732800        5.30599816496300      h
        9.56743511106300       -9.94667018552500       -6.18612375671600      o
        9.08481193711900       -8.72412956293700       -7.45902322201100      h
       11.21514984865400       -9.40223109133600       -5.60744912111300      h
       -3.28830370129700       -4.97744463093500        4.12486750791200      o
       -3.11232010857800       -3.42739164604300        3.15915250402100      h
       -1.94426116912100       -4.89415575775100        5.38204370157600      h
        7.58988279126000      -12.70059092335100        1.54115732788700      o
        9.29438714259900      -12.93216942976700        0.89469493908300      h
        7.64728751458400      -11.16248140556900        2.55698891728600      h
       -6.34116905514800       -4.32238423642800       -0.69890892722800      o
       -5.45099610478300       -5.89430348915600       -1.10933755808000      h
       -7.61269960258700       -4.14369781838300       -2.03678940058800      h
       -0.74748324975300        6.55348500595100        6.69656246717800      o
       -1.96603992904000        5.19495664401800        6.54734068051200      h
       -0.71508683649800        7.37281520713900        5.04704534450300      h
       -3.29454950804200       -0.26040406158000       -2.44516051861300      o
       -3.50938523303100       -2.05631697288000       -2.66530880351900      h
       -4.97905172928300        0.46501469564300       -2.27628542333800      h
        6.78528048427500        7.08528651665800        4.43110584494900      o
        7.85029307929800        7.14847065197000        2.89590817507900      h
        7.73209843011800        7.90610437701000        5.80813352826200      h
        2.90810148701400        4.98392258371000        1.74563398699300      o
        1.49934748745600        6.17792507561600        1.76637194840900      h
        4.32615944230100        5.79511247724400        2.55805429999000      h
       -7.90451322303600        3.06991818677200        5.82884520188900      o
       -8.68517955968100        3.20955408476900        7.48181488165200      h
       -7.31007329169800        4.78398350394000        5.43038076825100      h
       -2.20409608870900        8.48930447181300       -5.56261936331100      o
       -2.28634296851700        8.40472213677500       -7.42753933870900      h
       -3.58097831395900        7.40061771777600       -4.95592087611600      h
       -4.44537779533500       12.85799764581700       -5.03282785394100      o
       -3.57089209029900       11.21039562792200       -5.31487389424100      h
       -5.63216792214400       12.99647326833400       -6.39605078835000      h
       -6.53122635277300        6.42367305579200       -4.05820020384100      o
       -7.55539920177200        7.17978081125400       -5.39871901921900      h
       -6.69533096093400        7.59441797895900       -2.64360823573600      h
        0.19452747138100       -1.61261570140000       -6.92541015991500      o
       -0.53574544170700       -2.29533873507700       -8.46375964114600      h
       -0.63905790793100        0.01635279962700       -6.71515650181200      h
        7.58248238520300        2.63212214655600        6.90662570761300      o
        6.98325538610600        4.22861087511600        6.21421085686900      h
        6.25450803895100        1.95331381700000        7.98671267658000      h
        9.78870060591800       -7.42248521298900       -1.14772723491600      o
        9.02694488705000       -7.36803079293300        0.52015384920400      h
       10.97602448960100       -6.02196783663800       -1.21285693550000      h
       -9.25857381305500        9.67318464497100       -6.95561832683400      o
       -9.95238312243400       10.88789706137400       -5.79447301571500      h
      -10.72366196782500        9.00808095873200       -7.84948490020100      h
        2.12496831043000        4.09109958976700       -7.07285726034400      o
        3.47676315683000        2.85300733293000       -7.18206666741500      h
        2.51980597938000        5.21533603371400       -5.68446604848400      h
        9.12617411885800        9.02156322476900        8.41635471278600      o
       10.56353839902300        9.80609015266500        7.61391541635800      h
        9.76512516089600        7.56738998686400        9.39323156932300      h
       14.85567984327200       -0.93142086528800        2.85583806038800      o
       13.68909344687300       -0.85211286403300        4.31808047118300      h
       16.50233072808200       -1.42170015468900        3.45020673091700      h
       -7.97689998168100        1.68785164615700       -2.46938173552700      o
       -7.56104354125100        3.39960867120400       -3.00792310841200      h
       -8.18459309513800        0.71715232113300       -4.01333176561700      h
        3.71932471493600       -4.60884211672300       -3.94638322723800      o
        5.47601382776700       -4.04755160095100       -3.86394338411300      h
        3.46565414394400       -5.23762669185700       -5.65120863224500      h
       -5.92195996196100       -3.62018298802200       12.19999236985400      o
       -7.48447504962700       -2.65314769213600       12.14174419588600      h
       -6.10418693123700       -4.86993603013100       10.83724838459600      h
      -10.47957831105600        4.08101471877300       -7.18162888821000      o
      -11.56832078215200        4.16628627409300       -8.65898587838000      h
      -10.81358796653500        2.39888661050900       -6.47205377910600      h
      -13.85330051068300        8.06657661064300       -8.90117307629600      o
      -14.75593901181600        6.77413856124500       -7.94708761351500      h
      -13.68561719129800        7.37961948327100      -10.57188984141200      h
        9.10152096312700       -0.28774683024000       12.59115887198200      o
        7.46125370353200        0.17357718999500       11.88816512618100      h
       10.07541264679400        1.25119356130300       12.52935107869100      h
        8.35263610741700       -6.14496064362300       -9.57048993960900      o
        6.52221768562000       -6.06217201736900       -9.39141992798400      h
        8.82717415691700       -4.94687012722400      -10.87850613743300      h
      -17.72039501319500      -10.17532703540600       -2.71910824210400      o
      -16.61324750954000      -10.83579200493200       -1.41089139790300      h
      -19.06096471756900       -9.30057234243200       -1.86943498101200      h
       -1.09530897680700        4.09739516433500       -2.59145055552800      o
       -2.40482545791900        4.26978205337100       -1.30035752802400      h
       -0.13405323218200        5.64757801591900       -2.71160377942200      h
        0.97599148194700       -9.33549769088700       -4.08652706939800      o
        2.74277137059900       -9.69634166177100       -3.76451466773200      h
        0.72241517634400       -9.52943799153400       -5.89392515033600      h
        2.31028738857800        2.27888017977200        5.99631986548300      o
        2.35009208388900        3.22374931247000        4.41065450677200      h
        0.56296987194800        1.88348388572100        6.29730389586300      h
        4.47432260354500      -12.55940272887000       -7.77615406508600      o
        6.06177085047100      -12.21311529939900       -8.57747797741700      h
        4.79704033880800      -12.37567963785900       -5.97835622301700      h
        8.28514470198500       -4.50120511055200        7.37364254408800      o
        7.85924629849000       -4.70773837919600        9.13994553375200      h
        7.02049122915800       -3.33001902632800        6.68197368628400      h
      -10.20047103460200       -4.68869360505000        2.61268591416800      o
      -11.65502119875700       -4.54796361412100        1.48196728351500      h
       -8.69310329907200       -4.66270655337700        1.54652882079600      h
        8.73412453532100       -2.91861641409200        1.67845825971400      o
        7.27442919712800       -2.98766360973300        2.77495085862200      h
        9.19490057414800       -1.11622009834700        1.68381428880700      h
        4.91927147644300       10.01021010445500       -8.08555687332400      o
        3.94859664718000        9.24220764210500       -9.45508437588600      h
        3.64486883827900       10.82067066676300       -7.00687205361000      h
        5.76375128534400      -10.92013552982200       -2.90583239423400      o
        7.23624231415400      -10.25982626275400       -3.81615509744300      h
        6.42077270421600      -11.83946840346100       -1.44180179964600      h
        1.28177770583000       -3.28303714297900       11.42468724128500      o
        0.43077240866300       -4.65409185175500       12.37899211976700      h
       -0.07380964064900       -2.01847780874000       11.22742597178100      h
        6.22317000186300       -4.97596484588200       12.12264540789200      o
        4.53220601769600       -4.27166715705100       12.07157586816900      h
        7.26981607713100       -3.79539956497800       13.03073191278100      h
       -2.58054892664900       -0.23489399544500       10.73908236665300      o
       -3.93302889432600       -1.42639181963300       11.24293704400700      h
       -2.87906918165800        0.27404966929200        8.97687081357200      h
        7.21553240798700        5.51811991127500       -7.20711662421000      o
        6.30158946096800        7.11498276135300       -7.23044809181700      h
        8.97231443505300        5.89784918951400       -6.75152061485000      h
        1.41245465819900       12.01215465400000       -5.12380399698200      o
        0.29877770805900       10.54515185422000       -5.01514277408700      h
        0.40802444213100       13.36390066043300       -5.78456915949100      h
       -4.50470695358300       -8.84491644727900       -1.86770782705200      o
       -3.05254244201600       -9.05489100344200       -0.75121010661000      h
       -4.03888442466300       -9.51915875523400       -3.49174032251500      h
      -10.73396581705000        1.54830647976100        1.88916926626800      o
       -9.70851533510700        1.10508763415100        0.42446321408400      h
       -9.57092082660500        1.72628430896700        3.31679966501200      h
       19.63126619499900        4.94548455955900       -1.39290500748300      o
       18.00795111263900        4.61788387751200       -0.55043487790800      h
       20.95015732346500        4.62610633041900       -0.17469049614900      h
       -6.11968248503300        4.57708393497500      -10.08740187418500      o
       -4.87538670255800        4.00343719361600       -8.83057767901800      h
       -7.71432526522400        4.60336230774500       -9.17174408212500      h
      -17.20905328471600        8.43095647212800       -2.82245648121800      o
      -17.87437256412000        9.18324897766800       -4.32745026572000      h
      -15.75418349363700        7.44148415825700       -3.37105439243600      h
        2.20498334735700        5.32055557867300       10.65044308839000      o
        0.73005117925900        5.13424400077200       11.72585890368800      h
        1.52364759419200        5.43804706139500        8.93709614468300      h
      -19.55094531764300        2.21823031303300       -3.18902381708500      o
      -20.27626279198000        3.16118392124400       -1.82127161000800      h
      -18.11678297722000        1.26268928487200       -2.49217532004300      h
       -3.02054937659300        1.72725236946100        6.17128739866900      o
       -4.83836283611300        2.09404132804200        6.04113767095700      h
       -2.60783919286300        0.79756799772500        4.63981912147900      h
       12.41291425334500       -4.08505010306000       11.14571118418800      o
       11.19174423235800       -2.81897801069500       11.66748170698000      h
       13.91851095831300       -3.12319485478300       10.77317885428400      h
       19.04046801727600        5.10685505042300        5.14771087385700      o
       18.18670093590200        6.44301420832000        4.22187798375900      h
       20.44467624893800        4.59408257490100        4.08676409526700      h
      -19.02841597558400        2.68654017143500        7.91342995558800      o
      -17.20950739549900        2.35339306927100        8.29928952975000      h
      -19.97184167059600        1.92762453643600        9.25479537915100      h
       -5.55206723886800        0.42298570709600      -12.92328321591100      o
       -5.82286521476800        1.94775860776800      -11.87377538785400      h
       -4.72610436756100        1.01694019391500      -14.41863903411100      h
       -1.05069460373300       -8.92365236518300        1.85899002595100      o
       -1.75417907300100       -7.43425907190300        2.69405327980300      h
        0.66257726210700       -8.46752028157800        1.34238051650200      h
        7.35979622253600       11.14208351110900       -3.08223438021500      o
        5.86072372781100       11.47709646196800       -2.05312882719100      h
        6.75646840077700       11.01533264770300       -4.79168087230400      h
       -9.27815192380000        6.25078550465300        0.66599100157900      o
       -9.72581926177300        7.60067636655400        1.83796842177200      h
      -10.05767439250900        4.68078944170800        1.26477451771100      h
      -14.19637549731400       -1.15152154270600        4.32594743508100      o
      -12.90277319947600       -0.32296342042400        3.29036843419900      h
      -15.82839302788600       -0.58579706278400        3.69867832397000      h
      -11.79712608984700       11.54443377083100       -2.50428604471800      o
      -13.02837444677800       12.15938737031100       -1.32453140371100      h
      -12.25631396179000        9.78317314712300       -2.87664437810500      h
      -14.67816838028900        4.45285694230300        0.88386825257800      o
      -13.96477824236100        5.15573028421500       -0.65677418848300      h
      -16.48374539450200        4.79455799366700        0.83958748378600      h
       15.18972805350700        3.50078602886300        0.56547607242200      o
       14.15526664316600        4.49052935967100        1.74908805321700      h
       15.36922274910300        1.85667434556800        1.40915100887000      h
        8.88727400871300        1.96009641854200        1.94800935437000      o
       10.20661588254900        3.15727945962800        2.37868392001600      h
        7.83325732118600        1.90996186873200        3.43352949501300      h
        8.16900441167900       -2.40898739035000       -3.57859622312600      o
        9.66141374669000       -2.89706039919400       -4.56784734740900      h
        8.58005689397900       -2.74992618333600       -1.82184742481200      h
       -1.42090362329600       10.69917623104200        9.54719616598800      o
       -1.16442129372700        9.15622218706100        8.53680547988800      h
        0.20721418187900       11.06543416094600       10.26798217255200      h
      -10.07167046860600       -0.92263234572900       10.84952096826700      o
      -11.75802142612900       -1.66303142863700       11.05149737027600      h
      -10.28155789857600        0.88785263486200       10.93356141777500      h
       -4.56134314558400        4.49306391907300        1.04721895835100      o
       -6.19764558628200        5.31262557824200        0.83046567779600      h
       -4.96137682768200        2.77255529026300        1.57246146971600      h
       11.95359954148400       -3.94934954669100       -6.54000841551700      o
       10.79126088751400       -4.68623179650600       -7.75278248256500      h
       12.79168267113400       -5.36351542827100       -5.70885119080900      h
       -6.34490621516900       -6.63307467463700        8.18487777725000      o
       -6.50550135846700       -5.09739737493600        7.15503946031200      h
       -7.88893469288500       -7.57505043867500        7.86316809872000      h
        6.44586381981000       -0.07700945463900      -14.58622123520600      o
        6.53353533502200        1.64660176573000      -13.94325346255400      h
        7.97940412386600       -0.91074795938900      -14.01054906422100      h
        3.02081686597800       -1.51487093889900      -11.37008621081000      o
        4.26086391977600       -1.15215902512500      -12.72164749860900      h
        1.83043128346100       -0.09168386940900      -11.40468106944000      h
      -15.85950733824000       -0.96351503823100       -8.68744239331100      o
      -15.27467181337300       -2.41420333405900       -9.61926317279800      h
      -17.15885763817600       -1.61843091216700       -7.52077980221600      h
       11.90360090095300        1.48583256053000       -2.61500634721200      o
       13.03314606338100        2.33608333339900       -1.40440938618600      h
       12.04386745549100       -0.31134561602300       -2.20886147375300      h
       11.76422155744200      -12.02952377167500       -1.21254116305000      o
       11.02858176332100      -10.30706659957400       -1.36244424751000      h
       11.81057070611800      -12.70114177015100       -2.89160474072500      h
      -19.57439952672900       -3.45706400894900       -0.21857566612000      o
      -19.22452331114900       -4.91524364992600        0.81795363787900      h
      -19.53365243661500       -2.02326531416000        0.91016046418900      h
       -2.26168308366100        4.15014512339400       13.02638580161200      o
       -2.44165069375800        2.47486795199800       12.20293903351000      h
       -2.52272507741500        3.89237909221600       14.79612036031200      h
       10.51950041730800        1.38622855600400       -8.88120069199500      o
        8.76675736104000        1.33419594164000       -8.32051142371500      h
       10.78942163935800        2.97745051459700       -9.75674262571300      h
       -1.66037188899600       12.80363920380900       -0.41009917300700      o
       -2.00561091759700       13.85439780594500        1.03289006938800      h
       -2.61066279775500       13.40602631299800       -1.84084049870200      h
       10.48354969372600       -2.23785932543700      -12.20367053263000      o
       12.13850737085700       -2.41209632949800      -12.90585522684800      h
       10.61122483985800       -0.92039289348900      -10.85001451574100      h
        3.55553393923200       -7.38875775274200        0.30678648228400      o
        3.44451191836900       -6.20611066677400       -1.11233100322600      h
        4.35792803719500       -8.85471441252000       -0.44456433483200      h
      -14.13707354960800       -4.63520244520700       -0.49177785851900      o
      -14.08614592906000       -5.42851800623500       -2.15948443948600      h
      -15.42274271290500       -5.52790385569500        0.49448881420200      h
      -16.16023761886500        4.13929829543300       -6.44547037093000      o
      -17.56855732803000        3.72491683769600       -5.33133108308500      h
      -15.86680101427600        2.60414048007300       -7.37777745702800      h
        2.21775841822800        6.81599116107100      -11.17275385435100      o
        3.70571320014800        6.16509145971200      -12.03314422071000      h
        2.12608373175400        5.83581924627700       -9.56191890690800      h
       11.66852110500700       -0.74315514578200        6.59710661338700      o
       10.80070877063000       -2.30689139155400        7.03479237278600      h
       10.38989088835800        0.55562251616800        6.56947578208500      h
       22.83108159220600        2.98341861817700        2.23493477006200      o
       22.03833309352700        1.31641740066500        2.08078740345000      h
       24.52094348517500        2.71786446794800        2.82088948890200      h
        3.30609492743500       11.42415825200000       -0.12033356081900      o
        3.27438639918100       11.25277422276200        1.70660723988800      h
        1.69985750691600       12.16529784537600       -0.59843787070500      h
       12.18654511363500        5.20196550773900        4.10881212715000      o
       12.15326893033900        7.02869646326100        4.31082651529700      h
       13.06550134278300        4.48421785263400        5.57339098414800      h
       -3.63595597002800      -12.13466153704300       -6.08315735959600      o
       -2.97256428724800      -13.30314581507100       -4.85419344531200      h
       -5.46987301287300      -12.14247925487200       -5.91556377932800      h
       12.42233469593900       -5.90424098042300        3.64858193528600      o
       11.07719825073400       -4.76397344795200        3.08485820668100      h
       11.79887462416700       -6.85319893715800        5.11368372726400      h
        2.58994141811800      -13.37195575505300        2.44473569971600      o
        2.62950813570500      -11.92471836847300        3.57569222248900      h
        4.33645655767600      -13.70442535512600        2.04103135610900      h
      -14.11669881128300      -11.01947119212900        0.97944085749300      o
      -13.29078013272900      -12.20894619489100        2.09127698646800      h
      -12.71536898732200      -10.14666155817100        0.13081344311700      h
      -14.45946589352700       -3.45337730593300       11.31399009076800      o
      -14.51865518427600       -4.78136087537100       12.53898350148300      h
      -14.84804048855000       -4.23052281857300        9.67227239507600      h
       -6.43849824556000      -12.22100331068600        6.98740919706200      o
       -4.91391718967700      -13.02205597156600        6.38049455280800      h
       -6.66370925122500      -10.77394189897700        5.86821981900700      h
       -5.72506562489100       -5.58573596832200       -6.71454399401100      o
       -5.24370334318600       -6.48244394042900       -8.24242602280400      h
       -4.25925123237500       -5.60394402435200       -5.56337699979800      h
       15.20414190965000       -8.60286581003100        0.43185924334700      o
       14.08445958656700       -7.59610200105700        1.52589792369400      h
       14.50633222202300      -10.28959878056700        0.41381126808100      h
      -12.07561645959600       -0.36766274612800       -5.40300300621400      o
      -13.15553198582300       -0.03373513839200       -3.92247228518500      h
      -13.27634726858800       -0.70447453373200       -6.76961244631000      h
       -8.67526155432300      -11.72982463607800       -5.12497308482200      o
       -8.91072576795900      -10.70577116333400       -3.57958880111400      h
       -9.51961707632700      -13.30070305534300       -4.82854249765000      h
       16.53567821735200       -1.22761225983100        9.21859139128500      o
       18.29514250404500       -0.71131665465000        9.14450313492300      h
       16.44589193383000       -2.65721147390200        8.05232290801800      h
       -0.93595578955900      -13.39195810984000       -1.60227301660700      o
        0.21371150283400      -13.67779800723100       -0.20563129054300      h
       -0.28434343985200      -11.86646143619200       -2.41108063071300      h
       -2.01013588093300      -13.18561498107500        4.63099735880600      o
       -1.65713304158200      -11.58743784984300        3.75366864007000      h
       -0.55193328432100      -14.21221964413200        4.27930030988100      h
       -5.93666962011900       -0.25310638159300        2.30449485546700      o
       -6.05969657369600       -1.63167813730300        1.10768255858200      h
       -6.59729744490500       -0.88007182923900        3.89965740988200      h
       -2.16776878791100       -9.41650752056100        8.97142314675400      o
       -3.01448962130400      -11.02130530098700        9.08747466321600      h
       -3.50675934714200       -8.26838679783800        8.39661073115700      h
       13.24772576867700       -3.34683103956500       -1.31200759061300      o
       14.81029950776800       -3.90204323103400       -2.10565557843500      h
       13.73646912000700       -2.70660398766900        0.34830066318400      h
       12.52204416814900       10.29378217612800        4.50364518120100      o
       14.29222280677700       10.11042219879200        4.05240465605000      h
       11.73933343507600       11.12152037731200        3.07091089609600      h
      -14.17935384392700        1.84470780717200        8.43716904842100      o
      -14.05715349427500        0.47718365430100        7.19816062995600      h
      -13.59439772241900        3.33362746426400        7.53453010754800      h
       -1.12658331425700        8.04223461869800        1.84225074618700      o
       -2.57874581137500        6.91060957286800        1.68096637674900      h
       -1.51536560036600        9.59995212492700        0.97149467968400      h
      -17.26444468267600       -7.32017442189400        2.51397208867200      o
      -16.28306842436900       -8.85012426063100        2.19975644134800      h
      -16.78435866442900       -6.75924034623100        4.20865575478400      h
      -10.26166283486900      -13.24814407709100        3.67468317629500      o
       -9.27078206610800      -13.46582168440100        5.20473241159300      h
       -9.03564317559700      -13.36113720759700        2.32446814267900      h
      -19.63730620567500        5.64106274691400        0.94032493327500      o
      -19.38135266583500        6.45564531930200        2.60088687238800      h
      -19.40280611113200        6.91821101439600       -0.34728245182000      h
       14.31336613160600       -8.10820406908600       -4.62703767221600      o
       15.95912721759800       -7.66984468153500       -5.25358525534500      h
       14.54118822188200       -8.19037711182100       -2.78760708368300      h
        2.43985148965000       -9.73396307524600        6.38006729729800      o
        3.89337801250200       -9.87415471159900        7.49594490058000      h
        0.92549859455400      -10.12797527656400        7.34195342502100      h
       -9.26785983188300       -9.00410450498200       -9.70727159742300      o
       -8.98645023805400       -9.95177388310300       -8.16833825229000      h
       -7.63522412244200       -8.76567630702800      -10.48274561854800      h
       -5.87051016477900        7.52516848154100        5.63509586050600      o
       -5.70994549369000        7.71734302207200        7.45008925289000      h
       -6.15790845736600        9.20285148987700        4.93534028408600      h
       11.74573865286700        6.03999787481400       -5.15457089293700      o
       11.60069723139700        4.44969029319200       -4.25491420209600      h
       13.09190462984000        5.75670719732000       -6.42977197848600      h
       -2.17113180316900       -3.04507493103500      -11.34901354888200      o
       -0.73101636812600       -2.69140229835300      -12.40047045143200      h
       -3.43324552343800       -1.74274987402100      -11.74964569754900      h
       -5.50782109476900      -13.50288308174800        0.85163673038400      o
       -4.15159113583200      -13.40199953263300       -0.38997922000700      h
       -4.61512638713900      -13.96928790779900        2.38265622978600      h
       19.01909485415200        0.15471473641900       -3.03003027341000      o
       19.49831522635700        1.91666164736600       -2.78248203333600      h
       17.62032794247400        0.20690887756600       -4.24587559223500      h
       19.98098519123800       -1.24463102798500        1.83707228727100      o
       20.13270546772900       -3.08258806245800        1.84119191100500      h
       19.45456648212700       -0.79170524693400        0.12100391842200      h
       -6.78074612786600       -8.90884490539100        2.87204035827200      o
       -5.60804251395800       -7.53370664623800        3.13557906796700      h
       -5.94088604941200      -10.23775099255000        1.91196564285500      h
      -10.96300956148400        9.94189715843000        3.71482614804700      o
       -9.66455283717200       11.21557895307100        3.89135259364700      h
      -12.43852775854400       10.66813004209600        2.89811738886900      h
      -15.21572762650500        0.10372947261600       -1.59096439801700      o
      -14.60349731694800        1.27123677007600       -0.31158129451700      h
      -15.00515517976000       -1.63560036858000       -0.97932400250900      h
      -10.05969251324200       -8.92605896802900       -1.20007545071000      o
       -8.84323076864600       -8.78287128003200        0.18505921758600      h
      -10.14383928383500       -7.28672112289900       -2.03640694518900      h
      -18.14869715093200        7.31760536951300        5.41023151259400      o
      -16.34166933061300        6.90228549900300        5.54840057885300      h
      -18.94950190584500        6.08935539992800        6.50254924786500      h
       11.50857428473000        5.96127983579600      -11.34065075831100      o
       11.06905299728900        7.59868307020600      -10.61003961621500      h
       13.26340504824400        5.71778280703100      -10.88891327038500      h
       11.10101938129400       12.75998958099600       -0.02045248032800      o
        9.69699364424700       12.29647776096800       -1.12373101444300      h
       11.33969609219400       14.54471022810000       -0.18388354329500      h
        6.82626318428700        3.09942853496800       -2.81752386601000      o
        8.28485999606300        2.00560114393400       -2.62870314041800      h
        6.91076447994000        3.85836302489600       -4.50308118757800      h
       -9.57823068115200        4.45119446364700       10.50285274786800      o
      -11.17048122343700        5.31212665374200       10.53810543427400      h
       -8.26344026971200        5.69544082223000       10.79726319211100      h
       20.90400215685800        0.33610125083600        7.08546456739300      o
       20.65479490199600       -0.41031877673700        5.44078526579200      h
       20.50307528936500        2.10272526393100        6.90574622348700      h
      -14.29294031871300       -7.24870643723400       -4.92564302838700      o
      -12.91651212657900       -8.42986883657900       -4.99252989971600      h
      -15.79104760113800       -8.23795993576900       -4.46553084121600      h
      -12.52857743169100       -5.09349069270300       -9.38927143751400      o
      -11.41055978463600       -6.50983034418400       -9.77550790674600      h
      -13.29237980634300       -5.55346330925100       -7.78256117033400      h
       -2.88784602214400        2.44866864951800       -6.98331170145100      o
       -4.25231879956400        1.23344166187300       -6.63451926524600      h
       -2.33318724051000        3.15282284654500       -5.35681675380400      h
      -10.05847879347600       -0.87239335416600      -10.67767353589600      o
       -8.80343428778500       -1.13242488518900      -11.97126243331000      h
      -10.90944546502200       -2.48000312806300      -10.31585851742800      h
        0.06080657377500      -10.30177232804800       -9.10244315581500      o
        1.54159347096700      -11.39901179559400       -9.03966392187800      h
       -1.31376281494000      -11.23480983744500       -8.30258417151200      h
       -1.53968329780500       13.10120441003100        4.96014198437000      o
       -0.06043460937800       12.10669500764300        4.53325540330300      h
       -1.77773508351400       12.74890599645200        6.74967200536900      h
      -15.55809732262500       10.84468297447200        1.52173327818400      o
      -16.63135560530300       10.34951362517000        2.90333857618900      h
      -16.21759651898100       10.00381260241600        0.02347626218900      h
       11.76608960653400       -8.23469156554500        8.09394347141800      o
       11.96180922135600       -6.80224418146800        9.24601550641100      h
       10.08465788004600       -8.87198231666300        8.37979330291000      h
       16.58335770890800       -5.37967553518800        6.28127067478300      o
       16.25888021851100       -6.69423295154400        7.48724626148900      h
       15.05192141060600       -5.32797265589200        5.21330380258600      h
      -13.22661557981500        3.08971842403100      -11.43630908629700      o
      -12.01891458109900        1.69298425389600      -11.43746191550300      h
      -14.84946952047800        2.29546436859400      -11.26192224624300      h
       15.49328885806600        5.03091712557700       -8.26357344021200      o
       15.73579929700700        3.26509236130100       -7.81102180071000      h
       16.78341111124100        6.05016354406500       -7.39761542417800      h
        5.69018720230000        0.35096849721000       -7.39428649863000      o
        6.34493395086600       -0.80051623816900       -6.13524356148600      h
        4.76375591479500       -0.61249083775800       -8.67069686951400      h
        6.66549641381000        4.52311445318000      -12.20292268983700      o
        8.27341077279100        5.20209064747000      -12.73279645708900      h
        6.77765403827100        4.51267424529900      -10.35224445661200      h
      -18.88125082566900        0.73151989713200        3.15564884401900      o
      -19.16655706936500        1.21910197709600        4.91218184356600      h
      -19.31281404042200        2.21454434436600        2.19123038129000      h
       19.46887966860100       -6.33950846810800        2.11739142418900      o
       18.93055355250900       -6.09381683124500        3.85789854688800      h
       18.14139912758200       -7.41386405398400        1.42294431699500      h
       17.99772488995500       -4.86969802670700       -3.07021452603600      o
       18.84423440512200       -5.56553367693800       -1.61777409955200      h
       18.75479500838700       -3.23605391376800       -3.37459984334900      h
       -0.45212165579500        2.18784300141700      -11.65156170883100      o
        0.36698545663100        3.77547810406700      -12.01360298154200      h
       -1.15457088311000        2.36831694392900       -9.96151065561700      h
        6.48677198430600       -9.58631281869500        9.72072702198100      o
        6.75464191545200      -10.92674613644600       10.90479734900200      h
        6.37115713608000       -8.03253675809900       10.69970443684600      h
        8.86562404268800        7.04151960271300       -0.09558397331700      o
        8.35417370391200        8.36604359643100       -1.24355317138900      h
        8.20343660080900        5.46615387989300       -0.78665933585300      h
      -10.84275125767900       -8.30948688989400        6.04886506290900      o
      -10.88021087433000       -9.98500893273500        5.32072442587600      h
      -10.38715612760800       -7.17272925163100        4.64846947297000      h
       -2.73645197244500        8.54181136884100      -10.46569049792500      o
       -4.02633788080800        7.26632236937000      -10.76191032830900      h
       -1.16819055225500        7.96656891454500      -11.20081945509100      h
       10.66028876807700        4.63894214766500       10.45835827507000      o
       12.37616502096100        4.33838313441500        9.88272788176900      h
        9.58611172804400        3.76679386676600        9.22848908227800      h
       15.14841667799600        0.26544972057200       -6.28740759344000      o
       14.37178915832500       -1.25490949724500       -6.94097078604600      h
       13.83704301598300        0.91022044276800       -5.14419793794600      h
       -6.77220004597300       -0.68071410230300       -6.80651507663000      o
       -6.25435836849800       -2.45674509218300       -6.84494954734100      h
       -7.99076056140400       -0.48689976058300       -8.17381790101900      h
      -19.33919094879500       -2.51945750597800       -5.40219648988700      o
      -20.18899149766900       -0.93117342362700       -5.12355723864600      h
      -19.16806371895100       -3.22050103343400       -3.71612290048100      h
        2.99476879751000       10.42160528043100        4.92489192619500      o
        3.15621026289000       10.74607514956300        6.73334824988500      h
        4.26789826890900        9.11652268542300        4.64525519048200      h
       -6.36209542299700       12.16313243807900        3.56360858590200      o
       -6.32591111530400       11.66515157454000        1.77964268740500      h
       -4.64768001142000       12.64592890197100        4.03974132826500      h
       -6.97029116840700       10.67758358324000       -1.21308453371600      o
       -6.07224835643900       11.61638616557300       -2.52533681209200      h
       -8.75780059955700       11.05333124745400       -1.48743178911400      h
       10.16462597202300       10.20778641414000       -8.73719070808100      o
        8.35149476245400       10.45070782746800       -8.73115126300000      h
       10.68913646081500        9.87101087582600       -7.03116216010500      h
      -13.26933079966400        5.85192919930100        5.49656498278100      o
      -12.21164868176700        7.32575033553000        5.23465718217000      h
      -13.53380993998100        5.10553327083600        3.81810337957500      h
       14.30477820494400        9.11183674124600       -1.96574700205400      o
       13.22836265980100        7.88214352767200       -2.83137063731700      h
       13.18205710389000       10.41355358637300       -1.33228759924400      h
       14.94996175081300        3.43858162026800        7.91550414978100      o
       15.20104700625300        1.64686274009600        8.32792828588300      h
       16.54068504058500        4.05066269835600        7.24950730800500      h
        3.14407656311600        7.06248899565300       -2.95066680321800      o
        3.66019543243400        5.92195923895100       -1.60913398451800      h
        3.08477474882400        8.72710151679600       -2.18491003373800      h
      -12.36505838724100        6.56183792610400       -3.20471139821800      o
      -11.81486187577300        5.72064827785700       -4.77359603264100      h
      -10.93251772969200        6.41370328252600       -2.02359319313900      h
       18.26034839800200        7.99036079706100       -5.29510160130500      o
       16.92220064558300        8.80487361796300       -4.35006945404300      h
       19.11001532492200        6.92833361036700       -4.06606959811500      h
        4.56608963639100        0.85980362742700       10.56514117367800      o
        3.32982911246000       -0.46568101622500       10.72508910284600      h
        3.68527671087000        2.48350233813900       10.73734652052100      h
      -15.01001667154000       -5.54814816419000        6.72348720181200      o
      -13.52079344698200       -6.65325436735500        6.64835890227000      h
      -14.56183778947700       -4.01732194747000        5.79049579757100      h
        1.07525816623300       -4.91585807164100        6.67975659687300      o
        1.14500819196200       -4.49025648513300        8.48093307788800      h
        1.62271511534700       -6.67781390814100        6.49305631859500      h
       -9.89217793561300       -4.69681982045100       -4.08791982331200      o
      -10.71746001670600       -3.13613015022600       -4.65912140971400      h
       -8.73117668453900       -5.23308698714700       -5.40779491261600      h
       -1.61439018732600       -6.76041705873800       13.37210753840800      o
       -3.19246295919800       -5.85518499132000       13.51290232747300      h
       -1.79721347096400       -7.89933322852900       11.93036387958200      h
       17.01398742871200        8.95045977504800        2.24135824090400      o
       16.06779281936600        8.67094664706500        0.65772350176200      h
       18.44260561347600        9.96441443156500        1.79125921888600      h
       -4.18652123127900       -7.70491490979800      -11.10820482630000      o
       -2.74426801994500       -8.77914372794500      -10.81301415540800      h
       -3.50578956964300       -6.03598355889300      -11.50410884058000      h
       -5.41181438805600        7.62465542151200       10.85271524536000      o
       -4.38193823370300        9.13963321005100       10.80672465952100      h
       -4.30783089299800        6.33888640396200       11.57955810818500      h
        4.05373325036700       10.13067157987900        9.92621370559300      o
        5.86909980239900       10.09877296333600        9.72676617075300      h
        3.59103282367000        8.41010560450000       10.40026352852000      h
       -1.08878030049352       -0.80394579952289        2.16321501769058      o
        0.67997796521569       -0.84338007456287        1.66180100093335      h
       -1.90376952223732       -0.38115661552618        0.55256200644063      h
        2.91974631814919       -0.10954496649874       -0.79233577229455      o
        4.41181206914558        0.81771587072794       -1.26481717900286      h
        1.68044937953450        0.29430632764701       -2.05903351628486      h
$end
 
 Bond Distances (Angstroems)
 ---------------------------
O1-H2=0.9707         O1-H3=0.9829         H2-O1=0.9707         H3-O1=0.9829         O4-H5=0.9731         O4-H6=0.9705         
H5-O4=0.9731         H6-O4=0.9705         O7-H8=0.9786         O7-H9=0.9814         H8-O7=0.9786         H9-O7=0.9814         
O10-H11=0.9638       O10-H12=0.9761       H11-O10=0.9638       H12-O10=0.9761       O13-H14=0.9775       O13-H15=0.9736       
H14-O13=0.9775       H15-O13=0.9736       O16-H17=0.9682       O16-H18=0.9680       H17-O16=0.9682       H18-O16=0.9680       
O19-H20=0.9709       O19-H21=0.9749       H20-O19=0.9709       H21-O19=0.9749       O22-H23=0.9724       O22-H24=0.9759       
H23-O22=0.9724       H24-O22=0.9759       O25-H26=0.9803       O25-H27=0.9813       H26-O25=0.9803       H27-O25=0.9813       
O28-H29=0.9690       O28-H30=0.9748       H29-O28=0.9690       H30-O28=0.9748       O31-H32=0.9642       O31-H33=0.9746       
H32-O31=0.9642       H33-O31=0.9746       O34-H35=0.9893       O34-H36=0.9852       H35-O34=0.9893       H36-O34=0.9852       
O37-H38=0.9773       O37-H39=0.9655       H38-O37=0.9773       H39-O37=0.9655       O40-H41=0.9702       O40-H42=0.9829       
H41-O40=0.9702       H42-O40=0.9829       O43-H44=0.9888       O43-H45=0.9828       H44-O43=0.9888       H45-O43=0.9828       
O46-H47=0.9983       O46-H48=0.9593       H47-O46=0.9983       H48-O46=0.9593       O49-H50=0.9783       O49-H51=0.9756       
H50-O49=0.9783       H51-O49=0.9756       O52-H53=0.9709       O52-H54=0.9747       H53-O52=0.9709       H54-O52=0.9747       
O55-H56=0.9739       O55-H57=0.9744       H56-O55=0.9739       H57-O55=0.9744       O58-H59=0.9707       O58-H60=0.9722       
H59-O58=0.9707       H60-O58=0.9722       O61-H62=0.9620       O61-H63=0.9740       H62-O61=0.9620       H63-O61=0.9740       
O64-H65=0.9717       O64-H66=0.9682       H65-O64=0.9717       H66-O64=0.9682       O67-H68=0.9650       O67-H69=0.9868       
H68-O67=0.9650       H69-O67=0.9868       O70-H71=0.9908       O70-H72=0.9620       H71-O70=0.9908       H72-O70=0.9620       
O73-H74=0.9748       O73-H75=0.9713       H74-O73=0.9748       H75-O73=0.9713       O76-H77=0.9769       O76-H78=0.9709       
H77-O76=0.9769       H78-O76=0.9709       O79-H80=0.9729       O79-H81=0.9832       H80-O79=0.9729       H81-O79=0.9832       
O82-H83=0.9722       O82-H84=0.9821       H83-O82=0.9722       H84-O82=0.9821       O85-H86=0.9751       O85-H87=0.9600       
H86-O85=0.9751       H87-O85=0.9600       O88-H89=0.9754       O88-H90=0.9643       H89-O88=0.9754       H90-O88=0.9643       
O91-H92=0.9742       O91-H93=0.9717       H92-O91=0.9742       H93-O91=0.9717       O94-H95=0.9719       O94-H96=0.9590       
H95-O94=0.9719       H96-O94=0.9590       O97-H98=0.9774       O97-H99=0.9673       H98-O97=0.9774       H99-O97=0.9673       
O100-H101=0.9693     O100-H102=0.9712     H101-O100=0.9693     H102-O100=0.9712     O103-H104=0.9770     O103-H105=0.9613     
H104-O103=0.9770     H105-O103=0.9613     O106-H107=0.9587     O106-H108=0.9714     H107-O106=0.9587     H108-O106=0.9714     
O109-H110=0.9677     O109-H111=0.9828     H110-O109=0.9677     H111-O109=0.9828     O112-H113=0.9778     O112-H114=0.9771     
H113-O112=0.9778     H114-O112=0.9771     O115-H116=0.9668     O115-H117=0.9845     H116-O115=0.9668     H117-O115=0.9845     
O118-H119=0.9769     O118-H120=0.9821     H119-O118=0.9769     H120-O118=0.9821     O121-H122=0.9805     O121-H123=0.9787     
H122-O121=0.9805     H123-O121=0.9787     O124-H125=0.9921     O124-H126=0.9865     H125-O124=0.9921     H126-O124=0.9865     
O127-H128=0.9697     O127-H129=0.9633     H128-O127=0.9697     H129-O127=0.9633     O130-H131=0.9904     O130-H132=0.9834     
H131-O130=0.9904     H132-O130=0.9834     O133-H134=0.9737     O133-H135=0.9812     H134-O133=0.9737     H135-O133=0.9812     
O136-H137=0.9764     O136-H138=0.9573     H137-O136=0.9764     H138-O136=0.9573     O139-H140=0.9757     O139-H141=0.9626     
H140-O139=0.9757     H141-O139=0.9626     O142-H143=0.9748     O142-H144=0.9790     H143-O142=0.9748     H144-O142=0.9790     
O145-H146=0.9832     O145-H147=0.9650     H146-O145=0.9832     H147-O145=0.9650     O148-H149=0.9839     O148-H150=0.9732     
H149-O148=0.9839     H150-O148=0.9732     O151-H152=0.9574     O151-H153=0.9753     H152-O151=0.9574     H153-O151=0.9753     
O154-H155=0.9710     O154-H156=0.9777     H155-O154=0.9710     H156-O154=0.9777     O157-H158=0.9593     O157-H159=0.9837     
H158-O157=0.9593     H159-O157=0.9837     O160-H161=0.9837     O160-H162=0.9729     H161-O160=0.9837     H162-O160=0.9729     
O163-H164=0.9709     O163-H165=0.9658     H164-O163=0.9709     H165-O163=0.9658     O166-H167=0.9716     O166-H168=0.9700     
H167-O166=0.9716     H168-O166=0.9700     O169-H170=0.9996     O169-H171=0.9562     H170-O169=0.9996     H171-O169=0.9562     
O172-H173=0.9900     O172-H174=0.9571     H173-O172=0.9900     H174-O172=0.9571     O175-H176=0.9773     O175-H177=0.9772     
H176-O175=0.9773     H177-O175=0.9772     O178-H179=0.9784     O178-H180=0.9616     H179-O178=0.9784     H180-O178=0.9616     
O181-H182=0.9752     O181-H183=0.9802     H182-O181=0.9752     H183-O181=0.9802     O184-H185=0.9804     O184-H186=0.9724     
H185-O184=0.9804     H186-O184=0.9724     O187-H188=0.9593     O187-H189=0.9831     H188-O187=0.9593     H189-O187=0.9831     
O190-H191=0.9724     O190-H192=0.9727     H191-O190=0.9724     H192-O190=0.9727     O193-H194=0.9830     O193-H195=0.9825     
H194-O193=0.9830     H195-O193=0.9825     O196-H197=0.9699     O196-H198=0.9642     H197-O196=0.9699     H198-O196=0.9642     
O199-H200=0.9821     O199-H201=0.9716     H200-O199=0.9821     H201-O199=0.9716     O202-H203=0.9854     O202-H204=0.9619     
H203-O202=0.9854     H204-O202=0.9619     O205-H206=0.9804     O205-H207=0.9655     H206-O205=0.9804     H207-O205=0.9655     
O208-H209=0.9752     O208-H210=0.9752     H209-O208=0.9752     H210-O208=0.9752     O211-H212=0.9707     O211-H213=0.9748     
H212-O211=0.9707     H213-O211=0.9748     O214-H215=0.9821     O214-H216=0.9721     H215-O214=0.9821     H216-O214=0.9721     
O217-H218=0.9746     O217-H219=0.9726     H218-O217=0.9746     H219-O217=0.9726     O220-H221=0.9894     O220-H222=0.9820     
H221-O220=0.9894     H222-O220=0.9820     O223-H224=0.9635     O223-H225=0.9869     H224-O223=0.9635     H225-O223=0.9869     
O226-H227=0.9849     O226-H228=0.9778     H227-O226=0.9849     H228-O226=0.9778     O229-H230=0.9943     O229-H231=0.9573     
H230-O229=0.9943     H231-O229=0.9573     O232-H233=0.9647     O232-H234=0.9659     H233-O232=0.9647     H234-O232=0.9659     
O235-H236=0.9924     O235-H237=0.9564     H236-O235=0.9924     H237-O235=0.9564     O238-H239=0.9742     O238-H240=0.9716     
H239-O238=0.9742     H240-O238=0.9716     O241-H242=0.9621     O241-H243=0.9632     H242-O241=0.9621     H243-O241=0.9632     
O244-H245=0.9558     O244-H246=1.0019     H245-O244=0.9558     H246-O244=1.0019     O247-H248=0.9793     O247-H249=0.9696     
[...]
   160   8 o      161   1 h                                       0.9837459
   160   8 o      162   1 h                                       0.9728860
   163   8 o      164   1 h                                       0.9709270
   163   8 o      165   1 h                                       0.9657691
   166   8 o      167   1 h                                       0.9716430
   166   8 o      168   1 h                                       0.9700477
   169   8 o      170   1 h                                       0.9996133 (max)
   169   8 o      171   1 h                                       0.9562258
   172   8 o      173   1 h                                       0.9899619
   172   8 o      174   1 h                                       0.9570776
   175   8 o      176   1 h                                       0.9772621
   175   8 o      177   1 h                                       0.9772233
   178   8 o      179   1 h                                       0.9784071
   178   8 o      180   1 h                                       0.9616299
   181   8 o      182   1 h                                       0.9752010
   181   8 o      183   1 h                                       0.9802049
   184   8 o      185   1 h                                       0.9803842
   184   8 o      186   1 h                                       0.9724475
   187   8 o      188   1 h                                       0.9592513
   187   8 o      189   1 h                                       0.9831229
   190   8 o      191   1 h                                       0.9723818
   190   8 o      192   1 h                                       0.9727120
   193   8 o      194   1 h                                       0.9829942
   193   8 o      195   1 h                                       0.9824912
   196   8 o      197   1 h                                       0.9699100
   196   8 o      198   1 h                                       0.9642409
   199   8 o      200   1 h                                       0.9820650
   199   8 o      201   1 h                                       0.9716377
   202   8 o      203   1 h                                       0.9853758
   202   8 o      204   1 h                                       0.9619454
   205   8 o      206   1 h                                       0.9804449
   205   8 o      207   1 h                                       0.9655087
   208   8 o      209   1 h                                       0.9752019
   208   8 o      210   1 h                                       0.9751886
   211   8 o      212   1 h                                       0.9706974
   211   8 o      213   1 h                                       0.9747599
   214   8 o      215   1 h                                       0.9821425
   214   8 o      216   1 h                                       0.9721376
   217   8 o      218   1 h                                       0.9745959
   217   8 o      219   1 h                                       0.9726307
   220   8 o      221   1 h                                       0.9894334
   220   8 o      222   1 h                                       0.9820019
   223   8 o      224   1 h                                       0.9634542
   223   8 o      225   1 h                                       0.9869301
   226   8 o      227   1 h                                       0.9849443
   226   8 o      228   1 h                                       0.9778299
   229   8 o      230   1 h                                       0.9943036
   229   8 o      231   1 h                                       0.9572806
   232   8 o      233   1 h                                       0.9646561
   232   8 o      234   1 h                                       0.9658731
   235   8 o      236   1 h                                       0.9924023
   235   8 o      237   1 h                                       0.9564133
   238   8 o      239   1 h                                       0.9742020
   238   8 o      240   1 h                                       0.9716447
   241   8 o      242   1 h                                       0.9620992
   241   8 o      243   1 h                                       0.9631817
   244   8 o      245   1 h                                       0.9557924 (min)
   247   8 o      248   1 h                                       0.9793175
   247   8 o      249   1 h                                       0.9696216
   250   8 o      251   1 h                                       0.9776453
   250   8 o      252   1 h                                       0.9789898
   253   8 o      254   1 h                                       0.9752355
   253   8 o      255   1 h                                       0.9630461
   256   8 o      257   1 h                                       0.9725857
   256   8 o      258   1 h                                       0.9990007
   259   8 o      260   1 h                                       0.9743098
   259   8 o      261   1 h                                       0.9645672
   262   8 o      263   1 h                                       0.9802078
   262   8 o      264   1 h                                       0.9568448
   265   8 o      266   1 h                                       0.9711651
   265   8 o      267   1 h                                       0.9696905
   268   8 o      269   1 h                                       0.9727169
   268   8 o      270   1 h                                       0.9804381
   271   8 o      272   1 h                                       0.9635962
   271   8 o      273   1 h                                       0.9745199
   274   8 o      275   1 h                                       0.9796766
   274   8 o      276   1 h                                       0.9808707
   277   8 o      278   1 h                                       0.9721786
   277   8 o      279   1 h                                       0.9647626
   280   8 o      281   1 h                                       0.9661177
   280   8 o      282   1 h                                       0.9822890
   283   8 o      284   1 h                                       0.9565752
   283   8 o      285   1 h                                       0.9829291
   286   8 o      287   1 h                                       0.9662925
   286   8 o      288   1 h                                       0.9753659
   289   8 o      290   1 h                                       0.9714718
   289   8 o      291   1 h                                       0.9863343
   292   8 o      293   1 h                                       0.9849214
   292   8 o      294   1 h                                       0.9659960
   295   8 o      296   1 h                                       0.9857049
   295   8 o      297   1 h                                       0.9790234
   298   8 o      299   1 h                                       0.9889163
   298   8 o      300   1 h                                       0.9566943
   301   8 o      302   1 h                                       0.9711181
   301   8 o      303   1 h                                       0.9774747
   304   8 o      305   1 h                                       0.9691383
   304   8 o      306   1 h                                       0.9766021
   307   8 o      308   1 h                                       0.9826876
   307   8 o      309   1 h                                       0.9618752
   310   8 o      311   1 h                                       0.9682578
   310   8 o      312   1 h                                       0.9720251
   313   8 o      314   1 h                                       0.9621397
   313   8 o      315   1 h                                       0.9816896
   316   8 o      317   1 h                                       0.9728481
   316   8 o      318   1 h                                       0.9765270
   319   8 o      320   1 h                                       0.9715515
   319   8 o      321   1 h                                       0.9686277
   322   8 o      323   1 h                                       0.9786485
   322   8 o      324   1 h                                       0.9719897
   325   8 o      326   1 h                                       0.9779568
   325   8 o      327   1 h                                       0.9665060
   328   8 o      329   1 h                                       0.9761244
   328   8 o      330   1 h                                       0.9782028
   331   8 o      332   1 h                                       0.9714805
   331   8 o      333   1 h                                       0.9669579
   334   8 o      335   1 h                                       0.9880921
   334   8 o      336   1 h                                       0.9676901
   337   8 o      338   1 h                                       0.9603146
   337   8 o      339   1 h                                       0.9817857
   340   8 o      341   1 h                                       0.9725316
   340   8 o      342   1 h                                       0.9719785
   343   8 o      344   1 h                                       0.9679149
   343   8 o      345   1 h                                       0.9647451
   346   8 o      347   1 h                                       0.9695523
   346   8 o      348   1 h                                       0.9738696
   349   8 o      350   1 h                                       0.9699254
   349   8 o      351   1 h                                       0.9926206
   352   8 o      353   1 h                                       0.9619649
   352   8 o      354   1 h                                       0.9828302
   355   8 o      356   1 h                                       0.9744835
   355   8 o      357   1 h                                       0.9697753
   358   8 o      359   1 h                                       0.9750928
   358   8 o      360   1 h                                       0.9811285
   361   8 o      362   1 h                                       0.9759157
   361   8 o      363   1 h                                       0.9796426
   364   8 o      365   1 h                                       0.9664828
   364   8 o      366   1 h                                       0.9747640
   367   8 o      368   1 h                                       0.9670223
   367   8 o      369   1 h                                       0.9716682
   370   8 o      371   1 h                                       0.9721204
   370   8 o      372   1 h                                       0.9820071
   373   8 o      374   1 h                                       0.9784600
   373   8 o      375   1 h                                       0.9748875
   376   8 o      377   1 h                                       0.9838899
   376   8 o      378   1 h                                       0.9675474
   379   8 o      380   1 h                                       0.9769107
   379   8 o      381   1 h                                       0.9675104
   382   8 o      383   1 h                                       0.9762360
   382   8 o      384   1 h                                       0.9567584
   385   8 o      386   1 h                                       0.9699426
   385   8 o      387   1 h                                       0.9792247
   388   8 o      389   1 h                                       0.9580460
   388   8 o      390   1 h                                       0.9705031
   391   8 o      392   1 h                                       0.9648190
   391   8 o      393   1 h                                       0.9633354
   394   8 o      395   1 h                                       0.9604492
   394   8 o      396   1 h                                       0.9807143
   397   8 o      398   1 h                                       0.9764948
   397   8 o      399   1 h                                       0.9723748
   400   8 o      401   1 h                                       0.9843577
   400   8 o      402   1 h                                       0.9827557
   403   8 o      404   1 h                                       0.9636440
   403   8 o      405   1 h                                       0.9814011
   406   8 o      407   1 h                                       0.9758415
   406   8 o      408   1 h                                       0.9757223
   409   8 o      410   1 h                                       0.9699197
   409   8 o      411   1 h                                       0.9733411
   412   8 o      413   1 h                                       0.9621585
   412   8 o      414   1 h                                       0.9738553
   415   8 o      416   1 h                                       0.9782599
   415   8 o      417   1 h                                       0.9634896
   418   8 o      419   1 h                                       0.9595085
   418   8 o      420   1 h                                       0.9883756
   421   8 o      422   1 h                                       0.9771039
   421   8 o      423   1 h                                       0.9605559
   424   8 o      425   1 h                                       0.9731326
   424   8 o      426   1 h                                       0.9833535
   427   8 o      428   1 h                                       0.9670777
   427   8 o      429   1 h                                       0.9780124
   430   8 o      431   1 h                                       0.9652465
   430   8 o      432   1 h                                       0.9811492
   433   8 o      434   1 h                                       0.9764065
   433   8 o      435   1 h                                       0.9635839
   436   8 o      437   1 h                                       0.9728121
   436   8 o      438   1 h                                       0.9755683
   439   8 o      440   1 h                                       0.9628044
   439   8 o      441   1 h                                       0.9663244
   442   8 o      443   1 h                                       0.9645837
   442   8 o      444   1 h                                       0.9732084
   445   8 o      446   1 h                                       0.9569975
   445   8 o      447   1 h                                       0.9737413
   448   8 o      449   1 h                                       0.9662056
   448   8 o      450   1 h                                       0.9754467
   451   8 o      452   1 h                                       0.9669570
   451   8 o      453   1 h                                       0.9844536
   454   8 o      455   1 h                                       0.9726537
   454   8 o      456   1 h                                       0.9657684
   457   8 o      458   1 h                                       0.9708517
   457   8 o      459   1 h                                       0.9796323
   460   8 o      461   1 h                                       0.9673655
   460   8 o      462   1 h                                       0.9818140
   463   8 o      464   1 h                                       0.9791815
   463   8 o      465   1 h                                       0.9746018
   466   8 o      467   1 h                                       0.9645621
   466   8 o      468   1 h                                       0.9705161
   469   8 o      470   1 h                                       0.9760213
   469   8 o      471   1 h                                       0.9760841
   472   8 o      473   1 h                                       0.9803112
   472   8 o      474   1 h                                       0.9756133
   475   8 o      476   1 h                                       0.9771652
   475   8 o      477   1 h                                       0.9774239
   478   8 o      479   1 h                                       0.9680462
   478   8 o      480   1 h                                       0.9611617
   481   8 o      482   1 h                                       0.9699165
   481   8 o      483   1 h                                       0.9820893
   484   8 o      485   1 h                                       0.9786375
   484   8 o      486   1 h                                       0.9694551
   487   8 o      488   1 h                                       0.9819617
   487   8 o      489   1 h                                       0.9683504
   490   8 o      491   1 h                                       0.9709930
   490   8 o      492   1 h                                       0.9701185
   493   8 o      494   1 h                                       0.9859916
   493   8 o      495   1 h                                       0.9856282
   496   8 o      497   1 h                                       0.9681422
   496   8 o      498   1 h                                       0.9700492
   499   8 o      500   1 h                                       0.9628748
   499   8 o      501   1 h                                       0.9817463
   502   8 o      503   1 h                                       0.9821464
   502   8 o      504   1 h                                       0.9778712
   505   8 o      506   1 h                                       0.9800841
   505   8 o      507   1 h                                       0.9813427
   508   8 o      509   1 h                                       0.9819217
   508   8 o      510   1 h                                       0.9725317
   511   8 o      512   1 h                                       0.9655973
   511   8 o      513   1 h                                       0.9770709
   514   8 o      515   1 h                                       0.9873533
   514   8 o      516   1 h                                       0.9571591
   517   8 o      518   1 h                                       0.9643810
   517   8 o      519   1 h                                       0.9765389
   520   8 o      521   1 h                                       0.9696973
   520   8 o      522   1 h                                       0.9757951
   523   8 o      524   1 h                                       0.9665785
   523   8 o      525   1 h                                       0.9756344
   526   8 o      527   1 h                                       0.9730931
   526   8 o      528   1 h                                       0.9810726
   529   8 o      530   1 h                                       0.9626535
   529   8 o      531   1 h                                       0.9618044

 * 1 distinct bonds (by element types)

   Z      Z             #   av. dist./Å        max./Å        min./Å
   1 H    8 O         353     0.9736111     0.9996133     0.9557924


optimized geometry written to: xtbopt.coord


           -------------------------------------------------
          | TOTAL ENERGY             -901.190284390383 Eh   |
          | GRADIENT NORM               0.002197659960 Eh/α |
          | HOMO-LUMO GAP               6.308847589126 eV   |
           -------------------------------------------------

------------------------------------------------------------------------
 * finished run on 2022/11/17 at 06:50:58.554     
------------------------------------------------------------------------
 total:
 * wall-time:     0 d,  0 h,  2 min, 10.571 sec
 *  cpu-time:     0 d,  0 h,  3 min, 22.462 sec
 * ratio c/w:     1.551 speedup
 SCF:
 * wall-time:     0 d,  0 h,  0 min,  8.504 sec
 *  cpu-time:     0 d,  0 h,  0 min, 13.283 sec
 * ratio c/w:     1.562 speedup
 ANC optimizer:
 * wall-time:     0 d,  0 h,  2 min,  1.499 sec
 *  cpu-time:     0 d,  0 h,  3 min,  8.129 sec
 * ratio c/w:     1.548 speedup

