      -----------------------------------------------------------      
     |                   =====================                   |     
     |                           x T B                           |     
     |                   =====================                   |     
     |                         S. Grimme                         |     
     |          Mulliken Center for Theoretical Chemistry        |     
     |                    University of Bonn                     |     
      -----------------------------------------------------------      

   * xtb version 6.5.1 (579679a) compiled by 'ehlert@majestix' on 2022-07-11

   xtb is free software: you can redistribute it and/or modify it under
   the terms of the GNU Lesser General Public License as published by
   the Free Software Foundation, either version 3 of the License, or
   (at your option) any later version.
   
   xtb is distributed in the hope that it will be useful,
   but WITHOUT ANY WARRANTY; without even the implied warranty of
   MERCHANTABILITY or FITNESS FOR A PARTICULAR PURPOSE.  See the
   GNU Lesser General Public License for more details.
   
   Cite this work as:
   * C. Bannwarth, E. Caldeweyher, S. Ehlert, A. Hansen, P. Pracht,
     J. Seibert, S. Spicher, S. Grimme, WIREs Comput. Mol. Sci., 2020, 11,
     e01493. DOI: 10.1002/wcms.1493
   
   for GFN2-xTB:
   * C. Bannwarth, S. Ehlert and S. Grimme., J. Chem. Theory Comput., 2019,
     15, 1652-1671. DOI: 10.1021/acs.jctc.8b01176
   for GFN1-xTB:
   * S. Grimme, C. Bannwarth, P. Shushkov, J. Chem. Theory Comput., 2017,
     13, 1989-2009. DOI: 10.1021/acs.jctc.7b00118
   for GFN0-xTB:
   * P. Pracht, E. Caldeweyher, S. Ehlert, S. Grimme, ChemRxiv, 2019, preprint.
     DOI: 10.26434/chemrxiv.8326202.v1
   for GFN-FF:
   * S. Spicher and S. Grimme, Angew. Chem. Int. Ed., 2020, 59, 15665-15673.
     DOI: 10.1002/anie.202004239
   
   for ALPB and GBSA implicit solvation:
   * S. Ehlert, M. Stahn, S. Spicher, S. Grimme, J. Chem. Theory Comput.,
     2021, 17, 4250-4261. DOI: 10.1021/acs.jctc.1c00471
   
   for DFT-D4:
   * E. Caldeweyher, C. Bannwarth and S. Grimme, J. Chem. Phys., 2017,
     147, 034112. DOI: 10.1063/1.4993215
   * E. Caldeweyher, S. Ehlert, A. Hansen, H. Neugebauer, S. Spicher,
     C. Bannwarth and S. Grimme, J. Chem. Phys., 2019, 150, 154122.
     DOI: 10.1063/1.5090222
   * E. Caldeweyher, J.-M. Mewes, S. Ehlert and S. Grimme, Phys. Chem. Chem. Phys.
     2020, 22, 8499-8512. DOI: 10.1039/D0CP00502A
   
   for sTDA-xTB:
   * S. Grimme and C. Bannwarth, J. Chem. Phys., 2016, 145, 054103.
     DOI: 10.1063/1.4959605
   
   in the mass-spec context:
   * V. Asgeirsson, C. Bauer and S. Grimme, Chem. Sci., 2017, 8, 4879.
     DOI: 10.1039/c7sc00601b
   * J. Koopman and S. Grimme, ACS Omega 2019, 4, 12, 15120-15133.
     DOI: 10.1021/acsomega.9b02011
   
   for metadynamics refer to:
   * S. Grimme, J. Chem. Theory Comput., 2019, 155, 2847-2862
     DOI: 10.1021/acs.jctc.9b00143
   
   for SPH calculations refer to:
   * S. Spicher and S. Grimme, J. Chem. Theory Comput., 2021, 17, 1701-1714
     DOI: 10.1021/acs.jctc.0c01306
   
   with help from (in alphabetical order)
   P. Atkinson, C. Bannwarth, F. Bohle, G. Brandenburg, E. Caldeweyher
   M. Checinski, S. Dohm, S. Ehlert, S. Ehrlich, I. Gerasimov, C. Hölzer
   A. Katbashev, J. Koopman, C. Lavigne, S. Lehtola, F. März, M. Müller,
   F. Musil, H. Neugebauer, J. Pisarek, C. Plett, P. Pracht, F. Pultar,
   J. Seibert, P. Shushkov, S. Spicher, M. Stahn, M. Steiner, T. Strunk,
   J. Stückrath, T. Rose, and J. Unsleber
   
 * started run on 2022/11/17 at 06:54:59.739     

           -------------------------------------------------
          |                Calculation Setup                |
           -------------------------------------------------

          program call               : xtb solvent_cluster.coord --gfn2 --sp --lmo --chrg 0
          hostname                   : cn0363
          coordinate file            : solvent_cluster.coord
          omp threads                :                     2

   ID    Z sym.   atoms
    1    8 o      1, 4, 7, 10, 13, 16, 19, 22, 25, 28, 31, 34, 37, 40, 43,
                  46, 49, 52, 55, 58, 61, 64, 67, 70, 73, 76, 79, 82, 85, 88,
                  91, 94, 97, 100, 103, 106, 109, 112, 115, 118, 121, 124,
                  127, 130, 133, 136, 139, 142, 145, 148, 151, 154, 157, 160,
                  163, 166, 169, 172, 175, 178, 181, 184, 187, 190, 193, 196,
                  199, 202, 205, 208, 211, 214, 217, 220, 223, 226, 229, 232,
                  235, 238, 241, 244, 247, 250, 253, 256, 259, 262, 265, 268,
                  271, 274, 277, 280, 283, 286, 289, 292, 295, 298, 301, 304,
                  307, 310, 313, 316, 319, 322, 325, 328, 331, 334, 337, 340,
                  343, 346, 349, 352, 355, 358, 361, 364, 367, 370, 373, 376,
                  379, 382, 385, 388, 391, 394, 397, 400, 403, 406, 409, 412,
                  415, 418, 421, 424, 427, 430, 433, 436, 439, 442, 445, 448,
                  451, 454, 457, 460, 463, 466, 469, 472, 475, 478, 481, 484,
                  487, 490, 493, 496, 499, 502, 505, 508, 511, 514, 517, 520,
                  523, 526, 529
    2    1 h      2, 3, 5, 6, 8, 9, 11, 12, 14, 15, 17, 18, 20, 21, 23, 24,
                  26, 27, 29, 30, 32, 33, 35, 36, 38, 39, 41, 42, 44, 45, 47,
                  48, 50, 51, 53, 54, 56, 57, 59, 60, 62, 63, 65, 66, 68, 69,
                  71, 72, 74, 75, 77, 78, 80, 81, 83, 84, 86, 87, 89, 90, 92,
                  93, 95, 96, 98, 99, 101, 102, 104, 105, 107, 108, 110, 111,
                  113, 114, 116, 117, 119, 120, 122, 123, 125, 126, 128, 129,
                  131, 132, 134, 135, 137, 138, 140, 141, 143, 144, 146, 147,
                  149, 150, 152, 153, 155, 156, 158, 159, 161, 162, 164, 165,
                  167, 168, 170, 171, 173, 174, 176, 177, 179, 180, 182, 183,
                  185, 186, 188, 189, 191, 192, 194, 195, 197, 198, 200, 201,
                  203, 204, 206, 207, 209, 210, 212, 213, 215, 216, 218, 219,
                  221, 222, 224, 225, 227, 228, 230, 231, 233, 234, 236, 237,
                  239, 240, 242, 243, 245, 246, 248, 249, 251, 252, 254, 255,
                  257, 258, 260, 261, 263, 264, 266, 267, 269, 270, 272, 273,
                  275, 276, 278, 279, 281, 282, 284, 285, 287, 288, 290, 291,
                  293, 294, 296, 297, 299, 300, 302, 303, 305, 306, 308, 309,
                  311, 312, 314, 315, 317, 318, 320, 321, 323, 324, 326, 327,
                  329, 330, 332, 333, 335, 336, 338, 339, 341, 342, 344, 345,
                  347, 348, 350, 351, 353, 354, 356, 357, 359, 360, 362, 363,
                  365, 366, 368, 369, 371, 372, 374, 375, 377, 378, 380, 381,
                  383, 384, 386, 387, 389, 390, 392, 393, 395, 396, 398, 399,
                  401, 402, 404, 405, 407, 408, 410, 411, 413, 414, 416, 417,
                  419, 420, 422, 423, 425, 426, 428, 429, 431, 432, 434, 435,
                  437, 438, 440, 441, 443, 444, 446, 447, 449, 450, 452, 453,
                  455, 456, 458, 459, 461, 462, 464, 465, 467, 468, 470, 471,
                  473, 474, 476, 477, 479, 480, 482, 483, 485, 486, 488, 489,
                  491, 492, 494, 495, 497, 498, 500, 501, 503, 504, 506, 507,
                  509, 510, 512, 513, 515, 516, 518, 519, 521, 522, 524, 525,
                  527, 528, 530, 531

molecular fragmentation (1/2 indicates fragments):
111222222222222222222222222222222222222222222222222222222222222222222222
222222222222222222222222222222222222222222222222222222222222222222222222
222222222222222222222222222222222222222222222222222222222222222222222222
222222222222222222222222222222222222222222222222222222222222222222222222
222222222222222222222222222222222222222222222222222222222222222222222222
222222222222222222222222222222222222222222222222222222222222222222222222
222222222222222222222222222222222222222222222222222222222222222222222222
222222222222222222222222222
# atoms in fragment 1/2:     3   528
 fragment masses (1/2) :       18.02     3170.69
CMA distance (Bohr)    :   6.625
constraining FC (au)   :  0.0500

           -------------------------------------------------
          |                 G F N 2 - x T B                 |
           -------------------------------------------------

        Reference                      10.1021/acs.jctc.8b01176
      * Hamiltonian:
        H0-scaling (s, p, d)           1.850000    2.230000    2.230000
        zeta-weighting                 0.500000
      * Dispersion:
        s8                             2.700000
        a1                             0.520000
        a2                             5.000000
        s9                             5.000000
      * Repulsion:
        kExp                           1.500000    1.000000
        rExp                           1.000000
      * Coulomb:
        alpha                          2.000000
        third order                    shell-resolved
        anisotropic                    true
        a3                             3.000000
        a5                             4.000000
        cn-shift                       1.200000
        cn-exp                         4.000000
        max-rad                        5.000000


          ...................................................
          :                      SETUP                      :
          :.................................................:
          :  # basis functions                1062          :
          :  # atomic orbitals                1062          :
          :  # shells                          708          :
          :  # electrons                      1416          :
          :  max. iterations                   250          :
          :  Hamiltonian                  GFN2-xTB          :
          :  restarted?                      false          :
          :  GBSA solvation                  false          :
          :  PC potential                    false          :
          :  electronic temp.          300.0000000     K    :
          :  accuracy                    1.0000000          :
          :  -> integral cutoff          0.2500000E+02      :
          :  -> integral neglect         0.1000000E-07      :
          :  -> SCF convergence          0.1000000E-05 Eh   :
          :  -> wf. convergence          0.1000000E-03 e    :
          :  Broyden damping             0.4000000          :
          ...................................................

 iter      E             dE          RMSdq      gap      omega  full diag
   1   -906.5608496 -0.906561E+03  0.406E+00    8.74       0.0  T
   2   -906.6168436 -0.559940E-01  0.241E+00    7.60       1.0  T
   3   -906.6394006 -0.225570E-01  0.213E-01    5.90       1.0  T
   4   -906.6432798 -0.387923E-02  0.462E-02    6.34       1.0  T
   5   -906.6433482 -0.684168E-04  0.313E-02    6.27       1.0  T
   6   -906.6433777 -0.294156E-04  0.404E-03    6.31       1.1  T
   7   -906.6433792 -0.154567E-05  0.762E-04    6.31       5.7  T
   8   -906.6433792 -0.219005E-07  0.390E-04    6.31      11.1  T
   9   -906.6433792 -0.104882E-07  0.604E-05    6.31      71.8  T

   *** convergence criteria satisfied after 9 iterations ***

         #    Occupation            Energy/Eh            Energy/eV
      -------------------------------------------------------------
         1        2.0000           -0.6933314             -18.8665
       ...           ...                  ...                  ...
       702        2.0000           -0.3498958              -9.5211
       703        2.0000           -0.3453180              -9.3966
       704        2.0000           -0.3444518              -9.3730
       705        2.0000           -0.3410412              -9.2802
       706        2.0000           -0.3401789              -9.2567
       707        2.0000           -0.3323250              -9.0430
       708        2.0000           -0.3114452              -8.4749 (HOMO)
       709                         -0.0796024              -2.1661 (LUMO)
       710                         -0.0622547              -1.6940
       711                         -0.0538857              -1.4663
       712                         -0.0458367              -1.2473
       713                         -0.0392718              -1.0686
       ...                                ...                  ...
      1062                          0.4724207              12.8552
      -------------------------------------------------------------
                  HL-Gap            0.2318428 Eh            6.3088 eV
             Fermi-level           -0.1955238 Eh           -5.3205 eV
 
 localization/xTB-IFF output generation
 averaging CT terms over            1  occ. levels
 averaging CT terms over            1  virt. levels
 dipole moment from electron density (au)
     X       Y       Z   
  -2.2506   2.6277   2.6251  total (Debye):   11.039
cpu  time for init local    0.38 s
wall time for init local    0.19 s
 doing rotations ...
 initialization of trafo matrix to unity

 converged in     15 iterations, threshold :   0.99993000D-06
 doing transformations ...
 lmo centers(Z=2) and atoms on file <lmocent.coord>
 LMO Fii/eV  ncent    charge center   contributions...
    1 LP   *******   0.00  -2.04477  -4.31405  -2.30180    1O :  6.54  163O :  4.12   52O :  3.99   22O :  3.84  487O :  3.30  436O :  3.28  403O :  3.23  313O :  3.00  463O :  2.99  346O :  2.86  211O :  2.86  496O :  2.76
   37O :  2.70  454O :  2.65  505O :  2.58  166O :  2.58   28O :  2.51  502O :  2.50  115O :  2.38   43O :  2.36  340O :  2.36   76O :  2.32  142O :  2.30  103O :  2.29
   49O :  2.25  466O :  2.19  529O :  2.18   25O :  2.09  175O :  2.09  199O :  2.05  250O :  2.03  427O :  2.00  187O :  1.99   94O :  1.94  469O :  1.89  442O :  1.82
   40O :  1.82  154O :  1.75  289O :  1.63   31O :  1.61   46O :  1.58  526O :  1.57  379O :  1.54  523O :  1.53    4O :  1.50  220O :  1.47  130O :  1.43   85O :  1.42
  319O :  1.41  448O :  1.41  472O :  1.41  517O :  1.40   58O :  1.38  373O :  1.38  430O :  1.34  391O :  1.29  310O :  1.28  325O :  1.25   64O :  1.24  424O :  1.23
  151O :  1.20  361O :  1.19  415O :  1.19  181O :  1.06  358O :  1.04  109O :  1.03   13O :  1.01  364O :  1.01   91O :  1.01  133O :  1.00  118O :  1.00  292O :  1.00
  382O :  0.99   19O :  0.96  475O :  0.96  202O :  0.95  265O :  0.94  106O :  0.94  322O :  0.93  370O :  0.91  160O :  0.90  112O :  0.88  271O :  0.87  124O :  0.87
  355O :  0.85  409O :  0.85  178O :  0.85  253O :  0.84  217O :  0.84  490O :  0.82  460O :  0.82  238O :  0.80  349O :  0.80  388O :  0.79  367O :  0.78  301O :  0.78
  259O :  0.77   67O :  0.77  316O :  0.76  307O :  0.75  481O :  0.74  232O :  0.70  244O :  0.70  280O :  0.70   78H :  0.69  328O :  0.68  256O :  0.68  400O :  0.67
  520O :  0.67  229O :  0.67  208O :  0.67  298O :  0.64  190O :  0.64   73O :  0.64   82O :  0.63   61O :  0.61  499O :  0.60  304O :  0.60  295O :  0.59  283O :  0.58
  172O :  0.57  376O :  0.57   70O :  0.57  352O :  0.56   88O :  0.55  139O :  0.54  394O :  0.52  343O :  0.51  136O :  0.51   34O :  0.51  347H :  0.50  478O :  0.50
  169O :  0.47   54H :  0.45  100O :  0.44  205O :  0.44  184O :  0.42  121O :  0.42  331O :  0.42   33H :  0.41  214O :  0.41  337O :  0.40   10O :  0.40  439O :  0.40
  312H :  0.40  226O :  0.39  484O :  0.37  508O :  0.37  235O :  0.37   51H :  0.36  157O :  0.36  223O :  0.36  286O :  0.35  525H :  0.33  493O :  0.33  196O :  0.33
  277O :  0.33  110H :  0.32   55O :  0.31   21H :  0.28  212H :  0.28  164H :  0.27    7O :  0.27  193O :  0.27  291H :  0.27  262O :  0.27  473H :  0.25  156H :  0.25
  125H :  0.24  148O :  0.24  457O :  0.23  127O :  0.23  210H :  0.23  381H :  0.23   50H :  0.22  309H :  0.22  528H :  0.21  255H :  0.21   30H :  0.21  527H :  0.20
  462H :  0.19  468H :  0.19  274O :  0.19   96H :  0.18  180H :  0.18   44H :  0.18   97O :  0.18  303H :  0.18  356H :  0.17  514O :  0.17  443H :  0.16  418O :  0.16
   79O :  0.16  444H :  0.16  315H :  0.16  327H :  0.15   72H :  0.15  483H :  0.15  197H :  0.15  228H :  0.14  268O :  0.14   12H :  0.13  201H :  0.13  342H :  0.13
  458H :  0.13  530H :  0.13  522H :  0.13  284H :  0.13  422H :  0.12  449H :  0.12  153H :  0.12  145O :  0.12  437H :  0.12  425H :  0.12  412O :  0.12  167H :  0.11
  513H :  0.11   48H :  0.11  421O :  0.11  476H :  0.11  143H :  0.11   77H :  0.11  503H :  0.11  360H :  0.11  111H :  0.11   16O :  0.11  521H :  0.10  206H :  0.10
  506H :  0.10   29H :  0.10  240H :  0.10  380H :  0.10  138H :  0.10  276H :  0.10   45H :  0.10   24H :  0.10  445O :  0.10   20H :  0.09  406O :  0.09  433O :  0.09
  456H :  0.09  165H :  0.09  104H :  0.09  464H :  0.09   92H :  0.09  350H :  0.08  117H :  0.08    6H :  0.08  132H :  0.08  353H :  0.08  305H :  0.08  334O :  0.08
  294H :  0.08  162H :  0.08  239H :  0.08  451O :  0.08   11H :  0.08  293H :  0.08    3H :  0.08  247O :  0.07  471H :  0.07  485H :  0.07  173H :  0.07  410H :  0.07
    2 LP   *******   0.00  12.74135  -5.09301  12.49520  163O :  6.94   52O :  3.90    1O :  3.83   22O :  3.77  487O :  3.24  436O :  3.22  403O :  3.17  313O :  2.95  463O :  2.94  346O :  2.81  211O :  2.80  496O :  2.71
   37O :  2.65  454O :  2.60  505O :  2.53  166O :  2.53   28O :  2.46  502O :  2.45  115O :  2.34   43O :  2.31  340O :  2.31   76O :  2.28  142O :  2.25  103O :  2.24
   49O :  2.20  466O :  2.15  529O :  2.14   25O :  2.08  175O :  2.05  199O :  2.01  250O :  2.00  427O :  1.96  187O :  1.95   94O :  1.90  469O :  1.85  442O :  1.79
   40O :  1.78  154O :  1.72   31O :  1.59  289O :  1.58   46O :  1.55  526O :  1.54  379O :  1.51  523O :  1.50    4O :  1.47  220O :  1.44  130O :  1.41   85O :  1.39
  319O :  1.39  448O :  1.38  472O :  1.38  517O :  1.37   58O :  1.35  373O :  1.35  430O :  1.32  391O :  1.27  310O :  1.26  325O :  1.22   64O :  1.21  424O :  1.20
  151O :  1.18  361O :  1.17  415O :  1.16  181O :  1.04  358O :  1.02  109O :  1.01   13O :  0.99  364O :  0.99   91O :  0.99  133O :  0.98  292O :  0.98  118O :  0.98
  382O :  0.97   19O :  0.94  475O :  0.94  202O :  0.93  265O :  0.92  106O :  0.92  322O :  0.92  370O :  0.89  160O :  0.88  112O :  0.86  271O :  0.86  124O :  0.86
  355O :  0.84  409O :  0.84  178O :  0.83  253O :  0.83  217O :  0.83  490O :  0.81  460O :  0.81  238O :  0.78  349O :  0.78  388O :  0.78  367O :  0.77  301O :  0.76
   67O :  0.75  316O :  0.75  259O :  0.74  307O :  0.74  481O :  0.72  232O :  0.69  244O :  0.69  280O :  0.69  328O :  0.67   78H :  0.67  256O :  0.66  400O :  0.66
  520O :  0.66  229O :  0.66  208O :  0.65  298O :  0.63  190O :  0.63   73O :  0.63   82O :  0.62   61O :  0.60  499O :  0.59  304O :  0.58  295O :  0.58  283O :  0.57
  172O :  0.56  376O :  0.56   70O :  0.56  352O :  0.55  139O :  0.54   88O :  0.53  394O :  0.51  343O :  0.51  136O :  0.50   34O :  0.50  347H :  0.49  478O :  0.49
  169O :  0.46  100O :  0.46   54H :  0.44  205O :  0.43  184O :  0.41  121O :  0.41  331O :  0.41   33H :  0.41  214O :  0.40  337O :  0.40   10O :  0.39  312H :  0.39
  439O :  0.39  226O :  0.38  484O :  0.37  235O :  0.36  508O :  0.36   51H :  0.36  157O :  0.35  223O :  0.35  286O :  0.34  525H :  0.32  493O :  0.32  196O :  0.32
  277O :  0.32  110H :  0.32   55O :  0.30   21H :  0.28  212H :  0.28    7O :  0.27  193O :  0.27  262O :  0.26  291H :  0.25  473H :  0.25  156H :  0.25  164H :  0.24
  125H :  0.24  148O :  0.23  127O :  0.22  457O :  0.22  381H :  0.22  210H :  0.22   50H :  0.22  309H :  0.21  528H :  0.21  255H :  0.21   30H :  0.20  527H :  0.19
  462H :  0.19  274O :  0.18  468H :  0.18   96H :  0.18  303H :  0.18  180H :  0.18   97O :  0.18   44H :  0.18  356H :  0.17  514O :  0.17  443H :  0.16   79O :  0.16
  418O :  0.16  444H :  0.15  315H :  0.15  327H :  0.15   72H :  0.14  483H :  0.14  197H :  0.14  228H :  0.14  268O :  0.14   12H :  0.13  342H :  0.13  201H :  0.13
  458H :  0.13  530H :  0.13  522H :  0.13  284H :  0.12  422H :  0.12  449H :  0.12  153H :  0.12  145O :  0.12  437H :  0.12  425H :  0.11  412O :  0.11  167H :  0.11
  513H :  0.11   48H :  0.11  421O :  0.11  476H :  0.11  143H :  0.11  503H :  0.11   77H :  0.11  360H :  0.11  111H :  0.10    3H :  0.10   16O :  0.10  521H :  0.10
  206H :  0.10  506H :  0.10   29H :  0.10  240H :  0.10  380H :  0.10  138H :  0.10   45H :  0.10  276H :  0.10   24H :  0.10  445O :  0.10   20H :  0.09  406O :  0.09
  433O :  0.09  456H :  0.09  104H :  0.08  464H :  0.08   92H :  0.08  350H :  0.08  117H :  0.08    6H :  0.08  132H :  0.08  353H :  0.08  305H :  0.08  334O :  0.08
  294H :  0.08  162H :  0.08   11H :  0.08  451O :  0.08  239H :  0.08  293H :  0.08  247O :  0.07  471H :  0.07  485H :  0.07  173H :  0.07
    3 LP   *******   0.00   1.90735  -1.42010  -7.11194   52O :  5.57  163O :  3.44    1O :  3.25   22O :  3.20  487O :  2.75  436O :  2.74  403O :  2.70  313O :  2.51  463O :  2.50  346O :  2.39  211O :  2.38  496O :  2.30
   37O :  2.25  454O :  2.21  505O :  2.15  166O :  2.15   28O :  2.09  502O :  2.08  115O :  1.99   43O :  1.97  340O :  1.97   76O :  1.94  142O :  1.92  103O :  1.91
   49O :  1.87  466O :  1.83  529O :  1.82   25O :  1.77  175O :  1.74  199O :  1.71  250O :  1.70  427O :  1.67  187O :  1.66   94O :  1.61  469O :  1.57  442O :  1.52
   40O :  1.52  154O :  1.46   31O :  1.34  289O :  1.34   46O :  1.31  526O :  1.31  379O :  1.29  523O :  1.27    4O :  1.25  220O :  1.24  130O :  1.19   85O :  1.19
  319O :  1.18  448O :  1.17  472O :  1.17  517O :  1.17  373O :  1.15   58O :  1.15  430O :  1.12  391O :  1.08  310O :  1.07  325O :  1.04   64O :  1.03  424O :  1.02
  151O :  1.00  361O :  0.99  415O :  0.99  181O :  0.88  358O :  0.87  109O :  0.86   13O :  0.85  364O :  0.84   91O :  0.84  133O :  0.84  292O :  0.84  118O :  0.83
  382O :  0.83   19O :  0.80  475O :  0.80  202O :  0.79  265O :  0.79  106O :  0.78  322O :  0.78  370O :  0.76  160O :  0.75  112O :  0.73  271O :  0.73  124O :  0.73
  355O :  0.71  409O :  0.71  178O :  0.71  253O :  0.70  217O :  0.70  490O :  0.69  460O :  0.69  238O :  0.67  349O :  0.66  388O :  0.66  367O :  0.65  301O :  0.65
  259O :  0.64   67O :  0.64  316O :  0.64  307O :  0.63  481O :  0.62   78H :  0.59  232O :  0.59  244O :  0.59  280O :  0.58  328O :  0.57  256O :  0.56  520O :  0.56
  229O :  0.56  208O :  0.55  400O :  0.55  298O :  0.54  190O :  0.54   73O :  0.53   82O :  0.53   61O :  0.51  499O :  0.50  304O :  0.50  295O :  0.50  283O :  0.48
  376O :  0.48  172O :  0.48   70O :  0.47  139O :  0.46   88O :  0.46  352O :  0.45  394O :  0.43  343O :  0.43  136O :  0.43   34O :  0.42  347H :  0.42  478O :  0.41
  169O :  0.39  100O :  0.39  205O :  0.37  184O :  0.35  121O :  0.35  331O :  0.35   33H :  0.35  214O :  0.34  337O :  0.34   10O :  0.34  312H :  0.33  439O :  0.33
  226O :  0.33   54H :  0.32  484O :  0.31  235O :  0.31  508O :  0.31   51H :  0.30  157O :  0.30  223O :  0.30  286O :  0.29  525H :  0.28  493O :  0.27  196O :  0.27
  277O :  0.27  110H :  0.26   55O :  0.26   21H :  0.24  212H :  0.24  164H :  0.23    7O :  0.23  193O :  0.23  262O :  0.23  473H :  0.21  291H :  0.21  156H :  0.21
  125H :  0.20  148O :  0.20  457O :  0.19  127O :  0.19  381H :  0.19  210H :  0.19   50H :  0.18  309H :  0.18  528H :  0.18  255H :  0.17   30H :  0.17  527H :  0.17
  462H :  0.16  468H :  0.16  274O :  0.16   96H :  0.15   97O :  0.15  180H :  0.15   44H :  0.15  303H :  0.15  356H :  0.14  514O :  0.14  443H :  0.14  418O :  0.13
   79O :  0.13  444H :  0.13  315H :  0.13  327H :  0.13   72H :  0.12  483H :  0.12  197H :  0.12   12H :  0.12  228H :  0.12  268O :  0.12  342H :  0.11  458H :  0.11
  201H :  0.11  530H :  0.11  522H :  0.11  284H :  0.10  422H :  0.10  449H :  0.10  153H :  0.10  145O :  0.10  437H :  0.10  425H :  0.10  412O :  0.10  167H :  0.09
  513H :  0.09   48H :  0.09  421O :  0.09  476H :  0.09  143H :  0.09  503H :  0.09   77H :  0.09  360H :  0.09  111H :  0.09   16O :  0.09  521H :  0.09  206H :  0.09
  506H :  0.09   29H :  0.09  240H :  0.09  380H :  0.08  138H :  0.08  276H :  0.08   45H :  0.08   24H :  0.08  445O :  0.08   20H :  0.08  406O :  0.08    3H :  0.08
  433O :  0.07  456H :  0.07  165H :  0.07  104H :  0.07   92H :  0.07  350H :  0.07
    4 LP   *******   0.00   7.03636 -14.04408   2.48084   22O :  5.70  163O :  3.36   52O :  3.24    1O :  3.19  487O :  2.69  436O :  2.68  403O :  2.64  313O :  2.45  463O :  2.44  346O :  2.33  211O :  2.33  496O :  2.25
   37O :  2.20  454O :  2.16  505O :  2.11  166O :  2.10   28O :  2.05  502O :  2.04  115O :  1.95   43O :  1.93  340O :  1.92   76O :  1.90  142O :  1.87  103O :  1.87
   49O :  1.83  466O :  1.79  529O :  1.78   25O :  1.73  175O :  1.70  199O :  1.68  250O :  1.66  427O :  1.63  187O :  1.62   94O :  1.58  469O :  1.54  442O :  1.49
   40O :  1.48  154O :  1.43   31O :  1.32  289O :  1.31   46O :  1.29  526O :  1.28  379O :  1.26  523O :  1.25    4O :  1.21  220O :  1.20  130O :  1.17   85O :  1.16
  319O :  1.15  448O :  1.15  472O :  1.15  517O :  1.14  373O :  1.12   58O :  1.12  430O :  1.10  391O :  1.05  310O :  1.05  325O :  1.02   64O :  1.01  424O :  1.00
  151O :  0.98  361O :  0.97  415O :  0.97  181O :  0.86  358O :  0.85  109O :  0.84   13O :  0.83  364O :  0.82   91O :  0.82  133O :  0.82  118O :  0.82  292O :  0.81
  382O :  0.81   19O :  0.78  475O :  0.78  202O :  0.78  265O :  0.77  106O :  0.76  322O :  0.76  370O :  0.74  160O :  0.73  112O :  0.72  271O :  0.71  124O :  0.71
  355O :  0.70  409O :  0.70  178O :  0.69  253O :  0.69  217O :  0.69  490O :  0.67  460O :  0.67  238O :  0.65  349O :  0.65  388O :  0.64  367O :  0.64  301O :  0.64
  259O :  0.63   67O :  0.63  316O :  0.62  307O :  0.62  481O :  0.60  232O :  0.57  244O :  0.57  280O :  0.57  328O :  0.56   78H :  0.56  256O :  0.55  400O :  0.55
  520O :  0.55  208O :  0.54  298O :  0.53  190O :  0.52   73O :  0.52   82O :  0.52  229O :  0.51   61O :  0.50  499O :  0.49  304O :  0.49  295O :  0.49  283O :  0.47
  172O :  0.47  376O :  0.47   70O :  0.46  352O :  0.46   88O :  0.45  139O :  0.45  394O :  0.42  343O :  0.42  136O :  0.42   34O :  0.42  347H :  0.41  478O :  0.41
  169O :  0.39  100O :  0.38   54H :  0.36  205O :  0.36  184O :  0.35  331O :  0.34   33H :  0.34  214O :  0.34  337O :  0.33   10O :  0.33  121O :  0.33  312H :  0.32
  439O :  0.32  226O :  0.32  484O :  0.31  235O :  0.30  508O :  0.30   51H :  0.30  157O :  0.29  223O :  0.29  286O :  0.28  277O :  0.28  525H :  0.27  493O :  0.27
  196O :  0.27  110H :  0.26   55O :  0.25   21H :  0.23  212H :  0.23  164H :  0.22    7O :  0.22  193O :  0.22  262O :  0.22  291H :  0.21  473H :  0.21  156H :  0.21
  125H :  0.20  148O :  0.19  127O :  0.19  457O :  0.19  381H :  0.19  210H :  0.19   50H :  0.18  309H :  0.18  528H :  0.17  255H :  0.17   30H :  0.17  527H :  0.16
  462H :  0.16  468H :  0.15  274O :  0.15   96H :  0.15  180H :  0.15   97O :  0.15   44H :  0.15  303H :  0.14  356H :  0.14  514O :  0.14  443H :  0.13  418O :  0.13
   79O :  0.13  444H :  0.13  315H :  0.13  327H :  0.12   72H :  0.12  483H :  0.12  197H :  0.12  228H :  0.11  268O :  0.11   12H :  0.11  342H :  0.11  201H :  0.11
  458H :  0.11  530H :  0.11  522H :  0.10  284H :  0.10  422H :  0.10  449H :  0.10  153H :  0.10  145O :  0.10  437H :  0.10  425H :  0.09  412O :  0.09  167H :  0.09
  513H :  0.09   48H :  0.09  421O :  0.09  476H :  0.09  143H :  0.09  503H :  0.09   77H :  0.09  360H :  0.09  111H :  0.09    3H :  0.09   16O :  0.09  521H :  0.09
  206H :  0.08  506H :  0.08   29H :  0.08  240H :  0.08  380H :  0.08  138H :  0.08  276H :  0.08   45H :  0.08  445O :  0.08   20H :  0.08  406O :  0.08  433O :  0.07
  456H :  0.07  165H :  0.07  104H :  0.07
    5 LP   *******   0.00  14.45567   4.31981   9.39634  487O :  4.72  163O :  2.93   52O :  2.82    1O :  2.77   22O :  2.73  436O :  2.33  403O :  2.29  313O :  2.13  463O :  2.13  346O :  2.03  211O :  2.03  496O :  1.96
   37O :  1.92  454O :  1.88  166O :  1.84  505O :  1.83   28O :  1.78  502O :  1.77  115O :  1.69   43O :  1.67  340O :  1.67   76O :  1.65  142O :  1.63  103O :  1.62
   49O :  1.59  466O :  1.55  529O :  1.55   25O :  1.50  175O :  1.48  199O :  1.46  250O :  1.44  427O :  1.42  187O :  1.41   94O :  1.37  469O :  1.34  442O :  1.29
   40O :  1.29  154O :  1.24   31O :  1.15  289O :  1.14   46O :  1.12  526O :  1.11  379O :  1.09  523O :  1.08    4O :  1.06  220O :  1.04  130O :  1.02   85O :  1.01
  319O :  1.00  448O :  1.00  472O :  1.00  517O :  0.99   58O :  0.98  373O :  0.98  430O :  0.95  391O :  0.91  310O :  0.91  325O :  0.88   64O :  0.88  424O :  0.87
  151O :  0.85  361O :  0.85  415O :  0.84  181O :  0.75  358O :  0.74  109O :  0.73   13O :  0.72  364O :  0.72   91O :  0.71  133O :  0.71  292O :  0.71  118O :  0.71
  382O :  0.71   19O :  0.68  475O :  0.68  202O :  0.68  265O :  0.67  106O :  0.66  322O :  0.66  370O :  0.65  160O :  0.64  112O :  0.62  271O :  0.62  124O :  0.62
  355O :  0.61  409O :  0.61  178O :  0.60  253O :  0.60  217O :  0.60  490O :  0.59  460O :  0.58  238O :  0.57  349O :  0.56  388O :  0.56  301O :  0.56  367O :  0.56
  259O :  0.55   67O :  0.54  316O :  0.54  307O :  0.54  481O :  0.52  232O :  0.50  244O :  0.50  280O :  0.50  328O :  0.49   78H :  0.48  256O :  0.48  400O :  0.48
  520O :  0.48  229O :  0.47  208O :  0.47  298O :  0.46  190O :  0.46   73O :  0.45   82O :  0.45   61O :  0.43  499O :  0.42  304O :  0.42  295O :  0.42  283O :  0.41
  172O :  0.41  376O :  0.41   70O :  0.40  352O :  0.40   88O :  0.39  139O :  0.39  394O :  0.37  343O :  0.37  136O :  0.36   34O :  0.36  347H :  0.36  478O :  0.35
  169O :  0.34  100O :  0.33   54H :  0.32  205O :  0.31  184O :  0.30  121O :  0.30  331O :  0.30   33H :  0.29  214O :  0.29  337O :  0.29   10O :  0.29  312H :  0.28
  439O :  0.28  226O :  0.28  484O :  0.27  235O :  0.26  508O :  0.26   51H :  0.26  157O :  0.25  223O :  0.25  286O :  0.25  525H :  0.23  493O :  0.23  277O :  0.23
  196O :  0.23  110H :  0.22   55O :  0.22   21H :  0.20  212H :  0.20  164H :  0.19    7O :  0.19  193O :  0.19  262O :  0.19  291H :  0.18  473H :  0.18  156H :  0.18
  457O :  0.17  125H :  0.17  458H :  0.17  148O :  0.17  127O :  0.16  381H :  0.16  210H :  0.16   50H :  0.16  309H :  0.15  528H :  0.15  255H :  0.15   30H :  0.15
  527H :  0.14  462H :  0.14  468H :  0.13  274O :  0.13   96H :  0.13  180H :  0.13   97O :  0.13   44H :  0.13  303H :  0.13  356H :  0.12  514O :  0.12  443H :  0.12
  418O :  0.11   79O :  0.11  444H :  0.11  315H :  0.11  327H :  0.11   72H :  0.11  483H :  0.10  197H :  0.10  228H :  0.10  268O :  0.10   12H :  0.09  342H :  0.09
  201H :  0.09  530H :  0.09  522H :  0.09  284H :  0.09  422H :  0.09  449H :  0.09  153H :  0.09  145O :  0.08  437H :  0.08  425H :  0.08  412O :  0.08  167H :  0.08
  513H :  0.08   48H :  0.08  421O :  0.08  476H :  0.08  143H :  0.08  503H :  0.08   77H :  0.08  360H :  0.08  111H :  0.07    3H :  0.07   16O :  0.07  521H :  0.07
  206H :  0.07  506H :  0.07   29H :  0.07  240H :  0.07  380H :  0.07  138H :  0.07  276H :  0.07   45H :  0.07   24H :  0.07
    6 LP   *******   0.01 -11.27447   0.41899 -11.20597  403O :  4.57  163O :  2.76   52O :  2.67    1O :  2.62   22O :  2.58  487O :  2.21  436O :  2.20  313O :  2.02  463O :  2.01  346O :  1.92  211O :  1.92  496O :  1.85
   37O :  1.81  454O :  1.78  505O :  1.73  166O :  1.73   28O :  1.68  502O :  1.68  115O :  1.60   43O :  1.58  340O :  1.58   76O :  1.56  142O :  1.54  103O :  1.53
   49O :  1.51  466O :  1.47  529O :  1.46   25O :  1.42  175O :  1.40  199O :  1.38  250O :  1.37  427O :  1.34  187O :  1.34   94O :  1.30  469O :  1.27  442O :  1.22
   40O :  1.22  154O :  1.17   31O :  1.09  289O :  1.08   46O :  1.06  526O :  1.05  379O :  1.03  523O :  1.03    4O :  1.01  220O :  0.99  130O :  0.96   85O :  0.95
  319O :  0.95  448O :  0.95  472O :  0.94  517O :  0.94   58O :  0.92  373O :  0.92  430O :  0.90  391O :  0.86  310O :  0.86  325O :  0.84   64O :  0.83  424O :  0.82
  151O :  0.81  361O :  0.80  415O :  0.80  181O :  0.71  358O :  0.70  109O :  0.69   13O :  0.68  364O :  0.68   91O :  0.68  133O :  0.67  292O :  0.67  118O :  0.67
  382O :  0.67   19O :  0.65  475O :  0.64  202O :  0.64  265O :  0.63  106O :  0.63  322O :  0.63  370O :  0.61  160O :  0.60  112O :  0.59  271O :  0.59  124O :  0.59
  355O :  0.57  409O :  0.57  178O :  0.57  253O :  0.57  217O :  0.57  490O :  0.55  460O :  0.55  238O :  0.54  349O :  0.53  388O :  0.53  367O :  0.52  301O :  0.52
  259O :  0.52   67O :  0.51  316O :  0.51  307O :  0.51  481O :  0.49  232O :  0.47  244O :  0.47  280O :  0.47  328O :  0.46   78H :  0.46  256O :  0.45  400O :  0.45
  520O :  0.45  229O :  0.45  208O :  0.45  298O :  0.43  190O :  0.43   73O :  0.43   82O :  0.42   61O :  0.41  499O :  0.40  304O :  0.40  295O :  0.40  283O :  0.39
  172O :  0.39  376O :  0.38   70O :  0.38  352O :  0.37   88O :  0.37  139O :  0.37  394O :  0.35  343O :  0.35  136O :  0.34   34O :  0.34  347H :  0.34  478O :  0.33
  169O :  0.32  100O :  0.31   54H :  0.30  205O :  0.30  184O :  0.28  121O :  0.28  331O :  0.28   33H :  0.28  214O :  0.28  337O :  0.27   10O :  0.27  312H :  0.27
  439O :  0.27  226O :  0.26  484O :  0.25  508O :  0.25  235O :  0.25   51H :  0.24  157O :  0.24  223O :  0.24  286O :  0.23  525H :  0.22  493O :  0.22  196O :  0.22
  277O :  0.22  110H :  0.21   55O :  0.21   21H :  0.19  212H :  0.19  164H :  0.18    7O :  0.18  193O :  0.18  262O :  0.18  422H :  0.18  291H :  0.17  473H :  0.17
  156H :  0.17  125H :  0.16  148O :  0.16  127O :  0.15  457O :  0.15  381H :  0.15  210H :  0.15   50H :  0.15  309H :  0.15  528H :  0.14  255H :  0.14   30H :  0.14
  527H :  0.13  462H :  0.13  468H :  0.13  274O :  0.12   96H :  0.12  180H :  0.12   97O :  0.12   44H :  0.12  303H :  0.12  356H :  0.11  514O :  0.11  443H :  0.11
  418O :  0.11   79O :  0.11  444H :  0.11  315H :  0.10  327H :  0.10   72H :  0.10  483H :  0.10  197H :  0.10  228H :  0.09  268O :  0.09   12H :  0.09  342H :  0.09
  201H :  0.09  458H :  0.09  530H :  0.09  522H :  0.09  284H :  0.08  421O :  0.08  449H :  0.08  153H :  0.08  145O :  0.08  437H :  0.08  425H :  0.08  412O :  0.08
  167H :  0.08  513H :  0.07   48H :  0.07  476H :  0.07  143H :  0.07  503H :  0.07   77H :  0.07  360H :  0.07  111H :  0.07    3H :  0.07   16O :  0.07
    7 LP   *******   0.01  -1.70062  -8.86217  10.67107  313O :  4.29  163O :  2.65   52O :  2.56    1O :  2.52   22O :  2.48  487O :  2.13  436O :  2.11  403O :  2.08  463O :  1.93  346O :  1.84  211O :  1.84  496O :  1.78
   37O :  1.74  454O :  1.71  505O :  1.67  166O :  1.66   28O :  1.62  502O :  1.61  115O :  1.54   43O :  1.52  340O :  1.52   76O :  1.50  142O :  1.48  103O :  1.47
   49O :  1.45  466O :  1.41  529O :  1.41   25O :  1.36  175O :  1.34  199O :  1.32  250O :  1.31  427O :  1.29  187O :  1.28   94O :  1.25  469O :  1.22  442O :  1.17
   40O :  1.17  154O :  1.13   31O :  1.05  289O :  1.04   46O :  1.02  526O :  1.01  379O :  0.99  523O :  0.99    4O :  0.97  220O :  0.95  130O :  0.92   85O :  0.92
  319O :  0.91  448O :  0.91  472O :  0.91  517O :  0.90   58O :  0.89  373O :  0.89  430O :  0.87  391O :  0.83  310O :  0.83  325O :  0.80   64O :  0.80  424O :  0.79
  151O :  0.77  361O :  0.77  415O :  0.77  181O :  0.68  358O :  0.67  109O :  0.66   13O :  0.65  364O :  0.65   91O :  0.65  133O :  0.65  118O :  0.65  292O :  0.65
  382O :  0.64   19O :  0.62  475O :  0.62  202O :  0.61  265O :  0.61  106O :  0.60  322O :  0.60  370O :  0.59  160O :  0.58  112O :  0.57  271O :  0.56  124O :  0.56
  355O :  0.55  409O :  0.55  178O :  0.55  253O :  0.54  217O :  0.54  490O :  0.53  460O :  0.53  238O :  0.51  349O :  0.51  388O :  0.51  367O :  0.50  301O :  0.50
  259O :  0.49   67O :  0.49  316O :  0.49  307O :  0.49  481O :  0.48  232O :  0.45  244O :  0.45  280O :  0.45  328O :  0.44   78H :  0.44  256O :  0.44  400O :  0.43
  520O :  0.43  229O :  0.43  208O :  0.43  298O :  0.42  190O :  0.41   73O :  0.41   82O :  0.41   61O :  0.39  499O :  0.39  304O :  0.38  295O :  0.38  283O :  0.37
  172O :  0.37  376O :  0.37   70O :  0.37  352O :  0.36   88O :  0.36  139O :  0.35  394O :  0.33  343O :  0.33  136O :  0.33   34O :  0.33  347H :  0.32  478O :  0.32
  169O :  0.30  100O :  0.30   54H :  0.29  205O :  0.28  184O :  0.27  121O :  0.27  331O :  0.27   33H :  0.27  337O :  0.26   10O :  0.26  214O :  0.26  312H :  0.25
  439O :  0.25  226O :  0.25  484O :  0.24  235O :  0.24  508O :  0.24   51H :  0.23  157O :  0.23  223O :  0.23  286O :  0.23  525H :  0.21  493O :  0.21  196O :  0.21
  277O :  0.21  110H :  0.20   55O :  0.20   21H :  0.19  212H :  0.18  164H :  0.18    7O :  0.18  193O :  0.18  262O :  0.17  291H :  0.17  473H :  0.16  156H :  0.16
  513H :  0.16  125H :  0.16  148O :  0.15  127O :  0.15  457O :  0.15  381H :  0.15  210H :  0.15   50H :  0.14  309H :  0.14  528H :  0.14  255H :  0.14   30H :  0.13
  527H :  0.13  462H :  0.12  468H :  0.12  274O :  0.12   96H :  0.12  180H :  0.12   97O :  0.12   44H :  0.12  303H :  0.11  356H :  0.11  514O :  0.11  443H :  0.11
  418O :  0.10   79O :  0.10  444H :  0.10  327H :  0.10   72H :  0.09  483H :  0.09  197H :  0.09  228H :  0.09  268O :  0.09  342H :  0.09   12H :  0.08  201H :  0.08
  458H :  0.08  530H :  0.08  522H :  0.08  284H :  0.08  422H :  0.08  449H :  0.08  315H :  0.08  153H :  0.08  145O :  0.08  437H :  0.08  425H :  0.07  412O :  0.07
  167H :  0.07   48H :  0.07  421O :  0.07  476H :  0.07  143H :  0.07  503H :  0.07   77H :  0.07
    8 LP   *******   0.01  13.14090  -2.86421  -7.30920  211O :  3.94  163O :  2.64   52O :  2.54    1O :  2.50   22O :  2.46  487O :  2.11  436O :  2.10  403O :  2.07  313O :  1.92  463O :  1.92  346O :  1.83  496O :  1.77
   37O :  1.73  454O :  1.70  505O :  1.65  166O :  1.65   28O :  1.61  502O :  1.60  115O :  1.53   43O :  1.51  340O :  1.51   76O :  1.49  142O :  1.47  103O :  1.46
   49O :  1.44  466O :  1.40  529O :  1.40   25O :  1.36  199O :  1.34  175O :  1.34  250O :  1.30  427O :  1.28  187O :  1.28   94O :  1.24  469O :  1.21  442O :  1.17
   40O :  1.17  154O :  1.12   31O :  1.04  289O :  1.03   46O :  1.01  526O :  1.01  379O :  0.99  523O :  0.98    4O :  0.96  220O :  0.94  130O :  0.92   85O :  0.91
  319O :  0.90  448O :  0.90  472O :  0.90  517O :  0.90   58O :  0.89  373O :  0.88  430O :  0.86  391O :  0.83  310O :  0.82  325O :  0.80   64O :  0.79  424O :  0.79
  151O :  0.77  361O :  0.76  415O :  0.76  181O :  0.68  358O :  0.67   91O :  0.66  109O :  0.66   13O :  0.65  364O :  0.65  133O :  0.64  118O :  0.64  292O :  0.64
  382O :  0.64   19O :  0.62  475O :  0.61  202O :  0.61  265O :  0.60  106O :  0.60  322O :  0.60  370O :  0.58  160O :  0.58  112O :  0.56  271O :  0.56  124O :  0.56
  355O :  0.55  409O :  0.55  178O :  0.54  253O :  0.54  217O :  0.54  490O :  0.53  460O :  0.52  238O :  0.51  349O :  0.51  388O :  0.51  367O :  0.50  301O :  0.50
  259O :  0.49  316O :  0.49   67O :  0.49  307O :  0.48  481O :  0.47  232O :  0.45  244O :  0.45  280O :  0.45   78H :  0.44  328O :  0.44  256O :  0.43  400O :  0.43
  520O :  0.43  229O :  0.43  208O :  0.43  298O :  0.41  190O :  0.41   73O :  0.41   82O :  0.40   61O :  0.39  499O :  0.38  304O :  0.38  295O :  0.38  283O :  0.37
  172O :  0.37  376O :  0.37   70O :  0.36  352O :  0.36   88O :  0.35  139O :  0.35  394O :  0.33  343O :  0.33  136O :  0.33   34O :  0.33  347H :  0.32  478O :  0.32
  169O :  0.30  100O :  0.30   54H :  0.29  205O :  0.28  184O :  0.27  121O :  0.27  331O :  0.27   33H :  0.27  214O :  0.26   10O :  0.26  312H :  0.25  439O :  0.25
  226O :  0.25  337O :  0.25  484O :  0.24  235O :  0.24  508O :  0.24   51H :  0.23  157O :  0.23  223O :  0.23  286O :  0.22  525H :  0.21  493O :  0.21  196O :  0.21
  277O :  0.21  110H :  0.20   55O :  0.20   21H :  0.18  164H :  0.18    7O :  0.17  193O :  0.17  262O :  0.17  212H :  0.16  291H :  0.16  473H :  0.16  156H :  0.16
  125H :  0.15  148O :  0.15  457O :  0.15  127O :  0.15  381H :  0.15  210H :  0.15   50H :  0.14  309H :  0.14  528H :  0.14  255H :  0.13   30H :  0.13  527H :  0.13
  462H :  0.13  468H :  0.12  274O :  0.12   96H :  0.12  180H :  0.12   97O :  0.11   44H :  0.11  303H :  0.11  356H :  0.11  514O :  0.11  443H :  0.10  418O :  0.10
   79O :  0.10  444H :  0.10  315H :  0.10  327H :  0.10   72H :  0.09  483H :  0.09  197H :  0.09  228H :  0.09  268O :  0.09   12H :  0.08  201H :  0.08  342H :  0.08
  458H :  0.08  530H :  0.08  522H :  0.08  284H :  0.08  422H :  0.08  449H :  0.08  153H :  0.08  145O :  0.08  437H :  0.08  425H :  0.08  412O :  0.07  167H :  0.07
  513H :  0.07   48H :  0.07  421O :  0.07  476H :  0.07  143H :  0.07   77H :  0.07  503H :  0.07
    9 LP   *******   0.01 -15.33306  -5.07710   8.46297  502O :  4.00  163O :  2.60   52O :  2.51    1O :  2.47   22O :  2.43  487O :  2.08  436O :  2.07  403O :  2.04  313O :  1.90  463O :  1.89  346O :  1.81  211O :  1.81
  496O :  1.75   37O :  1.71  454O :  1.67  505O :  1.63  166O :  1.63   28O :  1.58  115O :  1.51   43O :  1.49  340O :  1.49   76O :  1.47  142O :  1.45  103O :  1.44
   49O :  1.42  466O :  1.38  529O :  1.38   25O :  1.34  175O :  1.32  199O :  1.30  250O :  1.29  427O :  1.26  187O :  1.26   94O :  1.22  469O :  1.19  442O :  1.15
   40O :  1.15  154O :  1.11   31O :  1.02  289O :  1.02   46O :  1.00  526O :  0.99  379O :  0.97  523O :  0.97    4O :  0.95  220O :  0.93  130O :  0.91   85O :  0.90
  319O :  0.89  448O :  0.89  472O :  0.89  517O :  0.88  373O :  0.87   58O :  0.87  430O :  0.85  391O :  0.81  310O :  0.81  325O :  0.79   64O :  0.78  424O :  0.78
  151O :  0.76  361O :  0.75  415O :  0.75  181O :  0.67  358O :  0.66  109O :  0.65   13O :  0.64  364O :  0.64   91O :  0.64  133O :  0.63  118O :  0.63  292O :  0.63
  382O :  0.63   19O :  0.61  475O :  0.60  202O :  0.60  265O :  0.60  106O :  0.59  322O :  0.59  370O :  0.58  160O :  0.57  112O :  0.56  271O :  0.55  124O :  0.55
  355O :  0.54  409O :  0.54  178O :  0.54  253O :  0.53  217O :  0.53  490O :  0.52  460O :  0.52  238O :  0.50  349O :  0.50  388O :  0.50  367O :  0.49  301O :  0.49
  259O :  0.49   67O :  0.48  316O :  0.48  307O :  0.48  481O :  0.47  232O :  0.44  244O :  0.44  280O :  0.44   78H :  0.43  256O :  0.43  400O :  0.42  520O :  0.42
  229O :  0.42  208O :  0.42  328O :  0.41  298O :  0.41  190O :  0.41   73O :  0.40   82O :  0.40   61O :  0.38  499O :  0.38  304O :  0.38  295O :  0.38  283O :  0.36
  172O :  0.36  376O :  0.36   70O :  0.36  352O :  0.35   88O :  0.35  139O :  0.35  394O :  0.33  343O :  0.33  136O :  0.32   34O :  0.32  347H :  0.32  478O :  0.31
  169O :  0.30  100O :  0.30   54H :  0.28  205O :  0.28  184O :  0.27  121O :  0.27  331O :  0.26   33H :  0.26  214O :  0.26  337O :  0.26   10O :  0.25  312H :  0.25
  439O :  0.25  226O :  0.25  484O :  0.24  235O :  0.23  508O :  0.23   51H :  0.23  157O :  0.23  223O :  0.23  286O :  0.22  525H :  0.21  493O :  0.21  196O :  0.21
  277O :  0.21  110H :  0.20   55O :  0.19   21H :  0.18  212H :  0.18  164H :  0.17    7O :  0.17  193O :  0.17  262O :  0.17  291H :  0.16  473H :  0.16  156H :  0.16
  125H :  0.15  148O :  0.15  127O :  0.14  457O :  0.14  381H :  0.14  210H :  0.14   50H :  0.14  309H :  0.14  528H :  0.13  255H :  0.13   30H :  0.13  527H :  0.13
  462H :  0.12  468H :  0.12  274O :  0.12   96H :  0.12  180H :  0.11   97O :  0.11   44H :  0.11  303H :  0.11  356H :  0.11  514O :  0.11  443H :  0.10  418O :  0.10
   79O :  0.10  444H :  0.10  315H :  0.10  327H :  0.10   72H :  0.09  483H :  0.09  197H :  0.09  228H :  0.09  268O :  0.09   12H :  0.08  342H :  0.08  201H :  0.08
  458H :  0.08  530H :  0.08  522H :  0.08  284H :  0.08  422H :  0.08  449H :  0.08  153H :  0.08  145O :  0.08  437H :  0.08  425H :  0.07  412O :  0.07  167H :  0.07
  513H :  0.07   48H :  0.07  421O :  0.07  476H :  0.07
   10 LP   *******   0.01  -7.29721  -4.55433   0.85741   25O :  3.32  163O :  2.50   52O :  2.42    1O :  2.35   22O :  2.33  487O :  2.00  436O :  1.99  403O :  1.96  313O :  1.82  463O :  1.82  211O :  1.73  346O :  1.73
  496O :  1.68   37O :  1.64  454O :  1.61  505O :  1.57  166O :  1.56   28O :  1.52  502O :  1.52  115O :  1.45   43O :  1.43  340O :  1.43   76O :  1.41  142O :  1.39
  103O :  1.39   49O :  1.36  466O :  1.33  529O :  1.32  175O :  1.26  199O :  1.25  250O :  1.23  427O :  1.21  187O :  1.21   94O :  1.17  469O :  1.14  442O :  1.10
   40O :  1.10  154O :  1.06   31O :  0.98  289O :  0.97   46O :  0.96  526O :  0.95  379O :  0.93  523O :  0.93    4O :  0.91  220O :  0.89  130O :  0.87   85O :  0.86
  319O :  0.86  448O :  0.85  472O :  0.85  517O :  0.85   58O :  0.84  373O :  0.83  430O :  0.82  391O :  0.78  310O :  0.77  325O :  0.75   64O :  0.75  424O :  0.74
  151O :  0.73  361O :  0.72  415O :  0.72  181O :  0.64  358O :  0.63  109O :  0.62  364O :  0.62   13O :  0.62   91O :  0.61  133O :  0.61  118O :  0.61  292O :  0.61
  382O :  0.60   19O :  0.58  475O :  0.58  202O :  0.58  265O :  0.57  106O :  0.57  322O :  0.57  370O :  0.55  160O :  0.55  271O :  0.53  124O :  0.53  355O :  0.52
  409O :  0.52  178O :  0.52  253O :  0.51  217O :  0.51  112O :  0.51  490O :  0.50  460O :  0.50  238O :  0.48  349O :  0.48  388O :  0.48  367O :  0.47  301O :  0.47
  259O :  0.47   67O :  0.46  316O :  0.46  307O :  0.46  481O :  0.45  232O :  0.43  244O :  0.43  280O :  0.43  328O :  0.42   78H :  0.41  256O :  0.41  520O :  0.41
  400O :  0.41  229O :  0.41  208O :  0.40  298O :  0.39  190O :  0.39   73O :  0.39   82O :  0.38   61O :  0.37  499O :  0.36  295O :  0.36  304O :  0.36  283O :  0.35
  172O :  0.35  376O :  0.35  139O :  0.34   70O :  0.34  352O :  0.34   88O :  0.34  394O :  0.31  343O :  0.31  136O :  0.31   34O :  0.31  347H :  0.30  478O :  0.30
  169O :  0.29  100O :  0.28   54H :  0.27  205O :  0.27  184O :  0.26  121O :  0.25  331O :  0.25  214O :  0.25   33H :  0.25  337O :  0.25   10O :  0.24  439O :  0.24
  226O :  0.24  312H :  0.23  484O :  0.23  235O :  0.22  508O :  0.22   51H :  0.22  157O :  0.22  223O :  0.22  286O :  0.21  525H :  0.20  493O :  0.20  196O :  0.20
  277O :  0.20  110H :  0.19   55O :  0.19   21H :  0.17  212H :  0.17  164H :  0.17    7O :  0.17  193O :  0.17  291H :  0.16  262O :  0.16  473H :  0.15  156H :  0.15
  125H :  0.15  148O :  0.14  210H :  0.14  457O :  0.14  127O :  0.14  381H :  0.14   50H :  0.13  309H :  0.13  528H :  0.13  255H :  0.13   30H :  0.13  527H :  0.12
  462H :  0.12  468H :  0.11  274O :  0.11   96H :  0.11   97O :  0.11  180H :  0.11   44H :  0.11  303H :  0.11  356H :  0.10  514O :  0.10  443H :  0.10  418O :  0.10
   79O :  0.10  444H :  0.10  315H :  0.09  327H :  0.09   72H :  0.09  483H :  0.09  197H :  0.09  228H :  0.09  268O :  0.08   12H :  0.08  342H :  0.08  201H :  0.08
  458H :  0.08  530H :  0.08  522H :  0.08  284H :  0.08  422H :  0.08  449H :  0.07  153H :  0.07  145O :  0.07  437H :  0.07  425H :  0.07
   11 LP   *******   0.01  -7.27535   6.34108   5.29194  346O :  3.90  163O :  2.50   52O :  2.41    1O :  2.37   22O :  2.33  487O :  2.00  436O :  1.99  403O :  1.96  313O :  1.82  463O :  1.81  211O :  1.73  496O :  1.67
   37O :  1.64  454O :  1.61  505O :  1.56  166O :  1.56  502O :  1.51   28O :  1.51  115O :  1.44   43O :  1.43  340O :  1.43   76O :  1.41  142O :  1.39  103O :  1.39
   49O :  1.36  466O :  1.33  529O :  1.32   25O :  1.28  175O :  1.26  199O :  1.24  250O :  1.23  427O :  1.21  187O :  1.21   94O :  1.17  469O :  1.14  442O :  1.10
  154O :  1.06   40O :  1.04   31O :  0.98  289O :  0.98   46O :  0.95  526O :  0.95  379O :  0.93  523O :  0.93    4O :  0.91  220O :  0.89  130O :  0.87   85O :  0.86
  319O :  0.86  448O :  0.85  517O :  0.85  472O :  0.84   58O :  0.83  373O :  0.83  430O :  0.81  391O :  0.78  310O :  0.78  325O :  0.75   64O :  0.75  424O :  0.74
  151O :  0.73  361O :  0.72  415O :  0.72  181O :  0.64  358O :  0.63  109O :  0.62  364O :  0.61   13O :  0.61   91O :  0.61  133O :  0.61  118O :  0.61  292O :  0.61
  382O :  0.60   19O :  0.58  475O :  0.58  202O :  0.57  265O :  0.57  106O :  0.57  322O :  0.57  370O :  0.55  160O :  0.55  112O :  0.53  271O :  0.53  124O :  0.53
  355O :  0.52  409O :  0.52  178O :  0.51  253O :  0.51  217O :  0.51  490O :  0.50  460O :  0.50  238O :  0.48  349O :  0.48  388O :  0.48  367O :  0.48  301O :  0.47
  259O :  0.47   67O :  0.46  316O :  0.46  307O :  0.46  481O :  0.45  232O :  0.43  244O :  0.43  280O :  0.42  328O :  0.41   78H :  0.41  256O :  0.41  520O :  0.41
  400O :  0.41  229O :  0.40  208O :  0.40  298O :  0.39  190O :  0.39   73O :  0.39   82O :  0.38   61O :  0.37  499O :  0.36  304O :  0.36  295O :  0.36  283O :  0.35
  172O :  0.35  376O :  0.35   70O :  0.34  352O :  0.34   88O :  0.34  139O :  0.33  394O :  0.31  343O :  0.31  136O :  0.31   34O :  0.31  478O :  0.30  169O :  0.29
  100O :  0.28   54H :  0.27  347H :  0.27  205O :  0.27  184O :  0.26  121O :  0.25  331O :  0.25   33H :  0.25  214O :  0.25  337O :  0.25   10O :  0.24  439O :  0.24
  312H :  0.24  226O :  0.24  484O :  0.23  235O :  0.22  508O :  0.22   51H :  0.22  157O :  0.22  223O :  0.22  286O :  0.21  525H :  0.20  493O :  0.20  196O :  0.20
  277O :  0.20  110H :  0.19   55O :  0.19   21H :  0.17  212H :  0.17  164H :  0.17    7O :  0.17  193O :  0.16  262O :  0.16  291H :  0.16  473H :  0.15  156H :  0.15
  125H :  0.15  148O :  0.14  210H :  0.14  127O :  0.14  457O :  0.14  381H :  0.14   50H :  0.13   30H :  0.13  309H :  0.13  528H :  0.13  255H :  0.13  527H :  0.12
  462H :  0.12  468H :  0.11  274O :  0.11   96H :  0.11  180H :  0.11   44H :  0.11   97O :  0.11  303H :  0.11  356H :  0.10  514O :  0.10  443H :  0.10  418O :  0.10
   79O :  0.10  444H :  0.10  315H :  0.09  327H :  0.09   72H :  0.09  483H :  0.09  197H :  0.09  228H :  0.09  268O :  0.08   12H :  0.08  342H :  0.08  201H :  0.08
  458H :  0.08  530H :  0.08  522H :  0.08  284H :  0.08  422H :  0.08  449H :  0.07  153H :  0.07  145O :  0.07  437H :  0.07  425H :  0.07  412O :  0.07
   12 LP   *******   0.01  10.12955  -3.93257   2.43620  115O :  3.33  163O :  2.49   52O :  2.41    1O :  2.37   22O :  2.33  487O :  1.99  436O :  1.99  403O :  1.96  313O :  1.82  463O :  1.81  211O :  1.73  346O :  1.73
  496O :  1.67   37O :  1.63  454O :  1.60  166O :  1.56  505O :  1.56   28O :  1.52  502O :  1.51   43O :  1.43  340O :  1.42   76O :  1.41  142O :  1.39  103O :  1.38
   49O :  1.36  466O :  1.32  529O :  1.32   25O :  1.28  175O :  1.26  199O :  1.26  250O :  1.23  427O :  1.21  187O :  1.20   94O :  1.17  469O :  1.14  442O :  1.10
   40O :  1.10  154O :  1.06   31O :  0.98  289O :  0.97   46O :  0.95  526O :  0.95  379O :  0.93  523O :  0.92    4O :  0.91  220O :  0.89  130O :  0.87   85O :  0.86
  448O :  0.85  319O :  0.85  472O :  0.85  517O :  0.85  373O :  0.83   58O :  0.83  430O :  0.81  391O :  0.78  310O :  0.78  325O :  0.75   64O :  0.75  424O :  0.74
  151O :  0.73  361O :  0.72  415O :  0.72  181O :  0.64  358O :  0.63  109O :  0.62   13O :  0.61  364O :  0.61   91O :  0.61  133O :  0.61  118O :  0.61  292O :  0.61
  382O :  0.60   19O :  0.58  475O :  0.58  202O :  0.58  265O :  0.57  106O :  0.57  322O :  0.57  370O :  0.55  160O :  0.54  112O :  0.53  271O :  0.53  124O :  0.53
  355O :  0.52  409O :  0.52  178O :  0.51  253O :  0.51  217O :  0.51  490O :  0.50  460O :  0.50  238O :  0.48  349O :  0.48  388O :  0.48  367O :  0.47  301O :  0.47
  316O :  0.47   67O :  0.46  259O :  0.46  307O :  0.46  481O :  0.45  232O :  0.43  244O :  0.43  280O :  0.42  328O :  0.41   78H :  0.41  256O :  0.41  400O :  0.41
  520O :  0.41  229O :  0.40  208O :  0.40  298O :  0.39  190O :  0.39   73O :  0.39   82O :  0.38   61O :  0.37  499O :  0.36  304O :  0.36  295O :  0.36  283O :  0.35
  172O :  0.35  376O :  0.35   70O :  0.34  352O :  0.34   88O :  0.33  139O :  0.33  394O :  0.31  343O :  0.31  136O :  0.31   34O :  0.31  347H :  0.30  478O :  0.30
  169O :  0.29  100O :  0.28   54H :  0.27  205O :  0.27  184O :  0.26  121O :  0.25  331O :  0.25   33H :  0.25  214O :  0.25  337O :  0.24   10O :  0.24  312H :  0.24
  439O :  0.24  226O :  0.24  484O :  0.23  235O :  0.22  508O :  0.22   51H :  0.22  157O :  0.22  223O :  0.22  286O :  0.21  525H :  0.20  493O :  0.20  277O :  0.20
  110H :  0.19   55O :  0.18  196O :  0.18   21H :  0.17  212H :  0.17  164H :  0.17  193O :  0.16  262O :  0.16    7O :  0.16  291H :  0.16  473H :  0.15  156H :  0.15
  125H :  0.15  148O :  0.14  457O :  0.14  127O :  0.14  381H :  0.14  210H :  0.14   50H :  0.13  309H :  0.13  528H :  0.13  255H :  0.13   30H :  0.13  527H :  0.12
  274O :  0.12  462H :  0.12  468H :  0.11   96H :  0.11  180H :  0.11   97O :  0.11   44H :  0.11  303H :  0.11  356H :  0.10  514O :  0.10  418O :  0.10  443H :  0.10
   79O :  0.10  444H :  0.10  315H :  0.09  327H :  0.09  201H :  0.09   72H :  0.09  483H :  0.09  197H :  0.09  228H :  0.08  268O :  0.08   12H :  0.08  342H :  0.08
  458H :  0.08  522H :  0.08  530H :  0.08  284H :  0.08  422H :  0.08  449H :  0.07  153H :  0.07  145O :  0.07  437H :  0.07  275H :  0.07  425H :  0.07
   13 LP   *******   0.01   7.85781  -0.69264  -3.83105  199O :  3.09  163O :  2.42   52O :  2.33    1O :  2.29   22O :  2.25  487O :  1.93  436O :  1.92  403O :  1.90  313O :  1.76  463O :  1.76  211O :  1.72  346O :  1.68
  496O :  1.62   37O :  1.58  454O :  1.55  505O :  1.51  166O :  1.51   28O :  1.47  502O :  1.47  115O :  1.41   43O :  1.38  340O :  1.38   76O :  1.37  142O :  1.35
  103O :  1.34   49O :  1.32  466O :  1.28  529O :  1.28   25O :  1.24  175O :  1.22  250O :  1.19  187O :  1.17  427O :  1.16   94O :  1.14  469O :  1.11  442O :  1.07
   40O :  1.07  154O :  1.03   31O :  0.95  289O :  0.95   46O :  0.92  526O :  0.92  379O :  0.90  523O :  0.90    4O :  0.88  220O :  0.87  130O :  0.84   85O :  0.83
  319O :  0.83  448O :  0.83  472O :  0.82   58O :  0.82  517O :  0.82  373O :  0.81  430O :  0.79  391O :  0.76  310O :  0.75  325O :  0.73   64O :  0.72  424O :  0.72
  151O :  0.70  361O :  0.70  415O :  0.70  181O :  0.62  358O :  0.61  109O :  0.60   13O :  0.59   91O :  0.59  364O :  0.59  118O :  0.59  133O :  0.59  292O :  0.59
  382O :  0.58   19O :  0.56  475O :  0.56  202O :  0.56  265O :  0.55  106O :  0.55  322O :  0.55  370O :  0.53  160O :  0.53  112O :  0.51  271O :  0.51  124O :  0.51
  355O :  0.50  409O :  0.50  178O :  0.50  253O :  0.50  217O :  0.49  490O :  0.48  460O :  0.48  238O :  0.47  349O :  0.47  388O :  0.46  367O :  0.46  301O :  0.46
  259O :  0.45   67O :  0.45  316O :  0.45  307O :  0.44  481O :  0.43  232O :  0.41  244O :  0.41  280O :  0.41   78H :  0.40  328O :  0.40  256O :  0.40  400O :  0.39
  520O :  0.39  229O :  0.39  208O :  0.39  298O :  0.38  190O :  0.38   73O :  0.37   82O :  0.37   61O :  0.36  499O :  0.35  304O :  0.35  295O :  0.35  283O :  0.34
  172O :  0.34  376O :  0.34   70O :  0.33  352O :  0.33   88O :  0.32  139O :  0.32  394O :  0.30  343O :  0.30  136O :  0.30   34O :  0.30  347H :  0.29  478O :  0.29
  169O :  0.28  100O :  0.27   54H :  0.26  205O :  0.26  184O :  0.25  121O :  0.25  331O :  0.25   33H :  0.24  214O :  0.24  337O :  0.24   10O :  0.24  226O :  0.23
  312H :  0.23  439O :  0.23  484O :  0.22  235O :  0.22  508O :  0.22   51H :  0.21  157O :  0.21  223O :  0.21  286O :  0.20  525H :  0.19  493O :  0.19  196O :  0.19
  277O :  0.19  110H :  0.18   55O :  0.18  212H :  0.17   21H :  0.17  164H :  0.16    7O :  0.16  193O :  0.16  262O :  0.16  291H :  0.15  473H :  0.15  156H :  0.15
  125H :  0.14  148O :  0.14  457O :  0.13  127O :  0.13  381H :  0.13  210H :  0.13   50H :  0.13  309H :  0.13  528H :  0.13  255H :  0.12   30H :  0.12  527H :  0.12
  462H :  0.11  468H :  0.11  274O :  0.11   96H :  0.11  180H :  0.11   97O :  0.11   44H :  0.11  303H :  0.10  356H :  0.10  514O :  0.10  443H :  0.10  418O :  0.09
   79O :  0.09  444H :  0.09  315H :  0.09  327H :  0.09  228H :  0.09   72H :  0.09  483H :  0.09  197H :  0.08  268O :  0.08  530H :  0.08   12H :  0.08  342H :  0.08
  458H :  0.08  522H :  0.08  284H :  0.07  422H :  0.07  449H :  0.07  153H :  0.07
   14 LP   *******   0.01  -5.27323   0.40320  -7.10242  463O :  3.68  163O :  2.41   52O :  2.33    1O :  2.29   22O :  2.25  403O :  1.93  487O :  1.93  436O :  1.92  313O :  1.76  346O :  1.67  211O :  1.67  496O :  1.62
   37O :  1.58  454O :  1.55  505O :  1.51  166O :  1.51   28O :  1.47  502O :  1.46  115O :  1.40   43O :  1.38  340O :  1.38   76O :  1.36  142O :  1.34  103O :  1.34
   49O :  1.31  466O :  1.28  529O :  1.28   25O :  1.24  175O :  1.22  199O :  1.20  250O :  1.19  427O :  1.17  187O :  1.17   94O :  1.13  469O :  1.10  442O :  1.07
   40O :  1.06  154O :  1.02  289O :  0.95   31O :  0.94   46O :  0.92  526O :  0.92  379O :  0.90  523O :  0.89    4O :  0.88  220O :  0.86  130O :  0.84   85O :  0.83
  319O :  0.83  448O :  0.82  472O :  0.82  517O :  0.82  373O :  0.81   58O :  0.81  430O :  0.79  391O :  0.75  310O :  0.75  325O :  0.73   64O :  0.72  424O :  0.72
  151O :  0.70  361O :  0.70  415O :  0.70  181O :  0.62  358O :  0.61  109O :  0.60   13O :  0.59  364O :  0.59   91O :  0.59  133O :  0.59  118O :  0.59  292O :  0.59
  382O :  0.58   19O :  0.56  475O :  0.56  202O :  0.56  265O :  0.55  106O :  0.55  322O :  0.55  370O :  0.53  160O :  0.53  112O :  0.51  271O :  0.51  124O :  0.51
  355O :  0.50  409O :  0.50  178O :  0.50  253O :  0.49  217O :  0.49  490O :  0.48  460O :  0.48  238O :  0.47  349O :  0.47  388O :  0.46  367O :  0.46  301O :  0.46
  259O :  0.45   67O :  0.45  316O :  0.45  307O :  0.44  481O :  0.43  232O :  0.41  244O :  0.41  280O :  0.41  328O :  0.40   78H :  0.40  256O :  0.40  520O :  0.39
  229O :  0.39  208O :  0.39  298O :  0.38  190O :  0.38  400O :  0.37   82O :  0.37   73O :  0.36   61O :  0.36  499O :  0.35  295O :  0.35  304O :  0.35  283O :  0.34
  172O :  0.34  376O :  0.33   70O :  0.33  352O :  0.33   88O :  0.32  139O :  0.32  394O :  0.30  343O :  0.30  136O :  0.30   34O :  0.30  347H :  0.29  478O :  0.29
  169O :  0.28  100O :  0.27   54H :  0.26  205O :  0.26   33H :  0.25  184O :  0.25  121O :  0.25  331O :  0.24  214O :  0.24  337O :  0.24   10O :  0.24  312H :  0.23
  439O :  0.23  226O :  0.23  484O :  0.22  235O :  0.22  508O :  0.22   51H :  0.21  223O :  0.21  157O :  0.21  286O :  0.20  525H :  0.19  493O :  0.19  196O :  0.19
  277O :  0.19  110H :  0.18   55O :  0.18   21H :  0.17  212H :  0.17  164H :  0.16    7O :  0.16  193O :  0.16  262O :  0.16  291H :  0.15  473H :  0.15  156H :  0.15
  125H :  0.14  148O :  0.14  127O :  0.13  457O :  0.13  381H :  0.13  210H :  0.13   50H :  0.13  309H :  0.13  528H :  0.12  255H :  0.12   30H :  0.12  527H :  0.12
  462H :  0.11  468H :  0.11  274O :  0.11   96H :  0.11   97O :  0.11  180H :  0.11   44H :  0.10  303H :  0.10  356H :  0.10  514O :  0.10  443H :  0.10  418O :  0.09
  444H :  0.09   79O :  0.09  315H :  0.09  327H :  0.09   72H :  0.09  483H :  0.09  197H :  0.08  228H :  0.08  268O :  0.08   12H :  0.08  342H :  0.08  201H :  0.08
  458H :  0.08  530H :  0.08  522H :  0.08  284H :  0.07  422H :  0.07  449H :  0.07  153H :  0.07
   15 LP   *******   0.01   2.28235   0.40559   0.80648  529O :  2.89  163O :  2.42   52O :  2.33    1O :  2.29   22O :  2.25  487O :  1.93  436O :  1.92  403O :  1.89  313O :  1.76  463O :  1.76  211O :  1.68  346O :  1.68
  496O :  1.62   37O :  1.58  454O :  1.55  505O :  1.51  166O :  1.51   28O :  1.47  502O :  1.46  115O :  1.40   43O :  1.38  340O :  1.38   76O :  1.36  142O :  1.35
  103O :  1.34   49O :  1.32  466O :  1.28   25O :  1.24  175O :  1.22  199O :  1.20  250O :  1.19  427O :  1.17  187O :  1.17   94O :  1.13  469O :  1.11  442O :  1.07
   40O :  1.07  154O :  1.03   31O :  0.95  289O :  0.94  526O :  0.93   46O :  0.92  379O :  0.90  523O :  0.90    4O :  0.88  220O :  0.86  130O :  0.84   85O :  0.83
  319O :  0.83  448O :  0.82  472O :  0.82  517O :  0.82   58O :  0.81  373O :  0.81  430O :  0.79  391O :  0.76  310O :  0.76  325O :  0.73   64O :  0.72  424O :  0.72
  151O :  0.70  361O :  0.70  415O :  0.70  181O :  0.62  358O :  0.61  109O :  0.60   13O :  0.59  133O :  0.59  364O :  0.59   91O :  0.59  292O :  0.59  118O :  0.59
  382O :  0.58   19O :  0.56  475O :  0.56  202O :  0.56  265O :  0.55  106O :  0.55  322O :  0.55  370O :  0.53  160O :  0.53  112O :  0.51  271O :  0.51  124O :  0.51
  355O :  0.50  409O :  0.50  178O :  0.50  253O :  0.50  217O :  0.49  490O :  0.48  460O :  0.48  238O :  0.47  349O :  0.47  388O :  0.46  367O :  0.46  301O :  0.46
  259O :  0.45   67O :  0.45  316O :  0.45  307O :  0.44  481O :  0.43  232O :  0.41  244O :  0.41  280O :  0.41   78H :  0.40  328O :  0.40  256O :  0.40  400O :  0.39
  520O :  0.39  229O :  0.39  208O :  0.39  298O :  0.38  190O :  0.38   73O :  0.37   82O :  0.37   61O :  0.36  499O :  0.35  304O :  0.35  295O :  0.35  283O :  0.34
  172O :  0.34  376O :  0.34   70O :  0.33  352O :  0.33   88O :  0.32  139O :  0.32  394O :  0.30  343O :  0.30  136O :  0.30   34O :  0.30  347H :  0.29  478O :  0.29
  169O :  0.28  100O :  0.27   54H :  0.26  205O :  0.26  184O :  0.25  121O :  0.25  331O :  0.25   33H :  0.24  214O :  0.24  337O :  0.24   10O :  0.24  312H :  0.23
  439O :  0.23  226O :  0.23  484O :  0.22  235O :  0.22  508O :  0.22   51H :  0.21  157O :  0.21  223O :  0.21  286O :  0.20  525H :  0.19  493O :  0.19  196O :  0.19
  277O :  0.19  110H :  0.18  527H :  0.18   55O :  0.18   21H :  0.17  212H :  0.17  164H :  0.16  193O :  0.16    7O :  0.16  262O :  0.16  291H :  0.15  473H :  0.15
  156H :  0.15  125H :  0.14  148O :  0.14  127O :  0.13  457O :  0.13  210H :  0.13  381H :  0.13   50H :  0.13  309H :  0.13  255H :  0.12   30H :  0.12  528H :  0.12
  462H :  0.11  468H :  0.11  274O :  0.11   96H :  0.11  180H :  0.11   44H :  0.11   97O :  0.11  303H :  0.10  356H :  0.10  514O :  0.10  443H :  0.10  418O :  0.09
   79O :  0.09  444H :  0.09  315H :  0.09  327H :  0.09   72H :  0.09  483H :  0.09  197H :  0.09  228H :  0.08  268O :  0.08   12H :  0.08  342H :  0.08  458H :  0.08
  201H :  0.08  522H :  0.08  284H :  0.07  422H :  0.07  449H :  0.07  153H :  0.07
   16 LP   *******   0.01   3.28132  -5.73812  -6.79941   76O :  2.62  163O :  2.32   52O :  2.27    1O :  2.21   22O :  2.16  487O :  1.86  436O :  1.85  403O :  1.82  313O :  1.69  463O :  1.69  211O :  1.62  346O :  1.61
  496O :  1.56   37O :  1.52  454O :  1.49  505O :  1.45  166O :  1.45   28O :  1.41  502O :  1.41  115O :  1.34   43O :  1.33  340O :  1.33  142O :  1.29  103O :  1.29
   49O :  1.27  466O :  1.23  529O :  1.23   25O :  1.19  175O :  1.18  199O :  1.17   78H :  1.16  250O :  1.15  427O :  1.12  187O :  1.12   94O :  1.09  469O :  1.06
  442O :  1.03   40O :  1.02  154O :  0.99   31O :  0.91  289O :  0.91   46O :  0.89  526O :  0.88  379O :  0.87  523O :  0.86    4O :  0.85  220O :  0.83  130O :  0.81
   85O :  0.80  319O :  0.80  448O :  0.79  472O :  0.79  517O :  0.79   58O :  0.78  373O :  0.78  430O :  0.76  391O :  0.73  310O :  0.72  325O :  0.70   64O :  0.70
  424O :  0.69  151O :  0.68  361O :  0.67  415O :  0.67  181O :  0.60  358O :  0.59  109O :  0.58   13O :  0.57  364O :  0.57   91O :  0.57  133O :  0.57  118O :  0.56
  292O :  0.56  382O :  0.56   19O :  0.54  475O :  0.54  202O :  0.54  265O :  0.53  106O :  0.53  322O :  0.53  370O :  0.51  160O :  0.51  112O :  0.49  271O :  0.49
  124O :  0.49  355O :  0.48  409O :  0.48  178O :  0.48  253O :  0.48  217O :  0.47  490O :  0.47  460O :  0.46  238O :  0.45  349O :  0.45  388O :  0.44  367O :  0.44
  301O :  0.44  259O :  0.43   67O :  0.43  316O :  0.43  307O :  0.42  481O :  0.42  232O :  0.40  244O :  0.40  280O :  0.39  328O :  0.39  256O :  0.38  400O :  0.38
  520O :  0.38  229O :  0.38  208O :  0.37  298O :  0.36  190O :  0.36   73O :  0.36   82O :  0.36   61O :  0.34  499O :  0.34  304O :  0.34  295O :  0.33  283O :  0.33
  172O :  0.32  376O :  0.32   70O :  0.32  352O :  0.31   88O :  0.31  139O :  0.31  394O :  0.29  343O :  0.29  136O :  0.29   34O :  0.29  347H :  0.28  478O :  0.28
  169O :  0.27  100O :  0.25   54H :  0.25  205O :  0.25  184O :  0.24  121O :  0.24  331O :  0.24   33H :  0.23  214O :  0.23  337O :  0.23   10O :  0.23  312H :  0.22
  439O :  0.22  226O :  0.22  484O :  0.21  235O :  0.21  508O :  0.21   51H :  0.20  157O :  0.20  223O :  0.20  286O :  0.20  525H :  0.19  493O :  0.19  196O :  0.18
  277O :  0.18  110H :  0.18   55O :  0.17   21H :  0.16  212H :  0.16  164H :  0.15    7O :  0.15  193O :  0.15  262O :  0.15  291H :  0.14  473H :  0.14  156H :  0.14
  125H :  0.14  148O :  0.13  457O :  0.13  127O :  0.13  381H :  0.13  210H :  0.13   50H :  0.12  309H :  0.12  528H :  0.12  255H :  0.12   30H :  0.12  527H :  0.11
  462H :  0.11  468H :  0.10  274O :  0.10   96H :  0.10  180H :  0.10   97O :  0.10   44H :  0.10  303H :  0.10  356H :  0.10  514O :  0.10  443H :  0.09  418O :  0.09
   79O :  0.09  444H :  0.09  315H :  0.09  327H :  0.09   72H :  0.08  483H :  0.08  197H :  0.08  228H :  0.08  268O :  0.08   12H :  0.08  201H :  0.08  342H :  0.07
  458H :  0.07  522H :  0.07  530H :  0.07  284H :  0.07  422H :  0.07
   17 LP   *******   0.01  -0.64321  -4.73828   6.04257  505O :  3.35  163O :  2.28   52O :  2.20    1O :  2.16   22O :  2.13  487O :  1.83  436O :  1.82  403O :  1.79  313O :  1.67  463O :  1.66  346O :  1.58  211O :  1.58
  496O :  1.53   37O :  1.49  454O :  1.47  166O :  1.43   28O :  1.39  502O :  1.38  340O :  1.35  115O :  1.32   43O :  1.31   76O :  1.29  142O :  1.27  103O :  1.27
   49O :  1.24  466O :  1.21  529O :  1.21   25O :  1.17  175O :  1.16  199O :  1.14  250O :  1.13  427O :  1.11  187O :  1.10   94O :  1.07  469O :  1.04  442O :  1.01
   40O :  1.01  154O :  0.97   31O :  0.90  289O :  0.89   46O :  0.87  526O :  0.87  379O :  0.85  523O :  0.85    4O :  0.83  220O :  0.81  130O :  0.79   85O :  0.79
  319O :  0.78  448O :  0.78  472O :  0.78  517O :  0.77   58O :  0.76  373O :  0.76  430O :  0.74  391O :  0.71  310O :  0.71  325O :  0.69   64O :  0.68  424O :  0.68
  151O :  0.67  361O :  0.66  415O :  0.66  181O :  0.59  358O :  0.58  109O :  0.57   13O :  0.56   19O :  0.56  364O :  0.56   91O :  0.56  133O :  0.56  292O :  0.55
  118O :  0.55  382O :  0.55  475O :  0.53  202O :  0.53  265O :  0.52  106O :  0.52  322O :  0.52  370O :  0.50  160O :  0.50  112O :  0.49  271O :  0.48  355O :  0.47
  409O :  0.47  124O :  0.47  178O :  0.47  253O :  0.47  217O :  0.47  490O :  0.46  460O :  0.46  238O :  0.44  349O :  0.44  388O :  0.44  367O :  0.43  301O :  0.43
  259O :  0.42   67O :  0.42  316O :  0.42  307O :  0.42  481O :  0.41  232O :  0.39  244O :  0.39  280O :  0.39  328O :  0.38   78H :  0.38  256O :  0.37  400O :  0.37
  520O :  0.37  229O :  0.37  208O :  0.37  298O :  0.36  190O :  0.36   73O :  0.35   82O :  0.35   61O :  0.34  499O :  0.33  304O :  0.33  295O :  0.33  283O :  0.32
  172O :  0.32  376O :  0.32   70O :  0.31  352O :  0.31   88O :  0.31  139O :  0.30  394O :  0.29  343O :  0.29  136O :  0.28   34O :  0.28  347H :  0.28   21H :  0.28
  478O :  0.27  169O :  0.26  100O :  0.26   54H :  0.25  205O :  0.24  184O :  0.23  121O :  0.23  331O :  0.23   33H :  0.23  214O :  0.23  337O :  0.22   10O :  0.22
  439O :  0.22  312H :  0.22  226O :  0.22  484O :  0.21  235O :  0.20  508O :  0.20   51H :  0.20  157O :  0.20  223O :  0.20  286O :  0.19  525H :  0.18  493O :  0.18
  277O :  0.18  196O :  0.18  110H :  0.18   55O :  0.17  212H :  0.16    7O :  0.15  164H :  0.15  193O :  0.15  262O :  0.15  291H :  0.14  473H :  0.14  156H :  0.14
  125H :  0.13  148O :  0.13  127O :  0.13  457O :  0.13  381H :  0.13  210H :  0.13   50H :  0.12  309H :  0.12  528H :  0.12  255H :  0.12   30H :  0.12  527H :  0.11
  462H :  0.11  468H :  0.10  274O :  0.10   96H :  0.10  180H :  0.10   97O :  0.10   44H :  0.10  303H :  0.10  356H :  0.09  514O :  0.09  443H :  0.09  418O :  0.09
  315H :  0.09   79O :  0.09  444H :  0.09  327H :  0.08   72H :  0.08  483H :  0.08  197H :  0.08  228H :  0.08  268O :  0.08  342H :  0.07   12H :  0.07  458H :  0.07
  201H :  0.07  530H :  0.07  522H :  0.07
   18 LP   *******   0.01  17.44007   6.85789  -6.57321  496O :  3.47  163O :  2.28   52O :  2.20    1O :  2.16   22O :  2.12  487O :  1.82  436O :  1.81  403O :  1.79  313O :  1.66  463O :  1.66  346O :  1.58  211O :  1.58
   37O :  1.49  454O :  1.47  505O :  1.43  166O :  1.42   28O :  1.39  502O :  1.38  115O :  1.32   43O :  1.30  340O :  1.30   76O :  1.28  142O :  1.27  103O :  1.26
   49O :  1.24  466O :  1.21  529O :  1.21   25O :  1.17  175O :  1.15  199O :  1.14  250O :  1.13  427O :  1.10  187O :  1.10   94O :  1.07  469O :  1.04  442O :  1.01
   40O :  1.01  154O :  0.97   31O :  0.90  289O :  0.89   46O :  0.87  526O :  0.87  523O :  0.85  379O :  0.85    4O :  0.83  220O :  0.81  130O :  0.79   85O :  0.79
  319O :  0.78  448O :  0.78  472O :  0.78  517O :  0.77   58O :  0.76  373O :  0.76  430O :  0.74  391O :  0.71  310O :  0.71  325O :  0.69   64O :  0.68  151O :  0.66
  361O :  0.66  415O :  0.66  424O :  0.64  181O :  0.59  358O :  0.58  109O :  0.57   13O :  0.56  364O :  0.56   91O :  0.56  133O :  0.56  118O :  0.55  292O :  0.55
  382O :  0.55   19O :  0.53  475O :  0.53  202O :  0.53  265O :  0.52  106O :  0.52  322O :  0.52  370O :  0.50  160O :  0.50  112O :  0.49  271O :  0.48  124O :  0.48
  355O :  0.47  409O :  0.47  178O :  0.47  253O :  0.47  217O :  0.47  490O :  0.46  460O :  0.45  238O :  0.44  349O :  0.44  388O :  0.44  367O :  0.43  301O :  0.43
  259O :  0.42   67O :  0.42  316O :  0.42  307O :  0.42  481O :  0.41  232O :  0.39  244O :  0.39  280O :  0.39  328O :  0.38   78H :  0.38  256O :  0.37  400O :  0.37
  520O :  0.37  229O :  0.37  208O :  0.37  298O :  0.36  190O :  0.36   73O :  0.35   82O :  0.35   61O :  0.34  499O :  0.33  304O :  0.33  295O :  0.33  283O :  0.32
  172O :  0.32  376O :  0.32   70O :  0.31  352O :  0.31   88O :  0.31  139O :  0.30  394O :  0.29  343O :  0.29  136O :  0.28   34O :  0.28  347H :  0.28  478O :  0.27
  169O :  0.26  100O :  0.26   54H :  0.25  205O :  0.24  184O :  0.23  121O :  0.23  331O :  0.23   33H :  0.23  214O :  0.23  337O :  0.22   10O :  0.22  312H :  0.22
  439O :  0.22  226O :  0.22  235O :  0.20  508O :  0.20  484O :  0.20   51H :  0.20  157O :  0.20  223O :  0.20  286O :  0.19  525H :  0.18  493O :  0.18  196O :  0.18
  277O :  0.18  110H :  0.17   55O :  0.17   21H :  0.16  212H :  0.16  164H :  0.15    7O :  0.15  193O :  0.15  262O :  0.15  291H :  0.14  473H :  0.14  156H :  0.14
  125H :  0.13  148O :  0.13  127O :  0.13  457O :  0.13  210H :  0.13  381H :  0.12   50H :  0.12  309H :  0.12  528H :  0.12  255H :  0.12   30H :  0.12  527H :  0.11
  462H :  0.10  468H :  0.10  274O :  0.10   96H :  0.10  180H :  0.10   97O :  0.10   44H :  0.10  303H :  0.10  356H :  0.09  514O :  0.09  443H :  0.09  418O :  0.09
   79O :  0.09  444H :  0.09  315H :  0.09  327H :  0.08   72H :  0.08  483H :  0.08  197H :  0.08  228H :  0.08  268O :  0.08   12H :  0.07  342H :  0.07  201H :  0.07
  458H :  0.07  530H :  0.07  522H :  0.07
   19 LP   *******   0.01 -17.67002  -2.15316  -6.20062  466O :  3.35  163O :  2.25   52O :  2.17    1O :  2.13   22O :  2.09  487O :  1.80  436O :  1.79  403O :  1.76  313O :  1.64  463O :  1.63  346O :  1.56  211O :  1.56
  496O :  1.51   37O :  1.47  454O :  1.44  505O :  1.41  166O :  1.40   28O :  1.37  502O :  1.36  115O :  1.30   43O :  1.29  340O :  1.29   76O :  1.27  142O :  1.25
  103O :  1.25   49O :  1.22  529O :  1.19   25O :  1.15  175O :  1.14  199O :  1.12  250O :  1.11  427O :  1.09  187O :  1.09   94O :  1.06  469O :  1.03  442O :  0.99
   40O :  0.99  154O :  0.95   31O :  0.88  289O :  0.88   46O :  0.86  526O :  0.86  379O :  0.84  523O :  0.83    4O :  0.82  220O :  0.80  130O :  0.78   85O :  0.77
  319O :  0.77  448O :  0.77  472O :  0.77  517O :  0.76   58O :  0.75  373O :  0.75  430O :  0.73  391O :  0.70  310O :  0.70  325O :  0.68   64O :  0.67  424O :  0.67
  151O :  0.65  361O :  0.65  415O :  0.65  181O :  0.58  358O :  0.57  109O :  0.56   13O :  0.55  364O :  0.55   91O :  0.55  133O :  0.55  292O :  0.55  118O :  0.55
  382O :  0.54   19O :  0.52  475O :  0.52  202O :  0.52  265O :  0.51  106O :  0.51  322O :  0.51  370O :  0.50  160O :  0.49  112O :  0.48  271O :  0.48  124O :  0.48
  355O :  0.47  409O :  0.47  178O :  0.46  253O :  0.46  217O :  0.46  490O :  0.45  460O :  0.45  238O :  0.43  349O :  0.43  388O :  0.43  367O :  0.43  301O :  0.43
  259O :  0.42   67O :  0.42  316O :  0.42  307O :  0.41  481O :  0.40  232O :  0.39  244O :  0.38  280O :  0.38  328O :  0.37   78H :  0.37  256O :  0.37  400O :  0.37
  520O :  0.37  229O :  0.36  208O :  0.36  298O :  0.35  190O :  0.35   73O :  0.35   82O :  0.34   61O :  0.33  499O :  0.33  304O :  0.32  295O :  0.32  283O :  0.32
  172O :  0.31  376O :  0.31   70O :  0.31  352O :  0.30   88O :  0.30  139O :  0.30  394O :  0.28  343O :  0.28  136O :  0.28   34O :  0.28  347H :  0.27  478O :  0.27
  169O :  0.26  100O :  0.26   54H :  0.24  205O :  0.24  184O :  0.23  121O :  0.23  331O :  0.23   33H :  0.23  214O :  0.22  337O :  0.22   10O :  0.22  312H :  0.22
  439O :  0.22  226O :  0.21  484O :  0.20  235O :  0.20  508O :  0.20   51H :  0.20  157O :  0.19  223O :  0.19  286O :  0.19  525H :  0.18  493O :  0.18  196O :  0.18
  277O :  0.18  110H :  0.17   55O :  0.17   21H :  0.15  212H :  0.15  164H :  0.15    7O :  0.15  193O :  0.15  262O :  0.15  291H :  0.14  473H :  0.14  156H :  0.14
  125H :  0.13  148O :  0.13  127O :  0.12  457O :  0.12  381H :  0.12  210H :  0.12   50H :  0.12  309H :  0.12  528H :  0.12   30H :  0.11  255H :  0.11  527H :  0.11
  462H :  0.10  274O :  0.10   96H :  0.10  180H :  0.10   97O :  0.10   44H :  0.10  303H :  0.10  225H :  0.09  356H :  0.09  514O :  0.09  468H :  0.09  443H :  0.09
  418O :  0.09   79O :  0.09  444H :  0.09  315H :  0.08  327H :  0.08   72H :  0.08  483H :  0.08  197H :  0.08  228H :  0.08  268O :  0.08   12H :  0.07  342H :  0.07
  201H :  0.07  458H :  0.07  530H :  0.07  522H :  0.07
   20 LP   *******   0.01  19.69608   5.78820   6.58476  166O :  3.51  163O :  2.25   52O :  2.17    1O :  2.13   22O :  2.10  487O :  1.81  436O :  1.79  403O :  1.76  313O :  1.64  463O :  1.63  346O :  1.56  211O :  1.56
  496O :  1.51   37O :  1.47  454O :  1.45  505O :  1.41   28O :  1.37  502O :  1.36  115O :  1.30   43O :  1.29  340O :  1.29   76O :  1.27  142O :  1.25  103O :  1.25
   49O :  1.23  466O :  1.19  529O :  1.19   25O :  1.16  175O :  1.14  199O :  1.12  250O :  1.11  427O :  1.09  187O :  1.09   94O :  1.06  469O :  1.03  442O :  0.99
   40O :  0.99  154O :  0.96   31O :  0.89  289O :  0.88   46O :  0.86  526O :  0.86  379O :  0.84  523O :  0.83    4O :  0.82  220O :  0.80  130O :  0.78   85O :  0.78
  319O :  0.77  448O :  0.77  472O :  0.77  517O :  0.76   58O :  0.75  373O :  0.75  430O :  0.73  391O :  0.70  310O :  0.70  325O :  0.68   64O :  0.68  424O :  0.67
  151O :  0.66  361O :  0.65  415O :  0.65  181O :  0.58  358O :  0.57  109O :  0.56   13O :  0.55  364O :  0.55   91O :  0.55  133O :  0.55  118O :  0.55  292O :  0.55
  382O :  0.54   19O :  0.52  475O :  0.52  202O :  0.52  265O :  0.51  106O :  0.51  322O :  0.51  370O :  0.50  160O :  0.49  112O :  0.48  271O :  0.48  124O :  0.48
  355O :  0.47  409O :  0.47  178O :  0.46  253O :  0.46  217O :  0.46  490O :  0.45  460O :  0.45  238O :  0.44  349O :  0.43  388O :  0.43  367O :  0.43  301O :  0.43
  259O :  0.42   67O :  0.42  316O :  0.42  307O :  0.41  481O :  0.40  232O :  0.38  244O :  0.38  280O :  0.38  328O :  0.37   78H :  0.37  256O :  0.37  400O :  0.37
  520O :  0.37  229O :  0.36  208O :  0.36  298O :  0.35  190O :  0.35   73O :  0.35   82O :  0.34   61O :  0.33  499O :  0.33  304O :  0.32  295O :  0.32  283O :  0.32
  172O :  0.31  376O :  0.31   70O :  0.31  352O :  0.30   88O :  0.30  139O :  0.30  394O :  0.28  343O :  0.28  136O :  0.28   34O :  0.28  347H :  0.27  478O :  0.27
  169O :  0.26  100O :  0.26   54H :  0.24  205O :  0.24  184O :  0.23  121O :  0.23  331O :  0.23   33H :  0.23  214O :  0.22  337O :  0.22   10O :  0.22  312H :  0.22
  439O :  0.22  226O :  0.21  484O :  0.20  235O :  0.20  508O :  0.20   51H :  0.20  157O :  0.20  223O :  0.20  286O :  0.19  525H :  0.18  493O :  0.18  196O :  0.18
  277O :  0.18  110H :  0.17   55O :  0.17   21H :  0.15  212H :  0.15  193O :  0.15  164H :  0.15    7O :  0.15  262O :  0.15  291H :  0.14  473H :  0.14  156H :  0.14
  125H :  0.13  148O :  0.13  457O :  0.12  127O :  0.12  381H :  0.12  210H :  0.12   50H :  0.12  309H :  0.12  528H :  0.12  255H :  0.11   30H :  0.11  527H :  0.11
  462H :  0.10  468H :  0.10  274O :  0.10   96H :  0.10  180H :  0.10   97O :  0.10   44H :  0.10  303H :  0.10  356H :  0.09  443H :  0.09  418O :  0.09   79O :  0.09
  514O :  0.09  444H :  0.09  315H :  0.08  327H :  0.08   72H :  0.08  483H :  0.08  197H :  0.08  228H :  0.08  268O :  0.08  458H :  0.07   12H :  0.07  342H :  0.07
  201H :  0.07  530H :  0.07  522H :  0.07
   21 LP   *******   0.01  19.48776  -4.68718   1.28919  436O :  3.82  163O :  2.21   52O :  2.14    1O :  2.10   22O :  2.06  487O :  1.77  403O :  1.74  313O :  1.61  463O :  1.61  346O :  1.54  211O :  1.54  496O :  1.48
   37O :  1.45  454O :  1.42  505O :  1.39  166O :  1.38   28O :  1.35  502O :  1.34  115O :  1.28   43O :  1.27  340O :  1.27   76O :  1.25  142O :  1.23  103O :  1.23
   49O :  1.21  466O :  1.18  529O :  1.17   25O :  1.14  175O :  1.12  199O :  1.10  250O :  1.09  427O :  1.07  187O :  1.07   94O :  1.04  469O :  1.01  442O :  0.98
   40O :  0.98  154O :  0.94   31O :  0.87  289O :  0.87   46O :  0.85  526O :  0.84  379O :  0.83  523O :  0.82    4O :  0.81  220O :  0.79  130O :  0.77   85O :  0.76
  319O :  0.76  448O :  0.76  472O :  0.76  517O :  0.75  373O :  0.74   58O :  0.74  430O :  0.72  391O :  0.69  310O :  0.69  325O :  0.67   64O :  0.66  424O :  0.66
  151O :  0.65  415O :  0.64  361O :  0.62  181O :  0.57  358O :  0.56  292O :  0.55  109O :  0.55   13O :  0.54  364O :  0.54   91O :  0.54  133O :  0.54  118O :  0.54
  382O :  0.53   19O :  0.52  475O :  0.51  202O :  0.51  265O :  0.51  106O :  0.50  322O :  0.50  370O :  0.49  160O :  0.48  112O :  0.47  271O :  0.47  124O :  0.47
  355O :  0.46  409O :  0.46  178O :  0.46  253O :  0.45  217O :  0.45  490O :  0.44  460O :  0.44  238O :  0.43  349O :  0.43  388O :  0.42  301O :  0.42  367O :  0.42
  259O :  0.41   67O :  0.41  316O :  0.41  307O :  0.41  481O :  0.40  232O :  0.38  244O :  0.38  280O :  0.38  328O :  0.37   78H :  0.37  256O :  0.36  400O :  0.36
  520O :  0.36  229O :  0.36  208O :  0.36  298O :  0.35  190O :  0.34   73O :  0.34   82O :  0.34   61O :  0.33  499O :  0.32  304O :  0.32  295O :  0.32  283O :  0.31
  172O :  0.31  376O :  0.31   70O :  0.30  352O :  0.30   88O :  0.30  139O :  0.30  394O :  0.28  343O :  0.28  136O :  0.28   34O :  0.27  347H :  0.27  478O :  0.27
  169O :  0.25  100O :  0.25   54H :  0.24  205O :  0.24  184O :  0.23  121O :  0.23  331O :  0.22   33H :  0.22  214O :  0.22  439O :  0.22  337O :  0.22   10O :  0.22
  312H :  0.21  226O :  0.21  484O :  0.20  235O :  0.20  508O :  0.20   51H :  0.19  157O :  0.19  223O :  0.19  286O :  0.19  525H :  0.18  493O :  0.18  196O :  0.18
  277O :  0.17  110H :  0.17   55O :  0.16   21H :  0.15  212H :  0.15  164H :  0.15    7O :  0.15  193O :  0.15  262O :  0.14  291H :  0.14  473H :  0.14  156H :  0.14
  125H :  0.13  148O :  0.13  127O :  0.12  457O :  0.12  381H :  0.12  210H :  0.12   50H :  0.12  309H :  0.12  528H :  0.11  255H :  0.11   30H :  0.11  527H :  0.11
  462H :  0.10  468H :  0.10  274O :  0.10   96H :  0.10  180H :  0.10   97O :  0.10   44H :  0.10  303H :  0.09  356H :  0.09  514O :  0.09  443H :  0.09   79O :  0.09
[...]
   145   8 o    1.857 --   147 h    0.864   146 h    0.807
   146   1 h    0.876 --   145 o    0.807
   147   1 h    0.902 --   145 o    0.864
   148   8 o    1.861 --   150 h    0.842   149 h    0.790
   149   1 h    0.876 --   148 o    0.790
   150   1 h    0.890 --   148 o    0.842
   151   8 o    1.857 --   152 h    0.904   153 h    0.825
   152   1 h    0.912 --   151 o    0.904
   153   1 h    0.871 --   151 o    0.825
   154   8 o    1.885 --   155 h    0.854   156 h    0.817
   155   1 h    0.897 --   154 o    0.854
   156   1 h    0.871 --   154 o    0.817
   157   8 o    1.846 --   158 h    0.885   159 h    0.808
   158   1 h    0.909 --   157 o    0.885
   159   1 h    0.875 --   157 o    0.808
   160   8 o    1.849 --   161 h    0.807   162 h    0.796
   161   1 h    0.882 --   160 o    0.807
   162   1 h    0.867 --   160 o    0.796
   163   8 o    1.824 --   165 h    0.869   164 h    0.844
   164   1 h    0.894 --   163 o    0.844
   165   1 h    0.898 --   163 o    0.869
   166   8 o    1.806 --   168 h    0.850   167 h    0.844
   167   1 h    0.894 --   166 o    0.844
   168   1 h    0.901 --   166 o    0.850
   169   8 o    1.846 --   171 h    0.917   170 h    0.777
   170   1 h    0.879 --   169 o    0.777
   171   1 h    0.923 --   169 o    0.917
   172   8 o    1.861 --   174 h    0.913   173 h    0.794
   173   1 h    0.875 --   172 o    0.794
   174   1 h    0.918 --   172 o    0.913
   175   8 o    1.858 --   176 h    0.813   177 h    0.810
   176   1 h    0.885 --   175 o    0.813
   177   1 h    0.880 --   175 o    0.810
   178   8 o    1.844 --   180 h    0.862   179 h    0.819
   179   1 h    0.880 --   178 o    0.819
   180   1 h    0.892 --   178 o    0.862
   181   8 o    1.888 --   182 h    0.821   183 h    0.803
   182   1 h    0.887 --   181 o    0.821
   183   1 h    0.875 --   181 o    0.803
   184   8 o    1.858 --   186 h    0.843   185 h    0.794
   185   1 h    0.874 --   184 o    0.794
   186   1 h    0.891 --   184 o    0.843
   187   8 o    1.841 --   188 h    0.889   189 h    0.807
   188   1 h    0.907 --   187 o    0.889
   189   1 h    0.879 --   187 o    0.807
   190   8 o    1.864 --   192 h    0.827   191 h    0.819
   191   1 h    0.881 --   190 o    0.819
   192   1 h    0.894 --   190 o    0.827
   193   8 o    1.878 --   195 h    0.810   194 h    0.801
   194   1 h    0.882 --   193 o    0.801
   195   1 h    0.883 --   193 o    0.810
   196   8 o    1.857 --   198 h    0.854   197 h    0.837
   197   1 h    0.887 --   196 o    0.837
   198   1 h    0.889 --   196 o    0.854
   199   8 o    1.851 --   201 h    0.832   200 h    0.820
   200   1 h    0.891 --   199 o    0.820
   201   1 h    0.882 --   199 o    0.832
   202   8 o    1.841 --   204 h    0.889   203 h    0.802
   203   1 h    0.875 --   202 o    0.802
   204   1 h    0.906 --   202 o    0.889
   205   8 o    1.876 --   207 h    0.862   206 h    0.823
   206   1 h    0.886 --   205 o    0.823
   207   1 h    0.894 --   205 o    0.862
   208   8 o    1.852 --   209 h    0.824   210 h    0.803
   209   1 h    0.888 --   208 o    0.824
   210   1 h    0.868 --   208 o    0.803
   211   8 o    1.861 --   212 h    0.840   213 h    0.836
   212   1 h    0.891 --   211 o    0.840
   213   1 h    0.893 --   211 o    0.836
   214   8 o    1.876 --   216 h    0.844   215 h    0.802
   215   1 h    0.873 --   214 o    0.802
   216   1 h    0.890 --   214 o    0.844
   217   8 o    1.871 --   219 h    0.851   218 h    0.844
   218   1 h    0.893 --   217 o    0.844
   219   1 h    0.898 --   217 o    0.851
   220   8 o    1.850 --   222 h    0.808   221 h    0.803
   221   1 h    0.895 --   220 o    0.803
   222   1 h    0.883 --   220 o    0.808
   223   8 o    1.855 --   224 h    0.877   225 h    0.811
   224   1 h    0.900 --   223 o    0.877
   225   1 h    0.882 --   223 o    0.811
   226   8 o    1.860 --   228 h    0.810   227 h    0.807
   227   1 h    0.886 --   226 o    0.807
   228   1 h    0.877 --   226 o    0.810
   229   8 o    1.843 --   231 h    0.906   230 h    0.777
   230   1 h    0.870 --   229 o    0.777
   231   1 h    0.915 --   229 o    0.906
   232   8 o    1.820 --   234 h    0.869   233 h    0.869
   233   1 h    0.902 --   232 o    0.869
   234   1 h    0.899 --   232 o    0.869
   235   8 o    1.867 --   237 h    0.914   236 h    0.783
   236   1 h    0.875 --   235 o    0.783
   237   1 h    0.920 --   235 o    0.914
   238   8 o    1.878 --   240 h    0.847   239 h    0.817   246 h    0.105
   239   1 h    0.879 --   238 o    0.817
   240   1 h    0.895 --   238 o    0.847
   241   8 o    1.870 --   242 h    0.882   243 h    0.864
   242   1 h    0.899 --   241 o    0.882
   243   1 h    0.893 --   241 o    0.864
   244   8 o    1.854 --   245 h    0.918   246 h    0.764
   245   1 h    0.924 --   244 o    0.918
   246   1 h    0.871 --   244 o    0.764   238 o    0.105
   247   8 o    1.861 --   249 h    0.856   248 h    0.797
   248   1 h    0.866 --   247 o    0.797
   249   1 h    0.897 --   247 o    0.856
   250   8 o    1.891 --   252 h    0.818   251 h    0.817
   251   1 h    0.881 --   250 o    0.817
   252   1 h    0.888 --   250 o    0.818
   253   8 o    1.813 --   255 h    0.870   254 h    0.830
   254   1 h    0.894 --   253 o    0.830
   255   1 h    0.897 --   253 o    0.870
   256   8 o    1.832 --   257 h    0.849   258 h    0.759
   257   1 h    0.900 --   256 o    0.849
   258   1 h    0.871 --   256 o    0.759    64 o    0.104
   259   8 o    1.852 --   261 h    0.849   260 h    0.823
   260   1 h    0.884 --   259 o    0.823
   261   1 h    0.888 --   259 o    0.849
   262   8 o    1.859 --   264 h    0.908   263 h    0.821
   263   1 h    0.880 --   262 o    0.821
   264   1 h    0.917 --   262 o    0.908
   265   8 o    1.854 --   267 h    0.842   266 h    0.833
   266   1 h    0.885 --   265 o    0.833
   267   1 h    0.890 --   265 o    0.842
   268   8 o    1.870 --   269 h    0.828   270 h    0.814
   269   1 h    0.892 --   268 o    0.828
   270   1 h    0.885 --   268 o    0.814
   271   8 o    1.843 --   272 h    0.878   273 h    0.832
   272   1 h    0.898 --   271 o    0.878
   273   1 h    0.891 --   271 o    0.832
   274   8 o    1.879 --   276 h    0.815   275 h    0.785
   275   1 h    0.868 --   274 o    0.785
   276   1 h    0.884 --   274 o    0.815
   277   8 o    1.818 --   279 h    0.863   278 h    0.845
   278   1 h    0.887 --   277 o    0.845
   279   1 h    0.901 --   277 o    0.863
   280   8 o    1.847 --   281 h    0.862   282 h    0.810
   281   1 h    0.898 --   280 o    0.862
   282   1 h    0.881 --   280 o    0.810
   283   8 o    1.851 --   284 h    0.919   285 h    0.817
   284   1 h    0.923 --   283 o    0.919
   285   1 h    0.887 --   283 o    0.817
   286   8 o    1.820 --   287 h    0.861   288 h    0.832
   287   1 h    0.902 --   286 o    0.861
   288   1 h    0.883 --   286 o    0.832
   289   8 o    1.845 --   290 h    0.831   291 h    0.776
   290   1 h    0.897 --   289 o    0.831
   291   1 h    0.874 --   289 o    0.776
   292   8 o    1.869 --   294 h    0.865   293 h    0.798
   293   1 h    0.874 --   292 o    0.798
   294   1 h    0.900 --   292 o    0.865
   295   8 o    1.891 --   297 h    0.818   296 h    0.798
   296   1 h    0.880 --   295 o    0.798
   297   1 h    0.889 --   295 o    0.818
   298   8 o    1.858 --   300 h    0.914   299 h    0.791
   299   1 h    0.872 --   298 o    0.791
   300   1 h    0.919 --   298 o    0.914
   301   8 o    1.848 --   302 h    0.857   303 h    0.823
   302   1 h    0.902 --   301 o    0.857
   303   1 h    0.890 --   301 o    0.823
   304   8 o    1.812 --   305 h    0.859   306 h    0.817
   305   1 h    0.897 --   304 o    0.859
   306   1 h    0.885 --   304 o    0.817
   307   8 o    1.835 --   309 h    0.876   308 h    0.806
   308   1 h    0.871 --   307 o    0.806
   309   1 h    0.905 --   307 o    0.876
   310   8 o    1.820 --   312 h    0.819   311 h    0.818
   311   1 h    0.880 --   310 o    0.818
   312   1 h    0.885 --   310 o    0.819
   313   8 o    1.865 --   314 h    0.889   315 h    0.814
   314   1 h    0.907 --   313 o    0.889
   315   1 h    0.874 --   313 o    0.814
   316   8 o    1.854 --   317 h    0.846   318 h    0.824
   317   1 h    0.894 --   316 o    0.846
   318   1 h    0.884 --   316 o    0.824
   319   8 o    1.859 --   321 h    0.860   320 h    0.854
   320   1 h    0.896 --   319 o    0.854
   321   1 h    0.892 --   319 o    0.860
   322   8 o    1.876 --   324 h    0.838   323 h    0.825
   323   1 h    0.886 --   322 o    0.825
   324   1 h    0.890 --   322 o    0.838
   325   8 o    1.855 --   327 h    0.847   326 h    0.808
   326   1 h    0.872 --   325 o    0.808
   327   1 h    0.893 --   325 o    0.847
   328   8 o    1.849 --   330 h    0.831   329 h    0.831
   329   1 h    0.892 --   328 o    0.831
   330   1 h    0.893 --   328 o    0.831
   331   8 o    1.829 --   333 h    0.871   332 h    0.852
   332   1 h    0.897 --   331 o    0.852
   333   1 h    0.892 --   331 o    0.871
   334   8 o    1.853 --   336 h    0.863   335 h    0.804
   335   1 h    0.886 --   334 o    0.804
   336   1 h    0.898 --   334 o    0.863
   337   8 o    1.857 --   338 h    0.892   339 h    0.809
   338   1 h    0.909 --   337 o    0.892
   339   1 h    0.878 --   337 o    0.809
   340   8 o    1.893 --   342 h    0.854   341 h    0.851
   341   1 h    0.893 --   340 o    0.851
   342   1 h    0.891 --   340 o    0.854
   343   8 o    1.837 --   345 h    0.869   344 h    0.861
   344   1 h    0.897 --   343 o    0.861
   345   1 h    0.897 --   343 o    0.869
   346   8 o    1.836 --   347 h    0.853   348 h    0.822
   347   1 h    0.899 --   346 o    0.853
   348   1 h    0.893 --   346 o    0.822
   349   8 o    1.881 --   350 h    0.834   351 h    0.795
   350   1 h    0.877 --   349 o    0.834
   351   1 h    0.884 --   349 o    0.795
   352   8 o    1.877 --   353 h    0.881   354 h    0.816
   353   1 h    0.902 --   352 o    0.881
   354   1 h    0.882 --   352 o    0.816
   355   8 o    1.829 --   357 h    0.860   356 h    0.835
   356   1 h    0.890 --   355 o    0.835
   357   1 h    0.902 --   355 o    0.860
   358   8 o    1.814 --   359 h    0.831   360 h    0.811
   359   1 h    0.897 --   358 o    0.831
   360   1 h    0.886 --   358 o    0.811
   361   8 o    1.842 --   362 h    0.834   363 h    0.822
   362   1 h    0.893 --   361 o    0.834
   363   1 h    0.882 --   361 o    0.822
   364   8 o    1.858 --   365 h    0.840   366 h    0.826
   365   1 h    0.879 --   364 o    0.840
   366   1 h    0.883 --   364 o    0.826
   367   8 o    1.877 --   369 h    0.847   368 h    0.843
   368   1 h    0.887 --   367 o    0.843
   369   1 h    0.892 --   367 o    0.847
   370   8 o    1.887 --   371 h    0.827   372 h    0.798
   371   1 h    0.883 --   370 o    0.827
   372   1 h    0.878 --   370 o    0.798
   373   8 o    1.887 --   375 h    0.815   374 h    0.810
   374   1 h    0.872 --   373 o    0.810
   375   1 h    0.874 --   373 o    0.815
   376   8 o    1.853 --   378 h    0.874   377 h    0.813
   377   1 h    0.886 --   376 o    0.813
   378   1 h    0.901 --   376 o    0.874
   379   8 o    1.833 --   381 h    0.861   380 h    0.837
   380   1 h    0.893 --   379 o    0.837
   381   1 h    0.899 --   379 o    0.861
   382   8 o    1.859 --   384 h    0.913   383 h    0.821
   383   1 h    0.877 --   382 o    0.821
   384   1 h    0.919 --   382 o    0.913
   385   8 o    1.846 --   386 h    0.856   387 h    0.817
   386   1 h    0.891 --   385 o    0.856
   387   1 h    0.886 --   385 o    0.817
   388   8 o    1.863 --   389 h    0.904   390 h    0.846
   389   1 h    0.910 --   388 o    0.904
   390   1 h    0.885 --   388 o    0.846
   391   8 o    1.842 --   393 h    0.879   392 h    0.876
   392   1 h    0.899 --   391 o    0.876
   393   1 h    0.899 --   391 o    0.879
   394   8 o    1.876 --   395 h    0.889   396 h    0.822
   395   1 h    0.899 --   394 o    0.889
   396   1 h    0.889 --   394 o    0.822
   397   8 o    1.833 --   399 h    0.844   398 h    0.833
   398   1 h    0.890 --   397 o    0.833
   399   1 h    0.890 --   397 o    0.844
   400   8 o    1.883 --   401 h    0.802   402 h    0.775
   401   1 h    0.877 --   400 o    0.802
   402   1 h    0.863 --   400 o    0.775
   403   8 o    1.888 --   404 h    0.873   405 h    0.814
   404   1 h    0.898 --   403 o    0.873
   405   1 h    0.882 --   403 o    0.814
   406   8 o    1.852 --   407 h    0.841   408 h    0.836
   407   1 h    0.891 --   406 o    0.841
   408   1 h    0.887 --   406 o    0.836
   409   8 o    1.832 --   411 h    0.852   410 h    0.844
   410   1 h    0.884 --   409 o    0.844
   411   1 h    0.898 --   409 o    0.852
   412   8 o    1.832 --   413 h    0.891   414 h    0.840
   413   1 h    0.903 --   412 o    0.891
   414   1 h    0.891 --   412 o    0.840
   415   8 o    1.846 --   417 h    0.881   416 h    0.837
   416   1 h    0.887 --   415 o    0.837
   417   1 h    0.904 --   415 o    0.881
   418   8 o    1.876 --   419 h    0.901   420 h    0.783
   419   1 h    0.907 --   418 o    0.901
   420   1 h    0.869 --   418 o    0.783
   421   8 o    1.836 --   423 h    0.898   422 h    0.830
   422   1 h    0.887 --   421 o    0.830
   423   1 h    0.911 --   421 o    0.898
   424   8 o    1.882 --   425 h    0.843   426 h    0.819
   425   1 h    0.891 --   424 o    0.843
   426   1 h    0.891 --   424 o    0.819
   427   8 o    1.863 --   428 h    0.841   429 h    0.831
   428   1 h    0.879 --   427 o    0.841
   429   1 h    0.889 --   427 o    0.831
   430   8 o    1.858 --   431 h    0.874   432 h    0.807
   431   1 h    0.902 --   430 o    0.874
   432   1 h    0.873 --   430 o    0.807
   433   8 o    1.843 --   435 h    0.867   434 h    0.836
   434   1 h    0.893 --   433 o    0.836
   435   1 h    0.898 --   433 o    0.867
   436   8 o    1.825 --   437 h    0.851   438 h    0.832
   437   1 h    0.897 --   436 o    0.851
   438   1 h    0.890 --   436 o    0.832
   439   8 o    1.843 --   440 h    0.879   441 h    0.857
   440   1 h    0.901 --   439 o    0.879
   441   1 h    0.894 --   439 o    0.857
   442   8 o    1.842 --   443 h    0.871   444 h    0.827
   443   1 h    0.906 --   442 o    0.871
   444   1 h    0.874 --   442 o    0.827
   445   8 o    1.860 --   446 h    0.916   447 h    0.838
   446   1 h    0.920 --   445 o    0.916
   447   1 h    0.881 --   445 o    0.838
   448   8 o    1.839 --   449 h    0.859   450 h    0.813
   449   1 h    0.901 --   448 o    0.859
   450   1 h    0.874 --   448 o    0.813
   451   8 o    1.863 --   452 h    0.860   453 h    0.801
   452   1 h    0.896 --   451 o    0.860
   453   1 h    0.874 --   451 o    0.801
   454   8 o    1.874 --   456 h    0.867   455 h    0.848
   455   1 h    0.890 --   454 o    0.848
   456   1 h    0.896 --   454 o    0.867
   457   8 o    1.852 --   458 h    0.854   459 h    0.815
   458   1 h    0.896 --   457 o    0.854
   459   1 h    0.884 --   457 o    0.815
   460   8 o    1.867 --   461 h    0.855   462 h    0.803
   461   1 h    0.891 --   460 o    0.855
   462   1 h    0.878 --   460 o    0.803
   463   8 o    1.856 --   465 h    0.830   464 h    0.806
   464   1 h    0.882 --   463 o    0.806
   465   1 h    0.893 --   463 o    0.830
   466   8 o    1.857 --   467 h    0.882   468 h    0.849
   467   1 h    0.903 --   466 o    0.882
   468   1 h    0.887 --   466 o    0.849
   469   8 o    1.805 --   470 h    0.835   471 h    0.813
   470   1 h    0.896 --   469 o    0.835
   471   1 h    0.887 --   469 o    0.813
   472   8 o    1.840 --   474 h    0.825   473 h    0.820
   473   1 h    0.887 --   472 o    0.820
   474   1 h    0.891 --   472 o    0.825
   475   8 o    1.874 --   477 h    0.829   476 h    0.821
   476   1 h    0.892 --   475 o    0.821
   477   1 h    0.892 --   475 o    0.829
   478   8 o    1.852 --   480 h    0.889   479 h    0.857
   479   1 h    0.894 --   478 o    0.857
   480   1 h    0.899 --   478 o    0.889
   481   8 o    1.864 --   482 h    0.832   483 h    0.809
   482   1 h    0.888 --   481 o    0.832
   483   1 h    0.875 --   481 o    0.809
   484   8 o    1.853 --   486 h    0.850   485 h    0.813
   485   1 h    0.880 --   484 o    0.813
   486   1 h    0.897 --   484 o    0.850
   487   8 o    1.862 --   489 h    0.853   488 h    0.814
   488   1 h    0.881 --   487 o    0.814
   489   1 h    0.896 --   487 o    0.853
   490   8 o    1.826 --   492 h    0.844   491 h    0.831
   491   1 h    0.876 --   490 o    0.831
   492   1 h    0.898 --   490 o    0.844
   493   8 o    1.859 --   494 h    0.787   495 h    0.785
   494   1 h    0.873 --   493 o    0.787
   495   1 h    0.873 --   493 o    0.785
   496   8 o    1.860 --   497 h    0.865   498 h    0.857
   497   1 h    0.897 --   496 o    0.865
   498   1 h    0.897 --   496 o    0.857
   499   8 o    1.861 --   500 h    0.855   501 h    0.809
   500   1 h    0.892 --   499 o    0.855
   501   1 h    0.884 --   499 o    0.809
   502   8 o    1.886 --   504 h    0.825   503 h    0.817
   503   1 h    0.886 --   502 o    0.817
   504   1 h    0.881 --   502 o    0.825
   505   8 o    1.878 --   506 h    0.822   507 h    0.813
   506   1 h    0.894 --   505 o    0.822
   507   1 h    0.886 --   505 o    0.813
   508   8 o    1.861 --   510 h    0.827   509 h    0.795
   509   1 h    0.879 --   508 o    0.795
   510   1 h    0.882 --   508 o    0.827
   511   8 o    1.875 --   512 h    0.878   513 h    0.836
   512   1 h    0.898 --   511 o    0.878
   513   1 h    0.891 --   511 o    0.836
   514   8 o    1.860 --   516 h    0.914   515 h    0.795
   515   1 h    0.872 --   514 o    0.795
   516   1 h    0.919 --   514 o    0.914
   517   8 o    1.850 --   518 h    0.870   519 h    0.828
   518   1 h    0.898 --   517 o    0.870
   519   1 h    0.888 --   517 o    0.828
   520   8 o    1.840 --   521 h    0.854   522 h    0.838
   521   1 h    0.895 --   520 o    0.854
   522   1 h    0.890 --   520 o    0.838
   523   8 o    1.838 --   524 h    0.872   525 h    0.841
   524   1 h    0.900 --   523 o    0.872
   525   1 h    0.891 --   523 o    0.841
   526   8 o    1.833 --   527 h    0.831   528 h    0.812
   527   1 h    0.880 --   526 o    0.831
   528   1 h    0.878 --   526 o    0.812
   529   8 o    1.819 --   531 h    0.887   530 h    0.862
   530   1 h    0.894 --   529 o    0.862
   531   1 h    0.894 --   529 o    0.887
 ---------------------------------------------------------------------------

Topologies differ in total number of bonds
Writing topology from bond orders to xtbtopo.mol

molecular dipole:
                 x           y           z       tot (Debye)
 q only:       -2.460       2.116       1.951
   full:       -2.251       2.628       2.625      11.039
molecular quadrupole (traceless):
                xx          xy          yy          xz          yz          zz
 q only:       30.325     -23.033      14.884     -14.204       6.148     -45.209
  q+dip:       51.218     -37.710      16.188     -29.893       8.562     -67.407
   full:       52.317     -38.920      15.900     -30.458       7.731     -68.216


           -------------------------------------------------
          | TOTAL ENERGY             -901.190284390155 Eh   |
          | GRADIENT NORM               0.098960923470 Eh/α |
          | HOMO-LUMO GAP               6.308764312409 eV   |
           -------------------------------------------------

------------------------------------------------------------------------
 * finished run on 2022/11/17 at 06:55:18.250     
------------------------------------------------------------------------
 total:
 * wall-time:     0 d,  0 h,  0 min, 18.510 sec
 *  cpu-time:     0 d,  0 h,  0 min, 24.833 sec
 * ratio c/w:     1.342 speedup
 SCF:
 * wall-time:     0 d,  0 h,  0 min, 17.979 sec
 *  cpu-time:     0 d,  0 h,  0 min, 23.856 sec
 * ratio c/w:     1.327 speedup

