      -----------------------------------------------------------      
     |                   =====================                   |     
     |                           x T B                           |     
     |                   =====================                   |     
     |                         S. Grimme                         |     
     |          Mulliken Center for Theoretical Chemistry        |     
     |                    University of Bonn                     |     
      -----------------------------------------------------------      

   * xtb version 6.5.1 (579679a) compiled by 'ehlert@majestix' on 2022-07-11

   xtb is free software: you can redistribute it and/or modify it under
   the terms of the GNU Lesser General Public License as published by
   the Free Software Foundation, either version 3 of the License, or
   (at your option) any later version.
   
   xtb is distributed in the hope that it will be useful,
   but WITHOUT ANY WARRANTY; without even the implied warranty of
   MERCHANTABILITY or FITNESS FOR A PARTICULAR PURPOSE.  See the
   GNU Lesser General Public License for more details.
   
   Cite this work as:
   * C. Bannwarth, E. Caldeweyher, S. Ehlert, A. Hansen, P. Pracht,
     J. Seibert, S. Spicher, S. Grimme, WIREs Comput. Mol. Sci., 2020, 11,
     e01493. DOI: 10.1002/wcms.1493
   
   for GFN2-xTB:
   * C. Bannwarth, S. Ehlert and S. Grimme., J. Chem. Theory Comput., 2019,
     15, 1652-1671. DOI: 10.1021/acs.jctc.8b01176
   for GFN1-xTB:
   * S. Grimme, C. Bannwarth, P. Shushkov, J. Chem. Theory Comput., 2017,
     13, 1989-2009. DOI: 10.1021/acs.jctc.7b00118
   for GFN0-xTB:
   * P. Pracht, E. Caldeweyher, S. Ehlert, S. Grimme, ChemRxiv, 2019, preprint.
     DOI: 10.26434/chemrxiv.8326202.v1
   for GFN-FF:
   * S. Spicher and S. Grimme, Angew. Chem. Int. Ed., 2020, 59, 15665-15673.
     DOI: 10.1002/anie.202004239
   
   for ALPB and GBSA implicit solvation:
   * S. Ehlert, M. Stahn, S. Spicher, S. Grimme, J. Chem. Theory Comput.,
     2021, 17, 4250-4261. DOI: 10.1021/acs.jctc.1c00471
   
   for DFT-D4:
   * E. Caldeweyher, C. Bannwarth and S. Grimme, J. Chem. Phys., 2017,
     147, 034112. DOI: 10.1063/1.4993215
   * E. Caldeweyher, S. Ehlert, A. Hansen, H. Neugebauer, S. Spicher,
     C. Bannwarth and S. Grimme, J. Chem. Phys., 2019, 150, 154122.
     DOI: 10.1063/1.5090222
   * E. Caldeweyher, J.-M. Mewes, S. Ehlert and S. Grimme, Phys. Chem. Chem. Phys.
     2020, 22, 8499-8512. DOI: 10.1039/D0CP00502A
   
   for sTDA-xTB:
   * S. Grimme and C. Bannwarth, J. Chem. Phys., 2016, 145, 054103.
     DOI: 10.1063/1.4959605
   
   in the mass-spec context:
   * V. Asgeirsson, C. Bauer and S. Grimme, Chem. Sci., 2017, 8, 4879.
     DOI: 10.1039/c7sc00601b
   * J. Koopman and S. Grimme, ACS Omega 2019, 4, 12, 15120-15133.
     DOI: 10.1021/acsomega.9b02011
   
   for metadynamics refer to:
   * S. Grimme, J. Chem. Theory Comput., 2019, 155, 2847-2862
     DOI: 10.1021/acs.jctc.9b00143
   
   for SPH calculations refer to:
   * S. Spicher and S. Grimme, J. Chem. Theory Comput., 2021, 17, 1701-1714
     DOI: 10.1021/acs.jctc.0c01306
   
   with help from (in alphabetical order)
   P. Atkinson, C. Bannwarth, F. Bohle, G. Brandenburg, E. Caldeweyher
   M. Checinski, S. Dohm, S. Ehlert, S. Ehrlich, I. Gerasimov, C. Hölzer
   A. Katbashev, J. Koopman, C. Lavigne, S. Lehtola, F. März, M. Müller,
   F. Musil, H. Neugebauer, J. Pisarek, C. Plett, P. Pracht, F. Pultar,
   J. Seibert, P. Shushkov, S. Spicher, M. Stahn, M. Steiner, T. Strunk,
   J. Stückrath, T. Rose, and J. Unsleber
   
 * started run on 2022/11/17 at 06:54:49.176     

           -------------------------------------------------
          |                Calculation Setup                |
           -------------------------------------------------

          program call               : xtb xtbopt.coord --gfn2 --sp --gbsa water
          hostname                   : cn0363
          coordinate file            : xtbopt.coord
          omp threads                :                     2

   ID    Z sym.   atoms
    1    8 o      1, 4, 7, 10, 13, 16, 19, 22, 25, 28, 31, 34, 37, 40, 43,
                  46, 49, 52, 55, 58, 61, 64, 67, 70, 73, 76, 79, 82, 85, 88,
                  91, 94, 97, 100, 103, 106, 109, 112, 115, 118, 121, 124,
                  127, 130, 133, 136, 139, 142, 145, 148, 151, 154, 157, 160,
                  163, 166, 169, 172, 175, 178, 181, 184, 187, 190, 193, 196,
                  199, 202, 205, 208, 211, 214, 217, 220, 223, 226, 229, 232,
                  235, 238, 241, 244, 247, 250, 253, 256, 259, 262, 265, 268,
                  271, 274, 277, 280, 283, 286, 289, 292, 295, 298, 301, 304,
                  307, 310, 313, 316, 319, 322, 325, 328, 331, 334, 337, 340,
                  343, 346, 349, 352, 355, 358, 361, 364, 367, 370, 373, 376,
                  379, 382, 385, 388, 391, 394, 397, 400, 403, 406, 409, 412,
                  415, 418, 421, 424, 427, 430, 433, 436, 439, 442, 445, 448,
                  451, 454, 457, 460, 463, 466, 469, 472, 475, 478, 481, 484,
                  487, 490, 493, 496, 499, 502, 505, 508, 511, 514, 517, 520,
                  523, 526, 529
    2    1 h      2, 3, 5, 6, 8, 9, 11, 12, 14, 15, 17, 18, 20, 21, 23, 24,
                  26, 27, 29, 30, 32, 33, 35, 36, 38, 39, 41, 42, 44, 45, 47,
                  48, 50, 51, 53, 54, 56, 57, 59, 60, 62, 63, 65, 66, 68, 69,
                  71, 72, 74, 75, 77, 78, 80, 81, 83, 84, 86, 87, 89, 90, 92,
                  93, 95, 96, 98, 99, 101, 102, 104, 105, 107, 108, 110, 111,
                  113, 114, 116, 117, 119, 120, 122, 123, 125, 126, 128, 129,
                  131, 132, 134, 135, 137, 138, 140, 141, 143, 144, 146, 147,
                  149, 150, 152, 153, 155, 156, 158, 159, 161, 162, 164, 165,
                  167, 168, 170, 171, 173, 174, 176, 177, 179, 180, 182, 183,
                  185, 186, 188, 189, 191, 192, 194, 195, 197, 198, 200, 201,
                  203, 204, 206, 207, 209, 210, 212, 213, 215, 216, 218, 219,
                  221, 222, 224, 225, 227, 228, 230, 231, 233, 234, 236, 237,
                  239, 240, 242, 243, 245, 246, 248, 249, 251, 252, 254, 255,
                  257, 258, 260, 261, 263, 264, 266, 267, 269, 270, 272, 273,
                  275, 276, 278, 279, 281, 282, 284, 285, 287, 288, 290, 291,
                  293, 294, 296, 297, 299, 300, 302, 303, 305, 306, 308, 309,
                  311, 312, 314, 315, 317, 318, 320, 321, 323, 324, 326, 327,
                  329, 330, 332, 333, 335, 336, 338, 339, 341, 342, 344, 345,
                  347, 348, 350, 351, 353, 354, 356, 357, 359, 360, 362, 363,
                  365, 366, 368, 369, 371, 372, 374, 375, 377, 378, 380, 381,
                  383, 384, 386, 387, 389, 390, 392, 393, 395, 396, 398, 399,
                  401, 402, 404, 405, 407, 408, 410, 411, 413, 414, 416, 417,
                  419, 420, 422, 423, 425, 426, 428, 429, 431, 432, 434, 435,
                  437, 438, 440, 441, 443, 444, 446, 447, 449, 450, 452, 453,
                  455, 456, 458, 459, 461, 462, 464, 465, 467, 468, 470, 471,
                  473, 474, 476, 477, 479, 480, 482, 483, 485, 486, 488, 489,
                  491, 492, 494, 495, 497, 498, 500, 501, 503, 504, 506, 507,
                  509, 510, 512, 513, 515, 516, 518, 519, 521, 522, 524, 525,
                  527, 528, 530, 531

molecular fragmentation (1/2 indicates fragments):
111222222222222222222222222222222222222222222222222222222222222222222222
222222222222222222222222222222222222222222222222222222222222222222222222
222222222222222222222222222222222222222222222222222222222222222222222222
222222222222222222222222222222222222222222222222222222222222222222222222
222222222222222222222222222222222222222222222222222222222222222222222222
222222222222222222222222222222222222222222222222222222222222222222222222
222222222222222222222222222222222222222222222222222222222222222222222222
222222222222222222222222222
# atoms in fragment 1/2:     3   528
 fragment masses (1/2) :       18.02     3170.69
CMA distance (Bohr)    :   6.625
constraining FC (au)   :  0.0500

           -------------------------------------------------
          |                 G F N 2 - x T B                 |
           -------------------------------------------------

        Reference                      10.1021/acs.jctc.8b01176
      * Hamiltonian:
        H0-scaling (s, p, d)           1.850000    2.230000    2.230000
        zeta-weighting                 0.500000
      * Dispersion:
        s8                             2.700000
        a1                             0.520000
        a2                             5.000000
        s9                             5.000000
      * Repulsion:
        kExp                           1.500000    1.000000
        rExp                           1.000000
      * Coulomb:
        alpha                          2.000000
        third order                    shell-resolved
        anisotropic                    true
        a3                             3.000000
        a5                             4.000000
        cn-shift                       1.200000
        cn-exp                         4.000000
        max-rad                        5.000000

      * Solvation model:               GBSA
        Solvent                        water
        Parameter file                 internal GFN2-xTB/GBSA
        Dielectric constant                8.0200E+01
        Reference state                gsolv [1 M gas/solution]
        Free energy shift                  1.8574E-03 Eh       1.1656E+00 kcal/mol
        Temperature                        2.9815E+02 K
        Density                            1.0000E+00 kg/L
        Solvent mass                       1.8000E+01 g/mol
        Interaction kernel             Still
        Born radius scaling (c1)           1.5524E+00
        Born radii integrator          GBOBC
        Born offset                        2.4628E-02 a0       4.6540E-02 AA
        H-bond correction              true
        Ion screening                  false
        Surface tension                    1.0000E-05 Eh       1.5569E+01 dyn/cm
        Grid points                               230 per atom

          ...................................................
          :                      SETUP                      :
          :.................................................:
          :  # basis functions                1062          :
          :  # atomic orbitals                1062          :
          :  # shells                          708          :
          :  # electrons                      1416          :
          :  max. iterations                   250          :
          :  Hamiltonian                  GFN2-xTB          :
          :  restarted?                      false          :
          :  GBSA solvation                   true          :
          :  PC potential                    false          :
          :  electronic temp.          300.0000000     K    :
          :  accuracy                    1.0000000          :
          :  -> integral cutoff          0.2500000E+02      :
          :  -> integral neglect         0.1000000E-07      :
          :  -> SCF convergence          0.1000000E-05 Eh   :
          :  -> wf. convergence          0.1000000E-03 e    :
          :  Broyden damping             0.4000000          :
          ...................................................

 iter      E             dE          RMSdq      gap      omega  full diag
   1   -906.7621383 -0.906762E+03  0.408E+00    8.64       0.0  T
   2   -906.8236754 -0.615371E-01  0.241E+00    8.30       1.0  T
   3   -906.8491019 -0.254265E-01  0.229E-01    7.28       1.0  T
   4   -906.8530400 -0.393815E-02  0.505E-02    7.53       1.0  T
   5   -906.8531873 -0.147258E-03  0.315E-02    7.47       1.0  T
   6   -906.8532206 -0.333054E-04  0.343E-03    7.49       1.3  T
   7   -906.8532215 -0.960608E-06  0.850E-04    7.48       5.1  T
   8   -906.8532216 -0.390097E-07  0.461E-04    7.48       9.4  T

   *** convergence criteria satisfied after 8 iterations ***

         #    Occupation            Energy/Eh            Energy/eV
      -------------------------------------------------------------
         1        2.0000           -0.6631838             -18.0461
       ...           ...                  ...                  ...
       702        2.0000           -0.3441940              -9.3660
       703        2.0000           -0.3437617              -9.3542
       704        2.0000           -0.3398363              -9.2474
       705        2.0000           -0.3381495              -9.2015
       706        2.0000           -0.3336100              -9.0780
       707        2.0000           -0.3318002              -9.0287
       708        2.0000           -0.3249389              -8.8420 (HOMO)
       709                         -0.0499032              -1.3579 (LUMO)
       710                         -0.0431182              -1.1733
       711                         -0.0304211              -0.8278
       712                         -0.0234331              -0.6376
       713                         -0.0204931              -0.5576
       ...                                ...                  ...
      1062                          0.4903621              13.3434
      -------------------------------------------------------------
                  HL-Gap            0.2750356 Eh            7.4841 eV
             Fermi-level           -0.1874210 Eh           -5.1000 eV

 SCC (total)                   0 d,  0 h,  0 min,  8.632 sec
 SCC setup                      ...        0 min,  0.109 sec (  1.266%)
 Dispersion                     ...        0 min,  0.073 sec (  0.842%)
 classical contributions        ...        0 min,  0.016 sec (  0.181%)
 integral evaluation            ...        0 min,  0.519 sec (  6.011%)
 iterations                     ...        0 min,  3.123 sec ( 36.183%)
 molecular gradient             ...        0 min,  4.766 sec ( 55.215%)
 printout                       ...        0 min,  0.026 sec (  0.302%)

         :::::::::::::::::::::::::::::::::::::::::::::::::::::
         ::                     SUMMARY                     ::
         :::::::::::::::::::::::::::::::::::::::::::::::::::::
         :: total energy            -901.400126733651 Eh    ::
         :: total w/o Gsasa/hb      -901.206345868636 Eh    ::
         :: gradient norm              0.100411709134 Eh/a0 ::
         :: HOMO-LUMO gap              7.484100421196 eV    ::
         ::.................................................::
         :: SCC energy              -906.853221576737 Eh    ::
         :: -> isotropic ES            5.264593924739 Eh    ::
         :: -> anisotropic ES         -1.124092300550 Eh    ::
         :: -> anisotropic XC         -0.087225057221 Eh    ::
         :: -> dispersion             -0.530398571424 Eh    ::
         :: -> Gsolv                  -0.222644344555 Eh    ::
         ::    -> Gelec               -0.028863479540 Eh    ::
         ::    -> Gsasa                0.003139804726 Eh    ::
         ::    -> Ghb                 -0.198778112868 Eh    ::
         ::    -> Gshift               0.001857443127 Eh    ::
         :: repulsion energy           5.359339605711 Eh    ::
         :: add. restraining           0.000000000000 Eh    ::
         :: total charge               0.000000000000 e     ::
         :::::::::::::::::::::::::::::::::::::::::::::::::::::

           -------------------------------------------------
          |                Property Printout                |
           -------------------------------------------------

    * Orbital Energies and Occupations

         #    Occupation            Energy/Eh            Energy/eV
      -------------------------------------------------------------
         1        2.0000           -0.6631838             -18.0461
       ...           ...                  ...                  ...
       696        2.0000           -0.3552139              -9.6659
       697        2.0000           -0.3549978              -9.6600
       698        2.0000           -0.3532330              -9.6120
       699        2.0000           -0.3508134              -9.5461
       700        2.0000           -0.3458320              -9.4106
       701        2.0000           -0.3453433              -9.3973
       702        2.0000           -0.3441940              -9.3660
       703        2.0000           -0.3437617              -9.3542
       704        2.0000           -0.3398363              -9.2474
       705        2.0000           -0.3381495              -9.2015
       706        2.0000           -0.3336100              -9.0780
       707        2.0000           -0.3318002              -9.0287
       708        2.0000           -0.3249389              -8.8420 (HOMO)
       709                         -0.0499032              -1.3579 (LUMO)
       710                         -0.0431182              -1.1733
       711                         -0.0304211              -0.8278
       712                         -0.0234331              -0.6376
       713                         -0.0204931              -0.5576
       714                         -0.0138472              -0.3768
       715                         -0.0055896              -0.1521
       716                         -0.0019350              -0.0527
       717                          0.0042312               0.1151
       718                          0.0065684               0.1787
       719                          0.0080980               0.2204
       ...                                ...                  ...
      1062                          0.4903621              13.3434
      -------------------------------------------------------------
                  HL-Gap            0.2750356 Eh            7.4841 eV
             Fermi-level           -0.1874210 Eh           -5.1000 eV

     #   Z          covCN         q      C6AA      α(0)
     1   8 o        1.607    -0.687    27.371     7.061
     2   1 h        0.804     0.330     0.638     1.255
     3   1 h        0.803     0.345     0.600     1.217
     4   8 o        1.608    -0.683    27.250     7.045
     5   1 h        0.804     0.338     0.617     1.234
     6   1 h        0.804     0.339     0.614     1.231
     7   8 o        1.607    -0.700    27.717     7.105
     8   1 h        0.803     0.332     0.631     1.248
     9   1 h        0.803     0.346     0.597     1.213
    10   8 o        1.608    -0.652    26.467     6.943
    11   1 h        0.805     0.324     0.653     1.270
    12   1 h        0.803     0.347     0.596     1.213
    13   8 o        1.607    -0.673    27.007     7.014
    14   1 h        0.803     0.332     0.632     1.249
    15   1 h        0.804     0.343     0.604     1.221
    16   8 o        1.609    -0.665    26.807     6.988
    17   1 h        0.804     0.329     0.639     1.256
    18   1 h        0.804     0.331     0.635     1.252
    19   8 o        1.608    -0.681    27.208     7.040
    20   1 h        0.804     0.349     0.590     1.206
    21   1 h        0.804     0.333     0.631     1.247
    22   8 o        1.607    -0.686    27.341     7.057
    23   1 h        0.804     0.330     0.637     1.254
    24   1 h        0.803     0.352     0.584     1.201
    25   8 o        1.606    -0.701    27.736     7.108
    26   1 h        0.803     0.349     0.592     1.208
    27   1 h        0.803     0.342     0.608     1.225
    28   8 o        1.608    -0.672    26.969     7.009
    29   1 h        0.804     0.343     0.604     1.221
    30   1 h        0.804     0.348     0.593     1.209
    31   8 o        1.609    -0.683    27.255     7.046
    32   1 h        0.805     0.327     0.644     1.260
    33   1 h        0.804     0.344     0.602     1.219
    34   8 o        1.603    -0.693    27.535     7.082
    35   1 h        0.802     0.354     0.579     1.196
    36   1 h        0.802     0.335     0.626     1.243
    37   8 o        1.608    -0.667    26.848     6.993
    38   1 h        0.803     0.347     0.594     1.211
    39   1 h        0.805     0.331     0.635     1.251
    40   8 o        1.607    -0.668    26.871     6.996
    41   1 h        0.804     0.324     0.654     1.270
    42   1 h        0.803     0.351     0.585     1.201
    43   8 o        1.605    -0.689    27.413     7.066
    44   1 h        0.802     0.333     0.630     1.247
    45   1 h        0.803     0.356     0.574     1.190
    46   8 o        1.605    -0.690    27.458     7.072
    47   1 h        0.801     0.357     0.573     1.189
    48   1 h        0.805     0.314     0.681     1.296
    49   8 o        1.607    -0.664    26.763     6.982
    50   1 h        0.803     0.336     0.621     1.238
    51   1 h        0.804     0.345     0.601     1.218
    52   8 o        1.608    -0.671    26.943     7.006
    53   1 h        0.804     0.320     0.665     1.281
    54   1 h        0.804     0.342     0.608     1.225
    55   8 o        1.607    -0.676    27.083     7.024
    56   1 h        0.804     0.344     0.602     1.218
    57   1 h        0.804     0.348     0.593     1.210
    58   8 o        1.608    -0.670    26.914     7.002
    59   1 h        0.804     0.339     0.615     1.232
    60   1 h        0.804     0.341     0.609     1.226
    61   8 o        1.609    -0.655    26.534     6.952
    62   1 h        0.805     0.321     0.661     1.277
    63   1 h        0.804     0.327     0.645     1.262
    64   8 o        1.610    -0.666    26.821     6.990
    65   1 h        0.804     0.343     0.605     1.222
    66   1 h        0.804     0.345     0.601     1.217
    67   8 o        1.607    -0.668    26.865     6.995
    68   1 h        0.805     0.328     0.643     1.259
    69   1 h        0.802     0.342     0.607     1.224
    70   8 o        1.606    -0.664    26.768     6.983
    71   1 h        0.803     0.361     0.564     1.179
    72   1 h        0.805     0.315     0.678     1.293
    73   8 o        1.608    -0.675    27.063     7.021
    74   1 h        0.804     0.344     0.604     1.220
    75   1 h        0.804     0.340     0.612     1.229
    76   8 o        1.608    -0.679    27.151     7.033
    77   1 h        0.804     0.325     0.650     1.267
    78   1 h        0.804     0.320     0.665     1.281
    79   8 o        1.607    -0.692    27.495     7.077
    80   1 h        0.804     0.335     0.624     1.241
    81   1 h        0.803     0.347     0.597     1.214
    82   8 o        1.607    -0.671    26.949     7.006
    83   1 h        0.804     0.319     0.665     1.281
    84   1 h        0.803     0.356     0.575     1.191
    85   8 o        1.609    -0.663    26.737     6.979
    86   1 h        0.804     0.349     0.591     1.208
    87   1 h        0.805     0.311     0.689     1.304
    88   8 o        1.608    -0.682    27.227     7.042
    89   1 h        0.804     0.348     0.593     1.210
    90   1 h        0.805     0.319     0.668     1.284
    91   8 o        1.608    -0.681    27.219     7.041
    92   1 h        0.804     0.341     0.611     1.228
    93   1 h        0.804     0.328     0.643     1.260
    94   8 o        1.610    -0.654    26.519     6.950
    95   1 h        0.804     0.349     0.592     1.208
    96   1 h        0.805     0.322     0.659     1.275
    97   8 o        1.608    -0.678    27.143     7.032
    98   1 h        0.803     0.343     0.606     1.223
    99   1 h        0.805     0.322     0.658     1.274
   100   8 o        1.608    -0.658    26.622     6.964
   101   1 h        0.804     0.340     0.611     1.228
   102   1 h        0.804     0.332     0.632     1.249
   103   8 o        1.609    -0.673    27.007     7.014
   104   1 h        0.803     0.342     0.608     1.225
   105   1 h        0.805     0.331     0.634     1.251
   106   8 o        1.610    -0.663    26.738     6.979
   107   1 h        0.805     0.319     0.667     1.283
   108   1 h        0.804     0.345     0.600     1.217
   109   8 o        1.607    -0.686    27.338     7.057
   110   1 h        0.805     0.318     0.670     1.285
   111   1 h        0.804     0.350     0.589     1.205
   112   8 o        1.607    -0.697    27.639     7.095
   113   1 h        0.803     0.343     0.604     1.221
   114   1 h        0.803     0.349     0.591     1.208
   115   8 o        1.607    -0.677    27.119     7.028
   116   1 h        0.805     0.333     0.630     1.247
   117   1 h        0.803     0.348     0.594     1.211
   118   8 o        1.606    -0.694    27.560     7.085
   119   1 h        0.803     0.332     0.633     1.250
   120   1 h        0.803     0.341     0.609     1.226
   121   8 o        1.606    -0.679    27.149     7.032
   122   1 h        0.803     0.345     0.600     1.217
   123   1 h        0.803     0.330     0.636     1.253
   124   8 o        1.603    -0.704    27.814     7.118
   125   1 h        0.802     0.333     0.629     1.246
   126   1 h        0.802     0.346     0.598     1.215
   127   8 o        1.609    -0.653    26.500     6.948
   128   1 h        0.804     0.347     0.596     1.213
   129   1 h        0.805     0.331     0.634     1.251
   130   8 o        1.605    -0.689    27.422     7.067
   131   1 h        0.802     0.340     0.613     1.230
   132   1 h        0.803     0.355     0.576     1.193
   133   8 o        1.607    -0.674    27.029     7.017
   134   1 h        0.804     0.336     0.623     1.240
   135   1 h        0.803     0.342     0.609     1.225
   136   8 o        1.609    -0.650    26.420     6.937
   137   1 h        0.803     0.362     0.562     1.178
   138   1 h        0.806     0.312     0.685     1.300
   139   8 o        1.609    -0.664    26.773     6.983
   140   1 h        0.804     0.339     0.615     1.232
   141   1 h        0.805     0.316     0.673     1.289
   142   8 o        1.607    -0.682    27.238     7.044
   143   1 h        0.804     0.354     0.578     1.195
   144   1 h        0.803     0.353     0.582     1.199
   145   8 o        1.607    -0.680    27.195     7.038
   146   1 h        0.802     0.359     0.568     1.184
   147   1 h        0.805     0.322     0.657     1.273
   148   8 o        1.606    -0.699    27.694     7.103
   149   1 h        0.803     0.356     0.574     1.190
   150   1 h        0.804     0.337     0.619     1.236
   151   8 o        1.609    -0.653    26.478     6.945
   152   1 h        0.806     0.316     0.674     1.289
   153   1 h        0.804     0.360     0.566     1.182
   154   8 o        1.607    -0.672    26.988     7.011
   155   1 h        0.804     0.329     0.640     1.257
   156   1 h        0.803     0.363     0.559     1.175
   157   8 o        1.608    -0.679    27.165     7.034
   158   1 h        0.805     0.315     0.678     1.293
   159   1 h        0.802     0.361     0.564     1.180
   160   8 o        1.606    -0.702    27.755     7.110
   161   1 h        0.802     0.348     0.593     1.210
   162   1 h        0.804     0.356     0.574     1.190
   163   8 o        1.609    -0.672    26.970     7.009
   164   1 h        0.804     0.332     0.632     1.249
   165   1 h        0.805     0.327     0.646     1.263
   166   8 o        1.608    -0.684    27.299     7.052
   167   1 h        0.804     0.334     0.628     1.245
   168   1 h        0.804     0.324     0.653     1.269
   169   8 o        1.605    -0.680    27.179     7.036
   170   1 h        0.800     0.350     0.588     1.205
   171   1 h        0.806     0.308     0.699     1.313
   172   8 o        1.607    -0.662    26.711     6.975
   173   1 h        0.801     0.354     0.580     1.197
   174   1 h        0.806     0.310     0.692     1.307
   175   8 o        1.607    -0.688    27.393     7.064
   176   1 h        0.803     0.342     0.606     1.223
   177   1 h        0.803     0.337     0.620     1.237
   178   8 o        1.608    -0.668    26.879     6.997
   179   1 h        0.803     0.349     0.591     1.207
   180   1 h        0.805     0.330     0.636     1.253
   181   8 o        1.607    -0.680    27.198     7.039
   182   1 h        0.804     0.337     0.620     1.236
   183   1 h        0.803     0.358     0.571     1.187
   184   8 o        1.607    -0.685    27.307     7.053
   185   1 h        0.803     0.361     0.564     1.180
   186   1 h        0.804     0.329     0.640     1.257
   187   8 o        1.608    -0.681    27.212     7.041
   188   1 h        0.805     0.319     0.666     1.281
   189   1 h        0.802     0.357     0.573     1.189
   190   8 o        1.608    -0.673    27.010     7.014
   191   1 h        0.804     0.348     0.594     1.211
   192   1 h        0.804     0.327     0.646     1.263
   193   8 o        1.605    -0.688    27.406     7.065
   194   1 h        0.803     0.343     0.606     1.223
   195   1 h        0.803     0.345     0.600     1.217
   196   8 o        1.610    -0.662    26.730     6.978
   197   1 h        0.804     0.341     0.609     1.226
   198   1 h        0.805     0.332     0.631     1.248
   199   8 o        1.607    -0.681    27.206     7.040
   200   1 h        0.803     0.335     0.625     1.242
   201   1 h        0.804     0.344     0.603     1.220
   202   8 o        1.607    -0.683    27.263     7.047
   203   1 h        0.802     0.362     0.562     1.178
   204   1 h        0.805     0.314     0.679     1.295
   205   8 o        1.608    -0.655    26.534     6.952
   206   1 h        0.803     0.335     0.626     1.243
   207   1 h        0.805     0.333     0.630     1.247
   208   8 o        1.607    -0.693    27.527     7.081
   209   1 h        0.804     0.342     0.608     1.225
   210   1 h        0.804     0.360     0.565     1.181
   211   8 o        1.608    -0.664    26.781     6.984
   212   1 h        0.804     0.328     0.642     1.259
   213   1 h        0.804     0.331     0.635     1.252
   214   8 o        1.607    -0.676    27.093     7.025
   215   1 h        0.803     0.360     0.566     1.182
   216   1 h        0.804     0.333     0.629     1.246
   217   8 o        1.609    -0.683    27.270     7.048
   218   1 h        0.804     0.340     0.612     1.229
   219   1 h        0.804     0.334     0.627     1.244
   220   8 o        1.604    -0.693    27.537     7.082
   221   1 h        0.802     0.324     0.653     1.269
   222   1 h        0.803     0.342     0.607     1.224
   223   8 o        1.607    -0.664    26.780     6.984
   224   1 h        0.805     0.324     0.653     1.270
   225   1 h        0.802     0.343     0.605     1.222
   226   8 o        1.605    -0.691    27.480     7.075
   227   1 h        0.802     0.343     0.605     1.222
   228   1 h        0.803     0.349     0.592     1.208
   229   8 o        1.606    -0.685    27.319     7.054
   230   1 h        0.801     0.365     0.555     1.170
   231   1 h        0.806     0.311     0.689     1.304
   232   8 o        1.610    -0.664    26.770     6.983
   233   1 h        0.805     0.320     0.664     1.280
   234   1 h        0.805     0.330     0.636     1.253
   235   8 o        1.606    -0.671    26.949     7.006
   236   1 h        0.802     0.355     0.576     1.192
   237   1 h        0.806     0.317     0.672     1.287
   238   8 o        1.610    -0.664    26.768     6.983
   239   1 h        0.804     0.348     0.594     1.210
   240   1 h        0.804     0.326     0.648     1.265
   241   8 o        1.610    -0.630    25.907     6.870
   242   1 h        0.805     0.327     0.646     1.263
   243   1 h        0.805     0.333     0.629     1.245
   244   8 o        1.605    -0.681    27.217     7.041
   245   1 h        0.806     0.311     0.690     1.305
   246   1 h        0.801     0.358     0.571     1.188
   247   8 o        1.607    -0.671    26.939     7.005
   248   1 h        0.803     0.353     0.582     1.198
   249   1 h        0.804     0.327     0.646     1.263
   250   8 o        1.607    -0.662    26.729     6.978
   251   1 h        0.803     0.343     0.604     1.221
   252   1 h        0.803     0.332     0.633     1.250
   253   8 o        1.609    -0.669    26.901     7.000
   254   1 h        0.804     0.332     0.632     1.249
   255   1 h        0.805     0.321     0.660     1.276
   256   8 o        1.603    -0.717    28.174     7.164
   257   1 h        0.804     0.322     0.658     1.274
   258   1 h        0.801     0.364     0.558     1.174
   259   8 o        1.610    -0.669    26.893     6.999
   260   1 h        0.804     0.338     0.618     1.235
   261   1 h        0.805     0.336     0.622     1.239
   262   8 o        1.609    -0.662    26.715     6.976
   263   1 h        0.803     0.351     0.587     1.203
   264   1 h        0.806     0.322     0.659     1.275
   265   8 o        1.609    -0.670    26.927     7.003
   266   1 h        0.804     0.344     0.604     1.220
   267   1 h        0.804     0.336     0.621     1.238
   268   8 o        1.607    -0.669    26.890     6.999
   269   1 h        0.804     0.328     0.643     1.259
   270   1 h        0.803     0.339     0.615     1.232
   271   8 o        1.609    -0.664    26.779     6.984
   272   1 h        0.805     0.328     0.643     1.259
   273   1 h        0.804     0.337     0.619     1.236
   274   8 o        1.606    -0.683    27.252     7.046
   275   1 h        0.803     0.364     0.556     1.171
   276   1 h        0.803     0.337     0.619     1.236
   277   8 o        1.609    -0.676    27.080     7.023
   278   1 h        0.804     0.344     0.603     1.220
   279   1 h        0.805     0.320     0.663     1.279
   280   8 o        1.607    -0.682    27.232     7.043
   281   1 h        0.805     0.325     0.652     1.268
   282   1 h        0.803     0.355     0.576     1.193
   283   8 o        1.608    -0.669    26.892     6.999
   284   1 h        0.806     0.315     0.677     1.292
   285   1 h        0.802     0.343     0.605     1.222
   286   8 o        1.608    -0.697    27.625     7.094
   287   1 h        0.805     0.322     0.658     1.274
   288   1 h        0.804     0.354     0.579     1.196
   289   8 o        1.606    -0.690    27.449     7.071
   290   1 h        0.804     0.317     0.672     1.288
   291   1 h        0.802     0.351     0.586     1.203
   292   8 o        1.607    -0.676    27.094     7.025
   293   1 h        0.802     0.359     0.567     1.183
   294   1 h        0.805     0.325     0.652     1.268
   295   8 o        1.605    -0.677    27.112     7.027
   296   1 h        0.803     0.350     0.588     1.204
   297   1 h        0.803     0.330     0.639     1.256
   298   8 o        1.607    -0.670    26.919     7.002
   299   1 h        0.802     0.360     0.566     1.182
   300   1 h        0.806     0.314     0.679     1.295
   301   8 o        1.607    -0.677    27.116     7.028
   302   1 h        0.804     0.321     0.660     1.276
   303   1 h        0.803     0.339     0.615     1.232
   304   8 o        1.608    -0.694    27.545     7.083
   305   1 h        0.804     0.324     0.653     1.269
   306   1 h        0.803     0.345     0.601     1.218
   307   8 o        1.608    -0.679    27.154     7.033
   308   1 h        0.802     0.363     0.560     1.175
   309   1 h        0.805     0.316     0.675     1.290
   310   8 o        1.608    -0.694    27.555     7.085
   311   1 h        0.805     0.343     0.605     1.222
   312   1 h        0.804     0.343     0.605     1.222
   313   8 o        1.608    -0.655    26.553     6.955
   314   1 h        0.805     0.313     0.683     1.298
   315   1 h        0.803     0.357     0.573     1.189
   316   8 o        1.607    -0.671    26.955     7.007
   317   1 h        0.804     0.324     0.653     1.270
   318   1 h        0.803     0.346     0.599     1.216
   319   8 o        1.608    -0.663    26.755     6.981
   320   1 h        0.804     0.333     0.629     1.246
   321   1 h        0.804     0.337     0.621     1.237
   322   8 o        1.608    -0.682    27.240     7.044
   323   1 h        0.803     0.342     0.608     1.225
   324   1 h        0.804     0.341     0.611     1.228
   325   8 o        1.608    -0.674    27.022     7.016
   326   1 h        0.803     0.356     0.575     1.191
   327   1 h        0.805     0.330     0.638     1.255
   328   8 o        1.607    -0.688    27.407     7.066
   329   1 h        0.803     0.336     0.623     1.240
   330   1 h        0.803     0.335     0.625     1.242
   331   8 o        1.609    -0.669    26.906     7.001
   332   1 h        0.804     0.328     0.642     1.258
   333   1 h        0.805     0.338     0.616     1.233
   334   8 o        1.606    -0.682    27.236     7.043
   335   1 h        0.802     0.342     0.607     1.224
   336   1 h        0.805     0.332     0.633     1.250
   337   8 o        1.608    -0.664    26.782     6.985
   338   1 h        0.805     0.320     0.663     1.279
   339   1 h        0.803     0.352     0.583     1.200
   340   8 o        1.608    -0.645    26.279     6.919
   341   1 h        0.804     0.331     0.636     1.253
   342   1 h        0.804     0.336     0.621     1.238
   343   8 o        1.609    -0.666    26.817     6.989
   344   1 h        0.804     0.334     0.626     1.243
   345   1 h        0.805     0.328     0.641     1.258
   346   8 o        1.609    -0.665    26.787     6.985
   347   1 h        0.804     0.318     0.670     1.286
   348   1 h        0.804     0.325     0.651     1.268
   349   8 o        1.605    -0.677    27.108     7.027
   350   1 h        0.804     0.351     0.585     1.201
   351   1 h        0.801     0.337     0.621     1.238
   352   8 o        1.608    -0.652    26.474     6.944
   353   1 h        0.805     0.321     0.661     1.277
   354   1 h        0.802     0.346     0.598     1.215
   355   8 o        1.608    -0.674    27.018     7.015
   356   1 h        0.804     0.333     0.631     1.248
   357   1 h        0.804     0.320     0.663     1.279
   358   8 o        1.606    -0.699    27.686     7.101
   359   1 h        0.804     0.328     0.642     1.258
   360   1 h        0.803     0.338     0.617     1.234
   361   8 o        1.606    -0.678    27.133     7.030
   362   1 h        0.803     0.328     0.642     1.259
   363   1 h        0.803     0.346     0.598     1.215
   364   8 o        1.608    -0.668    26.886     6.998
   365   1 h        0.805     0.348     0.594     1.210
   366   1 h        0.804     0.337     0.619     1.236
   367   8 o        1.609    -0.651    26.441     6.940
   368   1 h        0.805     0.336     0.622     1.239
   369   1 h        0.804     0.335     0.626     1.242
   370   8 o        1.607    -0.681    27.213     7.041
   371   1 h        0.804     0.348     0.592     1.209
   372   1 h        0.803     0.346     0.598     1.215
   373   8 o        1.607    -0.682    27.234     7.043
   374   1 h        0.803     0.355     0.576     1.192
   375   1 h        0.804     0.359     0.567     1.183
   376   8 o        1.607    -0.683    27.263     7.047
   377   1 h        0.802     0.351     0.586     1.203
   378   1 h        0.805     0.322     0.658     1.274
   379   8 o        1.608    -0.677    27.109     7.027
   380   1 h        0.803     0.336     0.623     1.240
   381   1 h        0.805     0.327     0.644     1.260
   382   8 o        1.609    -0.660    26.656     6.968
   383   1 h        0.803     0.351     0.587     1.204
   384   1 h        0.806     0.324     0.654     1.270
   385   8 o        1.607    -0.679    27.161     7.034
   386   1 h        0.804     0.328     0.641     1.258
   387   1 h        0.803     0.340     0.611     1.228
   388   8 o        1.610    -0.641    26.190     6.907
   389   1 h        0.806     0.320     0.663     1.279
   390   1 h        0.804     0.343     0.605     1.221
   391   8 o        1.610    -0.664    26.765     6.982
   392   1 h        0.805     0.336     0.623     1.240
   393   1 h        0.805     0.333     0.629     1.246
   394   8 o        1.608    -0.642    26.218     6.911
   395   1 h        0.805     0.327     0.646     1.263
   396   1 h        0.803     0.333     0.629     1.246
   397   8 o        1.607    -0.680    27.190     7.038
   398   1 h        0.803     0.331     0.634     1.251
   399   1 h        0.804     0.341     0.609     1.226
   400   8 o        1.605    -0.701    27.739     7.108
   401   1 h        0.802     0.355     0.577     1.193
   402   1 h        0.803     0.362     0.561     1.176
   403   8 o        1.608    -0.651    26.436     6.939
   404   1 h        0.805     0.325     0.651     1.267
   405   1 h        0.803     0.346     0.599     1.216
   406   8 o        1.607    -0.674    27.019     7.015
   407   1 h        0.803     0.336     0.621     1.238
   408   1 h        0.804     0.343     0.605     1.222
   409   8 o        1.608    -0.678    27.145     7.032
   410   1 h        0.804     0.347     0.594     1.211
   411   1 h        0.804     0.326     0.648     1.264
   412   8 o        1.609    -0.664    26.782     6.985
   413   1 h        0.805     0.322     0.657     1.273
   414   1 h        0.804     0.341     0.609     1.226
   415   8 o        1.608    -0.666    26.821     6.990
   416   1 h        0.803     0.341     0.611     1.228
   417   1 h        0.805     0.321     0.662     1.278
   418   8 o        1.607    -0.666    26.828     6.991
   419   1 h        0.805     0.316     0.674     1.290
   420   1 h        0.802     0.367     0.551     1.166
   421   8 o        1.609    -0.671    26.959     7.008
   422   1 h        0.803     0.345     0.600     1.217
   423   1 h        0.805     0.317     0.671     1.286
   424   8 o        1.607    -0.676    27.085     7.024
   425   1 h        0.804     0.341     0.610     1.227
   426   1 h        0.802     0.335     0.625     1.242
   427   8 o        1.608    -0.663    26.736     6.979
   428   1 h        0.805     0.342     0.607     1.224
   429   1 h        0.803     0.332     0.633     1.250
   430   8 o        1.608    -0.675    27.065     7.021
   431   1 h        0.805     0.322     0.659     1.275
   432   1 h        0.803     0.362     0.561     1.177
   433   8 o        1.608    -0.662    26.709     6.975
   434   1 h        0.803     0.332     0.632     1.249
   435   1 h        0.805     0.327     0.645     1.261
   436   8 o        1.607    -0.694    27.543     7.083
   437   1 h        0.804     0.333     0.629     1.246
   438   1 h        0.804     0.341     0.611     1.228
   439   8 o        1.610    -0.655    26.539     6.953
   440   1 h        0.805     0.324     0.654     1.270
   441   1 h        0.805     0.335     0.626     1.242
   442   8 o        1.609    -0.671    26.947     7.006
   443   1 h        0.805     0.313     0.684     1.299
   444   1 h        0.804     0.357     0.573     1.189
   445   8 o        1.609    -0.650    26.417     6.937
   446   1 h        0.806     0.318     0.670     1.285
   447   1 h        0.804     0.347     0.596     1.213
   448   8 o        1.609    -0.674    27.028     7.017
   449   1 h        0.805     0.319     0.667     1.283
   450   1 h        0.804     0.348     0.594     1.211
   451   8 o        1.607    -0.683    27.254     7.046
   452   1 h        0.805     0.321     0.661     1.277
   453   1 h        0.802     0.365     0.555     1.170
   454   8 o        1.610    -0.663    26.752     6.981
   455   1 h        0.804     0.343     0.605     1.222
   456   1 h        0.805     0.331     0.634     1.251
   457   8 o        1.607    -0.697    27.636     7.095
   458   1 h        0.804     0.330     0.636     1.253
   459   1 h        0.803     0.352     0.585     1.201
   460   8 o        1.607    -0.680    27.177     7.036
   461   1 h        0.805     0.331     0.635     1.252
   462   1 h        0.803     0.355     0.576     1.192
   463   8 o        1.607    -0.680    27.190     7.038
   464   1 h        0.803     0.340     0.613     1.230
   465   1 h        0.804     0.330     0.637     1.254
   466   8 o        1.609    -0.658    26.621     6.964
   467   1 h        0.805     0.329     0.640     1.257
   468   1 h        0.804     0.341     0.609     1.225
   469   8 o        1.607    -0.693    27.534     7.082
   470   1 h        0.803     0.323     0.657     1.273
   471   1 h        0.804     0.340     0.611     1.228
   472   8 o        1.606    -0.700    27.718     7.106
   473   1 h        0.803     0.346     0.598     1.215
   474   1 h        0.804     0.331     0.635     1.252
   475   8 o        1.607    -0.670    26.915     7.002
   476   1 h        0.803     0.329     0.640     1.257
   477   1 h        0.803     0.333     0.630     1.247
   478   8 o        1.610    -0.664    26.780     6.984
   479   1 h        0.804     0.341     0.611     1.228
   480   1 h        0.805     0.336     0.622     1.239
   481   8 o        1.607    -0.687    27.361     7.060
   482   1 h        0.804     0.338     0.618     1.235
   483   1 h        0.803     0.360     0.565     1.181
   484   8 o        1.608    -0.678    27.130     7.030
   485   1 h        0.803     0.346     0.598     1.215
   486   1 h        0.804     0.329     0.641     1.258
   487   8 o        1.607    -0.668    26.876     6.997
   488   1 h        0.803     0.344     0.604     1.221
   489   1 h        0.804     0.330     0.638     1.255
   490   8 o        1.608    -0.678    27.136     7.031
   491   1 h        0.804     0.345     0.601     1.217
   492   1 h        0.804     0.328     0.642     1.259
   493   8 o        1.604    -0.707    27.893     7.128
   494   1 h        0.802     0.349     0.591     1.208
   495   1 h        0.802     0.360     0.567     1.183
   496   8 o        1.609    -0.679    27.153     7.033
   497   1 h        0.804     0.341     0.610     1.227
   498   1 h        0.804     0.337     0.620     1.237
   499   8 o        1.608    -0.671    26.941     7.005
   500   1 h        0.805     0.334     0.627     1.244
   501   1 h        0.803     0.344     0.602     1.219
   502   8 o        1.606    -0.693    27.538     7.082
   503   1 h        0.803     0.344     0.603     1.220
   504   1 h        0.803     0.354     0.578     1.194
   505   8 o        1.606    -0.680    27.185     7.037
   506   1 h        0.803     0.332     0.633     1.250
   507   1 h        0.803     0.337     0.619     1.236
   508   8 o        1.607    -0.682    27.226     7.042
   509   1 h        0.803     0.349     0.590     1.207
   510   1 h        0.804     0.337     0.620     1.237
   511   8 o        1.609    -0.674    27.028     7.017
   512   1 h        0.805     0.336     0.622     1.239
   513   1 h        0.803     0.346     0.599     1.215
   514   8 o        1.607    -0.660    26.668     6.970
   515   1 h        0.802     0.356     0.574     1.190
   516   1 h        0.806     0.312     0.685     1.300
   517   8 o        1.608    -0.674    27.041     7.018
   518   1 h        0.805     0.328     0.644     1.260
   519   1 h        0.803     0.345     0.601     1.218
   520   8 o        1.608    -0.673    27.000     7.013
   521   1 h        0.804     0.330     0.637     1.254
   522   1 h        0.803     0.337     0.620     1.237
   523   8 o        1.608    -0.676    27.093     7.025
   524   1 h        0.805     0.325     0.651     1.267
   525   1 h        0.804     0.342     0.608     1.224
   526   8 o        1.607    -0.680    27.180     7.036
   527   1 h        0.804     0.329     0.641     1.257
   528   1 h        0.803     0.346     0.598     1.215
   529   8 o        1.610    -0.642    26.216     6.911
   530   1 h        0.805     0.325     0.649     1.266
   531   1 h        0.805     0.319     0.666     1.282

 Mol. C6AA /au·bohr⁶  :    1428472.739958
 Mol. C8AA /au·bohr⁸  :   25903101.169417
 Mol. α(0) /au        :       1680.083818


Wiberg/Mayer (AO) data.
largest (>0.10) Wiberg bond orders for each atom

 ---------------------------------------------------------------------------
     #   Z sym  total        # sym  WBO       # sym  WBO       # sym  WBO
 ---------------------------------------------------------------------------
     1   8 o    1.853 --     2 h    0.832     3 h    0.799
     2   1 h    0.891 --     1 o    0.832
     3   1 h    0.881 --     1 o    0.799
     4   8 o    1.832 --     6 h    0.838     5 h    0.823
     5   1 h    0.886 --     4 o    0.823
     6   1 h    0.885 --     4 o    0.838
     7   8 o    1.842 --     8 h    0.816     9 h    0.793
     8   1 h    0.889 --     7 o    0.816
     9   1 h    0.880 --     7 o    0.793
    10   8 o    1.870 --    11 h    0.865    12 h    0.825
    11   1 h    0.895 --    10 o    0.865
    12   1 h    0.880 --    10 o    0.825
    13   8 o    1.868 --    15 h    0.829    14 h    0.821
    14   1 h    0.889 --    13 o    0.821
    15   1 h    0.882 --    13 o    0.829
    16   8 o    1.824 --    17 h    0.854    18 h    0.852
    17   1 h    0.892 --    16 o    0.854
    18   1 h    0.890 --    16 o    0.852
    19   8 o    1.851 --    21 h    0.830    20 h    0.823
    20   1 h    0.878 --    19 o    0.823
    21   1 h    0.889 --    19 o    0.830
    22   8 o    1.835 --    23 h    0.835    24 h    0.826
    23   1 h    0.891 --    22 o    0.835
    24   1 h    0.876 --    22 o    0.826
    25   8 o    1.849 --    26 h    0.804    27 h    0.802
    26   1 h    0.878 --    25 o    0.804
    27   1 h    0.883 --    25 o    0.802
    28   8 o    1.868 --    29 h    0.840    30 h    0.816
    29   1 h    0.882 --    28 o    0.840
    30   1 h    0.879 --    28 o    0.816
    31   8 o    1.834 --    32 h    0.857    33 h    0.812
    32   1 h    0.893 --    31 o    0.857
    33   1 h    0.882 --    31 o    0.812
    34   8 o    1.869 --    36 h    0.805    35 h    0.791
    35   1 h    0.875 --    34 o    0.791
    36   1 h    0.888 --    34 o    0.805
    37   8 o    1.870 --    39 h    0.851    38 h    0.818
    38   1 h    0.879 --    37 o    0.818
    39   1 h    0.890 --    37 o    0.851
    40   8 o    1.877 --    41 h    0.846    42 h    0.802
    41   1 h    0.895 --    40 o    0.846
    42   1 h    0.876 --    40 o    0.802
    43   8 o    1.884 --    44 h    0.807    45 h    0.789    47 h    0.103
    44   1 h    0.889 --    43 o    0.807
    45   1 h    0.873 --    43 o    0.789
    46   8 o    1.823 --    48 h    0.892    47 h    0.764
    47   1 h    0.873 --    46 o    0.764    43 o    0.103
    48   1 h    0.901 --    46 o    0.892
    49   8 o    1.885 --    50 h    0.835    51 h    0.827
    50   1 h    0.887 --    49 o    0.835
    51   1 h    0.881 --    49 o    0.827
    52   8 o    1.849 --    53 h    0.851    54 h    0.822
    53   1 h    0.898 --    52 o    0.851
    54   1 h    0.883 --    52 o    0.822
    55   8 o    1.877 --    56 h    0.822    57 h    0.816
    56   1 h    0.881 --    55 o    0.822
    57   1 h    0.879 --    55 o    0.816
    58   8 o    1.857 --    59 h    0.841    60 h    0.832
    59   1 h    0.885 --    58 o    0.841
    60   1 h    0.883 --    58 o    0.832
    61   8 o    1.826 --    62 h    0.877    63 h    0.848
    62   1 h    0.897 --    61 o    0.877
    63   1 h    0.893 --    61 o    0.848
    64   8 o    1.876 --    66 h    0.836    65 h    0.831   258 h    0.102
    65   1 h    0.882 --    64 o    0.831
    66   1 h    0.881 --    64 o    0.836
    67   8 o    1.856 --    68 h    0.867    69 h    0.812
    68   1 h    0.892 --    67 o    0.867
    69   1 h    0.883 --    67 o    0.812
    70   8 o    1.882 --    72 h    0.873    71 h    0.777
    71   1 h    0.870 --    70 o    0.777
    72   1 h    0.901 --    70 o    0.873
    73   8 o    1.859 --    75 h    0.831    74 h    0.827
    74   1 h    0.882 --    73 o    0.827
    75   1 h    0.884 --    73 o    0.831
    76   8 o    1.821 --    78 h    0.844    77 h    0.825
    77   1 h    0.894 --    76 o    0.825
    78   1 h    0.898 --    76 o    0.844
    79   8 o    1.841 --    80 h    0.839    81 h    0.806
    80   1 h    0.888 --    79 o    0.839
    81   1 h    0.880 --    79 o    0.806
    82   8 o    1.877 --    83 h    0.846    84 h    0.797
    83   1 h    0.898 --    82 o    0.846
    84   1 h    0.873 --    82 o    0.797
    85   8 o    1.818 --    87 h    0.896    86 h    0.826
    86   1 h    0.878 --    85 o    0.826
    87   1 h    0.903 --    85 o    0.896
    88   8 o    1.803 --    90 h    0.877    89 h    0.816
    89   1 h    0.879 --    88 o    0.816
    90   1 h    0.898 --    88 o    0.877
    91   8 o    1.822 --    93 h    0.843    92 h    0.826
    92   1 h    0.884 --    91 o    0.826
    93   1 h    0.893 --    91 o    0.843
    94   8 o    1.839 --    96 h    0.892    95 h    0.839
    95   1 h    0.878 --    94 o    0.839
    96   1 h    0.896 --    94 o    0.892
    97   8 o    1.837 --    99 h    0.851    98 h    0.814
    98   1 h    0.882 --    97 o    0.814
    99   1 h    0.896 --    97 o    0.851
   100   8 o    1.879 --   102 h    0.834   101 h    0.831
   101   1 h    0.884 --   100 o    0.831
   102   1 h    0.890 --   100 o    0.834
   103   8 o    1.849 --   105 h    0.859   104 h    0.814
   104   1 h    0.883 --   103 o    0.814
   105   1 h    0.890 --   103 o    0.859
   106   8 o    1.813 --   107 h    0.892   108 h    0.838
   107   1 h    0.898 --   106 o    0.892
   108   1 h    0.881 --   106 o    0.838
   109   8 o    1.852 --   110 h    0.848   111 h    0.784
   110   1 h    0.899 --   109 o    0.848
   111   1 h    0.878 --   109 o    0.784
   112   8 o    1.853 --   113 h    0.809   114 h    0.806
   113   1 h    0.882 --   112 o    0.809
   114   1 h    0.878 --   112 o    0.806
   115   8 o    1.858 --   116 h    0.852   117 h    0.799
   116   1 h    0.889 --   115 o    0.852
   117   1 h    0.879 --   115 o    0.799
   118   8 o    1.825 --   119 h    0.835   120 h    0.802
   119   1 h    0.890 --   118 o    0.835
   120   1 h    0.883 --   118 o    0.802
   121   8 o    1.855 --   123 h    0.823   122 h    0.821
   122   1 h    0.881 --   121 o    0.821
   123   1 h    0.891 --   121 o    0.823
   124   8 o    1.845 --   125 h    0.801   126 h    0.791
   125   1 h    0.889 --   124 o    0.801
   126   1 h    0.880 --   124 o    0.791
   127   8 o    1.849 --   129 h    0.870   128 h    0.840
   128   1 h    0.880 --   127 o    0.840
   129   1 h    0.890 --   127 o    0.870
   130   8 o    1.899 --   131 h    0.800   132 h    0.793
   131   1 h    0.884 --   130 o    0.800
   132   1 h    0.874 --   130 o    0.793
   133   8 o    1.881 --   134 h    0.828   135 h    0.807
   134   1 h    0.887 --   133 o    0.828
   135   1 h    0.883 --   133 o    0.807
   136   8 o    1.858 --   138 h    0.895   137 h    0.817
   137   1 h    0.869 --   136 o    0.817
   138   1 h    0.902 --   136 o    0.895
   139   8 o    1.840 --   141 h    0.860   140 h    0.819
   140   1 h    0.885 --   139 o    0.819
   141   1 h    0.900 --   139 o    0.860
   142   8 o    1.880 --   143 h    0.822   144 h    0.811
   143   1 h    0.874 --   142 o    0.822
   144   1 h    0.876 --   142 o    0.811
   145   8 o    1.846 --   147 h    0.857   146 h    0.801
   146   1 h    0.871 --   145 o    0.801
   147   1 h    0.896 --   145 o    0.857
   148   8 o    1.853 --   150 h    0.836   149 h    0.788
   149   1 h    0.873 --   148 o    0.788
   150   1 h    0.886 --   148 o    0.836
   151   8 o    1.845 --   152 h    0.893   153 h    0.825
   152   1 h    0.900 --   151 o    0.893
   153   1 h    0.871 --   151 o    0.825
   154   8 o    1.877 --   155 h    0.847   156 h    0.814
   155   1 h    0.892 --   154 o    0.847
   156   1 h    0.868 --   154 o    0.814
   157   8 o    1.830 --   158 h    0.876   159 h    0.801
   158   1 h    0.901 --   157 o    0.876
   159   1 h    0.870 --   157 o    0.801
   160   8 o    1.854 --   162 h    0.806   161 h    0.802
   161   1 h    0.879 --   160 o    0.802
   162   1 h    0.873 --   160 o    0.806
   163   8 o    1.810 --   165 h    0.863   164 h    0.839
   164   1 h    0.890 --   163 o    0.839
   165   1 h    0.893 --   163 o    0.863
   166   8 o    1.794 --   168 h    0.843   167 h    0.838
   167   1 h    0.889 --   166 o    0.838
   168   1 h    0.895 --   166 o    0.843
   169   8 o    1.824 --   171 h    0.899   170 h    0.776
   170   1 h    0.877 --   169 o    0.776
   171   1 h    0.905 --   169 o    0.899
   172   8 o    1.847 --   174 h    0.898   173 h    0.795
   173   1 h    0.875 --   172 o    0.795
   174   1 h    0.904 --   172 o    0.898
   175   8 o    1.862 --   177 h    0.818   176 h    0.810
   176   1 h    0.883 --   175 o    0.810
   177   1 h    0.886 --   175 o    0.818
   178   8 o    1.840 --   180 h    0.861   179 h    0.818
   179   1 h    0.878 --   178 o    0.818
   180   1 h    0.891 --   178 o    0.861
   181   8 o    1.890 --   182 h    0.822   183 h    0.800
   182   1 h    0.886 --   181 o    0.822
   183   1 h    0.872 --   181 o    0.800
   184   8 o    1.860 --   186 h    0.844   185 h    0.789
   185   1 h    0.870 --   184 o    0.789
   186   1 h    0.892 --   184 o    0.844
   187   8 o    1.824 --   188 h    0.880   189 h    0.799
   188   1 h    0.898 --   187 o    0.880
   189   1 h    0.873 --   187 o    0.799
   190   8 o    1.868 --   192 h    0.829   191 h    0.818
   191   1 h    0.879 --   190 o    0.818
   192   1 h    0.893 --   190 o    0.829
   193   8 o    1.881 --   195 h    0.809   194 h    0.802
   194   1 h    0.883 --   193 o    0.802
   195   1 h    0.881 --   193 o    0.809
   196   8 o    1.852 --   198 h    0.854   197 h    0.832
   197   1 h    0.883 --   196 o    0.832
   198   1 h    0.889 --   196 o    0.854
   199   8 o    1.849 --   201 h    0.830   200 h    0.816
   200   1 h    0.888 --   199 o    0.816
   201   1 h    0.882 --   199 o    0.830
   202   8 o    1.825 --   204 h    0.885   203 h    0.793
   203   1 h    0.869 --   202 o    0.793
   204   1 h    0.901 --   202 o    0.885
   205   8 o    1.871 --   207 h    0.857   206 h    0.826
   206   1 h    0.888 --   205 o    0.826
   207   1 h    0.889 --   205 o    0.857
   208   8 o    1.852 --   209 h    0.815   210 h    0.805
   209   1 h    0.883 --   208 o    0.815
   210   1 h    0.870 --   208 o    0.805
   211   8 o    1.859 --   212 h    0.842   213 h    0.832
   212   1 h    0.892 --   211 o    0.842
   213   1 h    0.890 --   211 o    0.832
   214   8 o    1.873 --   216 h    0.843   215 h    0.798
   215   1 h    0.870 --   214 o    0.798
   216   1 h    0.889 --   214 o    0.843
   217   8 o    1.844 --   219 h    0.839   218 h    0.834
   218   1 h    0.884 --   217 o    0.834
   219   1 h    0.888 --   217 o    0.839
   220   8 o    1.849 --   221 h    0.806   222 h    0.806
   221   1 h    0.895 --   220 o    0.806
   222   1 h    0.883 --   220 o    0.806
   223   8 o    1.847 --   224 h    0.873   225 h    0.814
   224   1 h    0.895 --   223 o    0.873
   225   1 h    0.882 --   223 o    0.814
   226   8 o    1.861 --   228 h    0.812   227 h    0.802
   227   1 h    0.882 --   226 o    0.802
   228   1 h    0.878 --   226 o    0.812
   229   8 o    1.826 --   231 h    0.895   230 h    0.773
   230   1 h    0.867 --   229 o    0.773
   231   1 h    0.903 --   229 o    0.895
   232   8 o    1.805 --   233 h    0.863   234 h    0.860
   233   1 h    0.897 --   232 o    0.863
   234   1 h    0.891 --   232 o    0.860
   235   8 o    1.849 --   237 h    0.894   236 h    0.784
   236   1 h    0.874 --   235 o    0.784
   237   1 h    0.899 --   235 o    0.894
   238   8 o    1.877 --   240 h    0.847   239 h    0.819   246 h    0.104
   239   1 h    0.879 --   238 o    0.819
   240   1 h    0.894 --   238 o    0.847
   241   8 o    1.863 --   242 h    0.878   243 h    0.860
   242   1 h    0.893 --   241 o    0.878
   243   1 h    0.889 --   241 o    0.860
   244   8 o    1.837 --   245 h    0.898   246 h    0.765
   245   1 h    0.903 --   244 o    0.898
   246   1 h    0.872 --   244 o    0.765   238 o    0.104
   247   8 o    1.864 --   249 h    0.851   248 h    0.809
   248   1 h    0.875 --   247 o    0.809
   249   1 h    0.893 --   247 o    0.851
   250   8 o    1.896 --   252 h    0.823   251 h    0.820
   251   1 h    0.882 --   250 o    0.820
   252   1 h    0.890 --   250 o    0.823
   253   8 o    1.810 --   255 h    0.871   254 h    0.826
   254   1 h    0.890 --   253 o    0.826
   255   1 h    0.897 --   253 o    0.871
   256   8 o    1.822 --   257 h    0.846   258 h    0.758
   257   1 h    0.896 --   256 o    0.846
   258   1 h    0.868 --   256 o    0.758    64 o    0.102
   259   8 o    1.851 --   261 h    0.848   260 h    0.825
   260   1 h    0.886 --   259 o    0.825
   261   1 h    0.887 --   259 o    0.848
   262   8 o    1.837 --   264 h    0.887   263 h    0.818
   263   1 h    0.877 --   262 o    0.818
   264   1 h    0.896 --   262 o    0.887
   265   8 o    1.849 --   267 h    0.838   266 h    0.831
   266   1 h    0.882 --   265 o    0.831
   267   1 h    0.887 --   265 o    0.838
   268   8 o    1.873 --   269 h    0.829   270 h    0.817
   269   1 h    0.892 --   268 o    0.829
   270   1 h    0.885 --   268 o    0.817
   271   8 o    1.832 --   272 h    0.873   273 h    0.826
   272   1 h    0.892 --   271 o    0.873
   273   1 h    0.886 --   271 o    0.826
   274   8 o    1.884 --   276 h    0.821   275 h    0.786
   275   1 h    0.867 --   274 o    0.786
   276   1 h    0.886 --   274 o    0.821
   277   8 o    1.807 --   279 h    0.859   278 h    0.839
   278   1 h    0.882 --   277 o    0.839
   279   1 h    0.897 --   277 o    0.859
   280   8 o    1.835 --   281 h    0.861   282 h    0.802
   281   1 h    0.895 --   280 o    0.861
   282   1 h    0.874 --   280 o    0.802
   283   8 o    1.820 --   284 h    0.897   285 h    0.812
   284   1 h    0.901 --   283 o    0.897
   285   1 h    0.882 --   283 o    0.812
   286   8 o    1.801 --   287 h    0.856   288 h    0.821
   287   1 h    0.896 --   286 o    0.856
   288   1 h    0.875 --   286 o    0.821
   289   8 o    1.850 --   290 h    0.835   291 h    0.783
   290   1 h    0.899 --   289 o    0.835
   291   1 h    0.877 --   289 o    0.783
   292   8 o    1.860 --   294 h    0.860   293 h    0.795
   293   1 h    0.871 --   292 o    0.795
   294   1 h    0.895 --   292 o    0.860
   295   8 o    1.895 --   297 h    0.824   296 h    0.794
   296   1 h    0.877 --   295 o    0.794
   297   1 h    0.891 --   295 o    0.824
   298   8 o    1.842 --   300 h    0.897   299 h    0.789
   299   1 h    0.871 --   298 o    0.789
   300   1 h    0.901 --   298 o    0.897
   301   8 o    1.833 --   302 h    0.851   303 h    0.816
   302   1 h    0.897 --   301 o    0.851
   303   1 h    0.885 --   301 o    0.816
   304   8 o    1.802 --   305 h    0.857   306 h    0.813
   305   1 h    0.895 --   304 o    0.857
   306   1 h    0.881 --   304 o    0.813
   307   8 o    1.827 --   309 h    0.872   308 h    0.804
   308   1 h    0.868 --   307 o    0.804
   309   1 h    0.900 --   307 o    0.872
   310   8 o    1.821 --   311 h    0.821   312 h    0.815
   311   1 h    0.882 --   310 o    0.821
   312   1 h    0.882 --   310 o    0.815
   313   8 o    1.860 --   314 h    0.885   315 h    0.811
   314   1 h    0.902 --   313 o    0.885
   315   1 h    0.873 --   313 o    0.811
   316   8 o    1.854 --   317 h    0.848   318 h    0.819
   317   1 h    0.895 --   316 o    0.848
   318   1 h    0.881 --   316 o    0.819
   319   8 o    1.845 --   321 h    0.854   320 h    0.846
   320   1 h    0.889 --   319 o    0.846
   321   1 h    0.887 --   319 o    0.854
   322   8 o    1.864 --   324 h    0.831   323 h    0.821
   323   1 h    0.883 --   322 o    0.821
   324   1 h    0.884 --   322 o    0.831
   325   8 o    1.857 --   327 h    0.845   326 h    0.809
   326   1 h    0.873 --   325 o    0.809
   327   1 h    0.891 --   325 o    0.845
   328   8 o    1.834 --   330 h    0.827   329 h    0.826
   329   1 h    0.887 --   328 o    0.826
   330   1 h    0.888 --   328 o    0.827
   331   8 o    1.813 --   333 h    0.864   332 h    0.848
   332   1 h    0.892 --   331 o    0.848
   333   1 h    0.885 --   331 o    0.864
   334   8 o    1.839 --   336 h    0.854   335 h    0.803
   335   1 h    0.883 --   334 o    0.803
   336   1 h    0.890 --   334 o    0.854
   337   8 o    1.844 --   338 h    0.881   339 h    0.807
   338   1 h    0.897 --   337 o    0.881
   339   1 h    0.876 --   337 o    0.807
   340   8 o    1.888 --   342 h    0.850   341 h    0.848
   341   1 h    0.891 --   340 o    0.848
   342   1 h    0.887 --   340 o    0.850
   343   8 o    1.818 --   345 h    0.865   344 h    0.851
   344   1 h    0.888 --   343 o    0.851
   345   1 h    0.892 --   343 o    0.865
   346   8 o    1.836 --   347 h    0.854   348 h    0.825
   347   1 h    0.899 --   346 o    0.854
   348   1 h    0.894 --   346 o    0.825
   349   8 o    1.886 --   350 h    0.834   351 h    0.801
   350   1 h    0.876 --   349 o    0.834
   351   1 h    0.887 --   349 o    0.801
   352   8 o    1.872 --   353 h    0.876   354 h    0.814
   353   1 h    0.897 --   352 o    0.876
   354   1 h    0.880 --   352 o    0.814
   355   8 o    1.821 --   357 h    0.855   356 h    0.836
   356   1 h    0.889 --   355 o    0.836
   357   1 h    0.897 --   355 o    0.855
   358   8 o    1.805 --   359 h    0.826   360 h    0.811
   359   1 h    0.892 --   358 o    0.826
   360   1 h    0.885 --   358 o    0.811
   361   8 o    1.841 --   362 h    0.836   363 h    0.822
   362   1 h    0.892 --   361 o    0.836
   363   1 h    0.880 --   361 o    0.822
   364   8 o    1.864 --   365 h    0.840   366 h    0.831
   365   1 h    0.879 --   364 o    0.840
   366   1 h    0.886 --   364 o    0.831
   367   8 o    1.870 --   368 h    0.845   369 h    0.843
   368   1 h    0.887 --   367 o    0.845
   369   1 h    0.888 --   367 o    0.843
   370   8 o    1.889 --   371 h    0.821   372 h    0.801
   371   1 h    0.879 --   370 o    0.821
   372   1 h    0.880 --   370 o    0.801
   373   8 o    1.891 --   374 h    0.813   375 h    0.813
   374   1 h    0.874 --   373 o    0.813
   375   1 h    0.871 --   373 o    0.813
   376   8 o    1.833 --   378 h    0.869   377 h    0.802
   377   1 h    0.877 --   376 o    0.802
   378   1 h    0.896 --   376 o    0.869
   379   8 o    1.818 --   381 h    0.855   380 h    0.831
   380   1 h    0.887 --   379 o    0.831
   381   1 h    0.893 --   379 o    0.855
   382   8 o    1.838 --   384 h    0.890   383 h    0.823
   383   1 h    0.877 --   382 o    0.823
   384   1 h    0.895 --   382 o    0.890
   385   8 o    1.841 --   386 h    0.855   387 h    0.813
   386   1 h    0.892 --   385 o    0.855
   387   1 h    0.884 --   385 o    0.813
   388   8 o    1.848 --   389 h    0.891   390 h    0.845
   389   1 h    0.897 --   388 o    0.891
   390   1 h    0.882 --   388 o    0.845
   391   8 o    1.818 --   393 h    0.869   392 h    0.864
   392   1 h    0.887 --   391 o    0.864
   393   1 h    0.889 --   391 o    0.869
   394   8 o    1.871 --   395 h    0.884   396 h    0.826
   395   1 h    0.893 --   394 o    0.884
   396   1 h    0.889 --   394 o    0.826
   397   8 o    1.824 --   399 h    0.837   398 h    0.835
   398   1 h    0.890 --   397 o    0.835
   399   1 h    0.884 --   397 o    0.837
   400   8 o    1.888 --   401 h    0.796   402 h    0.782
   401   1 h    0.874 --   400 o    0.796
   402   1 h    0.869 --   400 o    0.782
   403   8 o    1.884 --   404 h    0.870   405 h    0.815
   404   1 h    0.894 --   403 o    0.870
   405   1 h    0.880 --   403 o    0.815
   406   8 o    1.844 --   407 h    0.838   408 h    0.831
   407   1 h    0.887 --   406 o    0.838
   408   1 h    0.882 --   406 o    0.831
   409   8 o    1.819 --   411 h    0.848   410 h    0.839
   410   1 h    0.879 --   409 o    0.839
   411   1 h    0.894 --   409 o    0.848
   412   8 o    1.816 --   413 h    0.884   414 h    0.833
   413   1 h    0.896 --   412 o    0.884
   414   1 h    0.884 --   412 o    0.833
   415   8 o    1.831 --   417 h    0.873   416 h    0.834
   416   1 h    0.884 --   415 o    0.834
   417   1 h    0.897 --   415 o    0.873
   418   8 o    1.867 --   419 h    0.893   420 h    0.780
   419   1 h    0.900 --   418 o    0.893
   420   1 h    0.866 --   418 o    0.780
   421   8 o    1.815 --   423 h    0.886   422 h    0.824
   422   1 h    0.881 --   421 o    0.824
   423   1 h    0.899 --   421 o    0.886
   424   8 o    1.865 --   425 h    0.836   426 h    0.817
   425   1 h    0.884 --   424 o    0.836
   426   1 h    0.888 --   424 o    0.817
   427   8 o    1.866 --   428 h    0.845   429 h    0.831
   428   1 h    0.883 --   427 o    0.845
   429   1 h    0.890 --   427 o    0.831
   430   8 o    1.848 --   431 h    0.869   432 h    0.801
   431   1 h    0.896 --   430 o    0.869
   432   1 h    0.869 --   430 o    0.801
   433   8 o    1.835 --   435 h    0.862   434 h    0.834
   434   1 h    0.890 --   433 o    0.834
   435   1 h    0.893 --   433 o    0.862
   436   8 o    1.804 --   437 h    0.843   438 h    0.825
   437   1 h    0.889 --   436 o    0.843
   438   1 h    0.884 --   436 o    0.825
   439   8 o    1.830 --   440 h    0.874   441 h    0.852
   440   1 h    0.895 --   439 o    0.874
   441   1 h    0.888 --   439 o    0.852
   442   8 o    1.837 --   443 h    0.867   444 h    0.825
   443   1 h    0.902 --   442 o    0.867
   444   1 h    0.873 --   442 o    0.825
   445   8 o    1.839 --   446 h    0.896   447 h    0.837
   446   1 h    0.899 --   445 o    0.896
   447   1 h    0.880 --   445 o    0.837
   448   8 o    1.840 --   449 h    0.856   450 h    0.820
   449   1 h    0.898 --   448 o    0.856
   450   1 h    0.879 --   448 o    0.820
   451   8 o    1.854 --   452 h    0.862   453 h    0.791
   452   1 h    0.897 --   451 o    0.862
   453   1 h    0.867 --   451 o    0.791
   454   8 o    1.854 --   456 h    0.861   455 h    0.840
   455   1 h    0.882 --   454 o    0.840
   456   1 h    0.890 --   454 o    0.861
   457   8 o    1.833 --   458 h    0.849   459 h    0.805
   458   1 h    0.891 --   457 o    0.849
   459   1 h    0.876 --   457 o    0.805
   460   8 o    1.859 --   461 h    0.855   462 h    0.797
   461   1 h    0.890 --   460 o    0.855
   462   1 h    0.874 --   460 o    0.797
   463   8 o    1.859 --   465 h    0.828   464 h    0.810
   464   1 h    0.885 --   463 o    0.810
   465   1 h    0.891 --   463 o    0.828
   466   8 o    1.836 --   467 h    0.870   468 h    0.845
   467   1 h    0.892 --   466 o    0.870
   468   1 h    0.883 --   466 o    0.845
   469   8 o    1.802 --   470 h    0.836   471 h    0.810
   470   1 h    0.896 --   469 o    0.836
   471   1 h    0.884 --   469 o    0.810
   472   8 o    1.826 --   474 h    0.826   473 h    0.811
   473   1 h    0.880 --   472 o    0.811
   474   1 h    0.890 --   472 o    0.826
   475   8 o    1.875 --   477 h    0.827   476 h    0.823
   476   1 h    0.892 --   475 o    0.823
   477   1 h    0.889 --   475 o    0.827
   478   8 o    1.829 --   480 h    0.877   479 h    0.847
   479   1 h    0.884 --   478 o    0.847
   480   1 h    0.887 --   478 o    0.877
   481   8 o    1.862 --   482 h    0.831   483 h    0.803
   482   1 h    0.886 --   481 o    0.831
   483   1 h    0.870 --   481 o    0.803
   484   8 o    1.848 --   486 h    0.844   485 h    0.814
   485   1 h    0.880 --   484 o    0.814
   486   1 h    0.892 --   484 o    0.844
   487   8 o    1.856 --   489 h    0.848   488 h    0.817
   488   1 h    0.882 --   487 o    0.817
   489   1 h    0.891 --   487 o    0.848
   490   8 o    1.827 --   492 h    0.837   491 h    0.836
   491   1 h    0.881 --   490 o    0.836
   492   1 h    0.892 --   490 o    0.837
   493   8 o    1.865 --   494 h    0.795   495 h    0.783
   494   1 h    0.878 --   493 o    0.795
   495   1 h    0.871 --   493 o    0.783
   496   8 o    1.830 --   497 h    0.850   498 h    0.845
   497   1 h    0.884 --   496 o    0.850
   498   1 h    0.886 --   496 o    0.845
   499   8 o    1.858 --   500 h    0.852   501 h    0.808
   500   1 h    0.888 --   499 o    0.852
   501   1 h    0.881 --   499 o    0.808
   502   8 o    1.872 --   504 h    0.816   503 h    0.813
   503   1 h    0.882 --   502 o    0.813
   504   1 h    0.874 --   502 o    0.816
   505   8 o    1.877 --   506 h    0.818   507 h    0.814
   506   1 h    0.890 --   505 o    0.818
   507   1 h    0.886 --   505 o    0.814
   508   8 o    1.868 --   510 h    0.834   509 h    0.793
   509   1 h    0.878 --   508 o    0.793
   510   1 h    0.887 --   508 o    0.834
   511   8 o    1.846 --   512 h    0.867   513 h    0.824
   512   1 h    0.887 --   511 o    0.867
   513   1 h    0.880 --   511 o    0.824
   514   8 o    1.847 --   516 h    0.898   515 h    0.798
   515   1 h    0.873 --   514 o    0.798
   516   1 h    0.902 --   514 o    0.898
   517   8 o    1.834 --   518 h    0.865   519 h    0.821
   518   1 h    0.893 --   517 o    0.865
   519   1 h    0.881 --   517 o    0.821
   520   8 o    1.829 --   521 h    0.851   522 h    0.833
   521   1 h    0.891 --   520 o    0.851
   522   1 h    0.886 --   520 o    0.833
   523   8 o    1.819 --   524 h    0.867   525 h    0.831
   524   1 h    0.894 --   523 o    0.867
   525   1 h    0.883 --   523 o    0.831
   526   8 o    1.839 --   527 h    0.845   528 h    0.812
   527   1 h    0.892 --   526 o    0.845
   528   1 h    0.880 --   526 o    0.812
   529   8 o    1.819 --   531 h    0.890   530 h    0.860
   530   1 h    0.894 --   529 o    0.860
   531   1 h    0.898 --   529 o    0.890
 ---------------------------------------------------------------------------

Topologies differ in total number of bonds
Writing topology from bond orders to xtbtopo.mol

molecular dipole:
                 x           y           z       tot (Debye)
 q only:       -2.640       2.463       2.429
   full:       -2.401       2.881       2.942      12.115
molecular quadrupole (traceless):
                xx          xy          yy          xz          yz          zz
 q only:       42.575     -22.939      13.812     -19.139       4.773     -56.387
  q+dip:       59.483     -37.903      15.504     -32.773       7.837     -74.988
   full:       60.583     -39.089      15.218     -33.324       7.028     -75.801


           -------------------------------------------------
          | TOTAL ENERGY             -901.400126733651 Eh   |
          | GRADIENT NORM               0.100411709134 Eh/α |
          | HOMO-LUMO GAP               7.484100421196 eV   |
           -------------------------------------------------

------------------------------------------------------------------------
 * finished run on 2022/11/17 at 06:54:58.398     
------------------------------------------------------------------------
 total:
 * wall-time:     0 d,  0 h,  0 min,  9.222 sec
 *  cpu-time:     0 d,  0 h,  0 min, 13.523 sec
 * ratio c/w:     1.466 speedup
 SCF:
 * wall-time:     0 d,  0 h,  0 min,  8.641 sec
 *  cpu-time:     0 d,  0 h,  0 min, 12.468 sec
 * ratio c/w:     1.443 speedup

