531
 energy: -901.176398892887 gnorm: 0.031442339287 xtb: 6.5.1 (579679a)
o           -0.90909083735721       -2.66030023338527       -2.04691640299301
h           -0.34179773378893       -3.44499156768369       -1.97859391083192
h           -0.43560771268553       -2.01686214768160       -2.61959273756206
o            3.91356745691095       -4.22726264840705        1.91245498736802
h            4.05909507160921       -3.68727446050551        2.70881657088387
h            3.05283680736685       -3.97733019399498        1.54027496679797
o            2.53596081982120       -1.03312834844951        2.71966448287753
h            1.81321456657547       -1.64310903935704        2.97129160453226
h            2.16159587075373       -0.14645186481273        2.91155294547463
o            1.72240707269989       -3.15027124012730       -4.70058460159360
h            1.07979931631937       -3.82157497494539       -4.95598969659802
h            1.53349532692683       -2.33117747752036       -5.19670238626534
o           -4.24590393047753       -1.19838472211726        3.39683851075155
h           -4.69149611053702       -0.88419791416685        4.20816339917894
h           -4.92088895495413       -1.57970124794014        2.80781330999948
o            5.06286862758203       -5.26355118656299       -3.27355571588899
h            4.80747544247647       -4.61661054968443       -3.94714510469562
h            5.93480171678666       -4.97544642519269       -2.96733428619943
o           -1.74009538125927       -2.63395026722972        2.18278588318744
h           -1.64696887449927       -1.81369755193039        1.67175151089978
h           -1.02885870274536       -2.58987569361884        2.84805487496608
o            4.01639300657097       -6.72086328165779        0.81554533633626
h            4.91837786518711       -6.84340934978844        0.47345217247431
h            4.04677027795231       -5.90693077697226        1.35310026356310
o           -3.35560215447709       -2.28730723469051       -0.36984667678676
h           -2.88454291538032       -3.11913108061619       -0.58703615493637
h           -4.02846714315073       -2.19275045436295       -1.07782253420299
o           -0.39555110130212        3.46795491715356        3.54366824902896
h           -1.04038352617625        2.74905266765121        3.46470348015486
h           -0.37840765769253        3.90152578782804        2.67078137871260
o           -1.74340051985243       -0.13779989501511       -1.29392322345341
h           -1.85708668960476       -1.08815608044421       -1.41042067884537
h           -2.63480070705117        0.24607517966996       -1.20455837154455
o            3.59061580187333        3.74937215734429        2.34484023225271
h            4.15419619648576        3.78280776184210        1.53244861112382
h            4.09165028168885        4.18373026334595        3.07353190104655
o            1.53890103392528        2.63737825221157        0.92374972449704
h            0.79342052158862        3.26921716069140        0.93472378107901
h            2.28930498760498        3.06664145758580        1.35366403981095
o           -4.18288826092387        1.62453074378098        3.08449204672965
h           -4.59599909559670        1.69842287882518        3.95920593157633
h           -3.86832419600817        2.53157504762807        2.87363374909246
o           -1.16635742078853        4.49234646291304       -2.94361140000024
h           -1.20988059525092        4.44758741876584       -3.93048455114143
h           -1.89497211649030        3.91623824286307       -2.62256038668641
o           -2.35239262315214        6.80415933202997       -2.66325780671094
h           -1.88963471678534        5.93228589151968       -2.81251014366355
h           -2.98041491238591        6.87743747573178       -3.38464431698253
o           -3.45617614514634        3.39926139142635       -2.14750706516062
h           -3.99814507686374        3.79937638460499       -2.85687907304735
h           -3.54301656398955        4.01879292454846       -1.39893723291092
o            0.10293950474970       -0.85335947912764       -3.66476923279345
h           -0.28350427859731       -1.21464094990909       -4.47882872066765
h           -0.33817488132539        0.00865352889710       -3.55350778841604
o            4.01247688033417        1.39285905627445        3.65482892871591
h            3.69537960825335        2.23768450889429        3.28841876921035
h            3.30974311963182        1.03364915770127        4.22638633848816
o            5.17995728501880       -3.92781002298936       -0.60735109705197
h            4.77685351831769       -3.89899398486270        0.27525356316301
h            5.80826202622646       -3.18668814394866       -0.64181625035406
o           -4.89942626734582        5.11882887098992       -3.68075470631019
h           -5.26657434258257        5.76162699955311       -3.06630306911741
h           -5.67471753081621        4.76687115734367       -4.15376852652529
o            1.12448480377378        2.16491667044541       -3.74279487815443
h            1.83982383030680        1.50974646312996       -3.80058600759279
h            1.33342390018877        2.75983697625047       -3.00808988901804
o            4.82936336644604        4.77400566528180        4.45374311289498
h            5.58998378727750        5.18915943686527        4.02911052409104
h            5.16748169677623        4.00449032707527        4.97068408323437
o            7.86128722555276       -0.49288669567135        1.51124441959102
h            7.24395629002722       -0.45091870876482        2.28502978020178
h            8.73265734810994       -0.75233132260081        1.82577077491056
o           -4.22119368397005        0.89317262653392       -1.30674053946467
h           -4.00113193268663        1.79899543479446       -1.59172436112463
h           -4.33110014647329        0.37950066509084       -2.12376371016361
o            1.96818187909798       -2.43889421682663       -2.08833606935007
h            2.89778172425217       -2.14187206718326       -2.04471078309778
h            1.83394519385188       -2.77163268455581       -2.99049082225080
o           -3.13376625575860       -1.91571833656537        6.45595793533543
h           -3.96061363184588       -1.40398529584222        6.42513432909476
h           -3.23019661511165       -2.57705916570802        5.73482487403973
o           -5.54555402209983        2.15957998654048       -3.80035434481410
h           -6.12169172634767        2.20470375035420       -4.58213799638251
h           -5.72230432000137        1.26943612582528       -3.42486336765119
o           -7.33085092606501        4.26864851236748       -4.71029794229248
h           -7.80850665054958        3.58471975012020       -4.20541765813351
h           -7.24211673479765        3.90512645569380       -5.59440318026794
o            4.81631747825632       -0.15226906507301        6.66295433393079
h            3.94832542468588        0.09185309327819        6.29094606424452
h            5.33167876314230        0.66210311907198        6.63024705826490
o            4.42002467902308       -3.25177313451029       -5.06448517323180
h            3.45140896378835       -3.20796328017459       -4.96972540392344
h            4.67113940052555       -2.61777093663115       -5.75665753661420
o           -9.37722920920841       -5.38455118063722       -1.43889011570401
h           -8.79135198116438       -5.73405419111111       -0.74661157483145
h          -10.08662814639210       -4.92165093198363       -0.98926238921922
o           -0.57961254942538        2.16824814503635       -1.37133657717120
h           -1.27257882853370        2.25947135817292       -0.68811956985840
h           -0.07093791551880        2.98856958282954       -1.43491892507261
o            0.51647245028326       -4.94013263046891       -2.16249699686974
h            1.45141210404227       -5.13108303655301       -1.99209537227947
h            0.38228564813279       -5.04276141784727       -3.11893087233465
o            1.22255143667553        1.20593145751728        3.17311582210750
h            1.24361517432111        1.70593466982815        2.33401785015694
h            0.29791082666070        0.99669674942939        3.33238971183078
o            2.36770955603087       -6.64614970668970       -4.11496351972584
h            3.20775099179440       -6.46290229059095       -4.53900587268424
h            2.53848442708676       -6.54892763380974       -3.16360987188965
o            4.38430976533656       -2.38193516611096        3.90196359568719
h            4.15893403604639       -2.49122786517098        4.83665088536986
h            3.71508396782528       -1.76217018061114        3.53594819864498
o           -5.39785681200275       -2.48114980470609        1.38257384502888
h           -6.16757161099096       -2.40667870061567        0.78422331374217
h           -4.60019215790756       -2.46739804918214        0.81838780797224
o            4.62189966129366       -1.54446529370928        0.88820186049506
h            3.84946215345840       -1.58100349611936        1.46844075576262
h            4.86573184037176       -0.59067823839880        0.89103614903202
o            2.60316635958613        5.29717506364346       -4.27869243483524
h            2.08950736074154        4.89076566264931       -5.00341517889800
h            1.92878152595318        5.72605232355370       -3.70787701049397
o            3.05004582952552       -5.77868686237026       -1.53770028173667
h            3.82925452523308       -5.42926624608882       -2.01942231084385
h            3.39772659146872       -6.26517686833536       -0.76296865501375
o            0.67828755137068       -1.73730843861748        6.04568412979934
h            0.22795494175090       -2.46283934540504        6.55068052374699
h           -0.03905837977650       -1.06813245710164        5.94129796138373
o            3.29315974457037       -2.63316719870264        6.41502768573244
h            2.39834013968893       -2.26046891208057        6.38800284913965
h            3.84702099548482       -2.00843895606318        6.89556636964961
o           -1.36556768360670       -0.12430054936780        5.68287765445905
h           -2.08126926070621       -0.75481404477037        5.94950606732242
h           -1.52353779955086        0.14502083964524        4.75035545977597
o            3.81829531484954        2.92006330408505       -3.81384187386285
h            3.33465753522019        3.76508673328632       -3.82618835481743
h            4.74794432809946        3.12100738444234       -3.57275084833051
o            0.74743881655481        6.35655849675714       -2.71140030834423
h            0.15810635423110        5.58025404678048       -2.65389926547918
h            0.21591723626774        7.07187167829264       -3.06106217410359
o           -2.38378826163912       -4.68052821625437       -0.98834841870387
h           -1.61533589563362       -4.79164196624562       -0.39752326901915
h           -2.13728559500876       -5.03732188025181       -1.84774940507124
o           -5.68017009301068        0.81932850458528        0.99970532325019
h           -5.13752506705542        0.58478719204507        0.22461625976053
h           -5.06471318881055        0.91351031584735        1.75517479586001
o           10.38841869159322        2.61703772579866       -0.73709358691476
h            9.52939734389076        2.44367891058262       -0.29127759347591
h           11.08634582044153        2.44803004527874       -0.09244222952365
o           -3.23839650905084        2.42208851078583       -5.33802318905397
h           -2.57994353734049        2.11852772814902       -4.67294046685821
h           -4.08224512786130        2.43599442679537       -4.85347795250869
o           -9.10663881951281        4.46147003117787       -1.49357964863025
h           -9.45871062014880        4.85956608104388       -2.28998806194161
h           -8.33675488124042        3.93786383185640       -1.78388516119662
o            1.16682693784523        2.81551676158452        5.63597176841125
h            0.38632644685781        2.71692492043165        6.20505731011322
h            0.80627958429586        2.87769057671638        4.72930761142864
o          -10.34591471373657        1.17383693019460       -1.68755872903304
h          -10.72973619182651        1.67282649060003       -0.96377543088357
h           -9.58698868644727        0.66818639400755       -1.31880238494537
o           -1.59840589450479        0.91402259139955        3.26570465331770
h           -2.56035135095823        1.10811894949200        3.19683238340709
h           -1.38000907056666        0.42205480854280        2.45528654180559
o            6.56863134378173       -2.16171541994240        5.89805635799561
h            5.92241599803565       -1.49173892130067        6.17416542797886
h            7.36535880886369       -1.65272354236533        5.70092073868526
o           10.07578175969831        2.70243131207636        2.72405128277037
h            9.62398767681474        3.40949628857679        2.23412161622467
h           10.81885675525833        2.43108380365104        2.16262242555801
o          -10.06940409389003        1.42165583490285        4.18760679258612
h           -9.10687912459040        1.24536198055879        4.39179488584196
h          -10.56864347187211        1.02005497586227        4.89742680623091
o           -2.93802745621837        0.22383439673353       -6.83870696792462
h           -3.08132757382372        1.03070946757389       -6.28333134265099
h           -2.50094672766947        0.53814157547261       -7.63001518910950
o           -0.55600363991583       -4.72219346968882        0.98373515703202
h           -0.92827158927770       -3.93404048081105        1.42563160063425
h            0.35062078757052       -4.48081876588267        0.71035717769506
o            3.89463643786702        5.89613667607359       -1.63104819267611
h            3.10136143616480        6.07341789502604       -1.08646898640055
h            3.57536910388751        5.82906300769667       -2.53564831955024
o           -4.90978655738463        3.30777323931450        0.35242726070306
h           -5.14668191070623        4.02210472064074        0.97261100316384
h           -5.32229208321345        2.47696710159424        0.66928985170538
o           -7.51239839062150       -0.60935895826560        2.28919279821561
h           -6.82785353463194       -0.17090488204415        1.74118799085761
h           -8.37602487559683       -0.30999045584008        1.95725627951135
o           -6.24277028091386        6.10905126431998       -1.32521110445091
h           -6.89431885236534        6.43447069492849       -0.70091183397120
h           -6.48576203826982        5.17703227979028       -1.52225464876969
o           -7.76735220466784        2.35635041728461        0.46772293670625
h           -7.38984240119233        2.72829497197672       -0.34754993325550
h           -8.72282241312234        2.53717082660854        0.44429056298020
o            8.03805792575256        1.85253618672714        0.29923705083750
h            7.49064452183998        2.37628580203544        0.92557753762774
h            8.13304242814020        0.98250975174560        0.74569060061708
o            4.70294287247473        1.03723835586794        1.03084215696138
h            5.40110852550077        1.67076033849199        1.25874532241743
h            4.14518126152240        1.01070829462953        1.81694556172929
o            4.32285097043879       -1.27478122832950       -1.89371156830717
h            5.11259997986774       -1.53305834186734       -2.41720071913938
h            4.54037057655767       -1.45519826789098       -0.96408013895555
o           -0.75190981633986        5.66176023691844        5.05215863907559
h           -0.61618521253225        4.84526411937077        4.51748291388132
h            0.10965302282659        5.85557558673670        5.43358216768812
o           -5.32969848772607       -0.48823601140314        5.74131924563734
h           -6.22207698403421       -0.88003833305264        5.84820055472099
h           -5.44076613252150        0.46983138101048        5.78579153631114
o           -2.41375884375847        2.37762703311066        0.55416440758649
h           -3.27965280552325        2.81132038607397        0.43946351112800
h           -2.62544755191894        1.46717307557987        0.83211077479909
o            6.32557246563172       -2.08990577800486       -3.46082341261519
h            5.71048933859740       -2.47984707172699       -4.10259581087295
h            6.76906695868602       -2.83825013497566       -3.02099395062110
o           -3.35757977439371       -3.51007195604563        4.33125079375932
h           -3.44256306440895       -2.69742652574051        3.78628382551949
h           -4.17464445778857       -4.00854406359889        4.16100936335383
o            3.41100423803723       -0.04075164841914       -7.71869587088219
h            3.45739800593289        0.87134412985941       -7.37845197824873
h            4.22251881894721       -0.48194706498643       -7.41406327704501
o            1.59854744379149       -0.80163517832684       -6.01679050878006
h            2.25475208511065       -0.60969629943409       -6.73200594142402
h            0.96862252133422       -0.04851701429879       -6.03509731958152
o           -8.39248985956917       -0.50987020059562       -4.59719653558576
h           -8.08300822768219       -1.27754138687367       -5.09029485673754
h           -9.08007642727722       -0.85643675614215       -3.97982527956350
o            6.29911432448651        0.78626873025235       -1.38380176531519
h            6.89684388313082        1.23620206280855       -0.74318144195000
h            6.37334018860011       -0.16475700471439       -1.16887915395500
o            6.22535795222966       -6.36574983800427       -0.64164915076969
h            5.83607413774636       -5.45426475576942       -0.72097444691021
h            6.24988486545382       -6.72115477723105       -1.53017133173506
o          -10.35832614668467       -1.82939949017394       -0.11566526136897
h          -10.17317962676223       -2.60103492558386        0.43284242474199
h          -10.33676371518567       -1.07066589586699        0.48163617591507
o           -1.19683114616160        2.19616222124652        6.89326650666292
h           -1.29206590412588        1.30964372019521        6.45751724259038
h           -1.33496862034529        2.05975831180182        7.82976970447708
o            5.56667989093969        0.73356056094236       -4.69972901167296
h            4.63916820899158        0.70602608719715       -4.40302502850047
h            5.70951605038804        1.57559895892059       -5.16304585018778
o           -0.87863096528313        6.77539408329906       -0.21701513656608
h           -1.06132359153358        7.33143158971129        0.54658188608969
h           -1.38150325792811        7.09416361362452       -0.97413084082316
o            5.54765558730457       -1.18422415623136       -6.45790433525448
h            6.42342147505373       -1.27642640807672       -6.82948447328059
h            5.61521836503653       -0.48705094431282       -5.74158041971308
o            1.88150753323905       -3.90996221964496        0.16234441503825
h            1.82275720988979       -3.28413233320809       -0.58862021788973
h            2.30611620404534       -4.68571307617314       -0.23525331477401
o           -7.48101715133323       -2.45284350193232       -0.26023763555567
h           -7.45406741513364       -2.87264801788425       -1.14274995267885
h           -8.16136397331265       -2.92524074450487        0.26167221152288
o           -8.55162947070484        2.19042232707895       -3.41079603385628
h           -9.29688016646260        1.97114110302315       -2.82121891295535
h           -8.39634950671114        1.37805179604852       -3.90415169738412
o            1.17358721421785        3.60686719216522       -5.91236672276788
h            1.96097897566628        3.26242590362150       -6.36766569712683
h            1.12507505931900        3.08818255208762       -5.05994957805251
o            6.17471545372781       -0.39326076731424        3.49103847771171
h            5.71548894303367       -1.22075435244213        3.72265180712309
h            5.49809348190329        0.29402277342152        3.47641687146835
o           12.08168807889647        1.57875714332744        1.18267654817488
h           11.66218363941679        0.69661808847005        1.10110527464287
h           12.97592448223159        1.43823193876514        1.49275043200696
o            1.74951009268554        6.04540420072490       -0.06367777809240
h            1.73273066214221        5.95471167813916        0.90309765931335
h            0.89952585444487        6.43759838363850       -0.31667968331930
o            6.44884195379514        2.75276159860670        2.17428974157579
h            6.43123295592902        3.71942599072273        2.28119115205800
h            6.91396555964281        2.37294589634499        2.94931149627168
o           -1.92406503919096       -6.42138634744244       -3.21906824504415
h           -1.57301327876020       -7.03972159867504       -2.56872854858107
h           -2.89453214495389       -6.42552330555882       -3.13038154167243
o            6.57361642731911       -3.12438977452825        1.93074641227116
h            5.86180087495954       -2.52098618201030        1.63243666184729
h            6.24369556542848       -3.62655669933890        2.70604489224125
o            1.37053797604571       -7.07613425079722        1.29369841897436
h            1.39147578130304       -6.31028920705011        1.89217483734962
h            2.29475398639948       -7.25206958647439        1.08006728039437
o           -7.47023530413350       -5.83125303109323        0.51829778121405
h           -7.03317796138237       -6.46069609549544        1.10665612292789
h           -6.72868349633254       -5.36938206334476        0.06922349297747
o           -7.65161983270525       -1.82744857095449        5.98710572043368
h           -7.68294145649922       -2.53018721235669        6.63534431689222
h           -7.85724465312787       -2.23869626580027        5.11834612913483
o           -3.40710654399891       -6.46707644640338        3.69757771034967
h           -2.60033299304892       -6.89097525927549        3.37641231164624
h           -3.52628307584171       -5.70132452454770        3.10532819679659
o           -3.02957425962500       -2.95584418056554       -3.55318366324625
h           -2.77484830995773       -3.43036160424095       -4.36170401383403
h           -2.25389868768972       -2.96547946887149       -2.94401232396331
o            8.04568540994469       -4.55244053513782        0.22853006989769
h            7.45317504111657       -4.01968407066538        0.80747040738535
h            7.67642042570410       -5.44502118402671        0.21897949268395
o           -6.39014103804139       -0.19455874654950       -2.85914606133691
h           -6.96160772422265       -0.01785186644376       -2.07568294372437
h           -7.02554041859087       -0.37279186891354       -3.58232463324266
o           -4.59075071318362       -6.20715588531856       -2.71201896298670
h           -4.71535300902334       -5.66525012479483       -1.89423681795846
h           -5.03756441332950       -7.03842894589527       -2.55515465164024
o            8.75030407947250       -0.64962443172953        4.87826848090836
h            9.68137248339077       -0.37641256337760        4.83906266404594
h            8.70279122438085       -1.40613575654288        4.26110577776732
o           -0.49528647424874       -7.08671904111493       -0.84788636603562
h            0.11309125700790       -7.23797900078153       -0.10881539280424
h           -0.15046806843987       -6.27946096610980       -1.27588892342655
o           -1.06371809901117       -6.97752695974576        2.45061826603903
h           -0.87691704104204       -6.13180804290907        1.98635590161190
h           -0.29207051600234       -7.52078275204381        2.26450820260556
o           -3.14155027163600       -0.13393812907351        1.21948616015978
h           -3.20665333179596       -0.86344688579184        0.58616036691797
h           -3.49113946140216       -0.46571395599231        2.06360983164439
o           -1.14713384107256       -4.98300118619165        4.74747267864329
h           -1.59519921010219       -5.83222359970320        4.80888449644588
h           -1.85569713063386       -4.37544186435944        4.44329504776439
o            7.01039457309607       -1.77106671488559       -0.69428451748611
h            7.83727298618085       -2.06487235382733       -1.11426494612172
h            7.26902641660099       -1.43227314921766        0.18431277349989
o            6.62638040772395        5.44723494162179        2.38322639589140
h            7.56311860251583        5.35020502022362        2.14444019334492
h            6.21218772505137        5.88525513428344        1.62505606293230
o           -7.50339091955718        0.97617733233302        4.46475758497314
h           -7.43872527935678        0.25251471527222        3.80910256580264
h           -7.19384547067607        1.76407968373384        3.98710162778818
o           -0.59616221609006        4.25576728496216        0.97487711165396
h           -1.36461351609506        3.65693709942017        0.88952909887227
h           -0.80189694190229        5.08007589028553        0.51409284500373
o           -9.13595068499338       -3.87366948391227        1.33033673817519
h           -8.61662873377460       -4.68328407239890        1.16406097830173
h           -8.88190010486319       -3.57683595425164        2.22712471397374
o           -5.43023811819826       -7.01061593237589        1.94455859418945
h           -4.90588659664642       -7.12580596148856        2.75422578107100
h           -4.78145645439063       -7.07040932202842        1.23005556857922
o          -10.39161492759658        2.98512185094919        0.49759852553442
h          -10.25617014726291        3.41618038465687        1.37633006100839
h          -10.26752282160947        3.66095960904681       -0.18377395925018
o            7.57430716817809       -4.29067681472339       -2.44852289013328
h            8.44520642947848       -4.05870701664535       -2.78007759267243
h            7.69486542649277       -4.33416091628943       -1.47513814164098
o            1.29111380631416       -5.15099143120599        3.37618621776712
h            2.06028691765268       -5.22517765032341        3.96668321558268
h            0.48975276496211       -5.35949370896179        3.88519443604330
o           -4.90434021688962       -4.76476690863895       -5.13686690941670
h           -4.75542467290543       -5.26625194701262       -4.32249845407130
h           -4.04038660574456       -4.63859613984467       -5.54723008904452
o           -3.10654019558422        3.98214766864826        2.98196431064202
h           -3.02157303076755        4.08384205601331        3.94241745183386
h           -3.25862482247413        4.86993928378136        2.61166960639721
o            6.21557722033725        3.19622922926313       -2.72768144853388
h            6.13882460545813        2.35467469874014       -2.25160363010307
h            6.92793757744634        3.04631825867162       -3.40248880232708
o           -1.14891347210701       -1.61138425900029       -6.00563933631467
h           -0.38683720281045       -1.42422876166438       -6.56204636739236
h           -1.81679529044325       -0.92222351763859       -6.21764473934495
o           -2.91461340509079       -7.14541800836886        0.45066674968843
h           -2.19692741807539       -7.09203273322204       -0.20636811595401
h           -2.44221970951794       -7.39222881337093        1.26084737822237
o           10.06447156884814        0.08187151270403       -1.60342296903928
h           10.31806406882020        1.01425366480075       -1.47242608179261
h            9.32427599582089        0.10949146274175       -2.24682060374638
o           10.57348201462329       -0.65863037599429        0.97213678920800
h           10.65376892737446       -1.63123535325901        0.97431680020554
h           10.29491323036799       -0.41895237443099        0.06403251605907
o           -3.58821632379557       -4.71435769941551        1.51981830639552
h           -2.96764829617011       -3.98666587082886        1.65927698575728
h           -3.14378150992925       -5.41758451617231        1.01176864623122
o           -5.80137482286539        5.26102540939729        1.96580134001859
h           -5.11426111501378        5.93502878906524        2.05921511215208
h           -6.58218542702442        5.64533130124279        1.53361767671551
o           -8.05181630727635        0.05489127300753       -0.84190210279098
h           -7.72783797963378        0.67270952838805       -0.16488172040252
h           -7.94038616721449       -0.86552244119952       -0.51823594421954
o           -5.32336002671421       -4.72346698907062       -0.63505257988167
h           -4.67963619353688       -4.64769532770050        0.09792912061433
h           -5.36788858008323       -3.85596676045454       -1.07762014752165
o           -9.60387693988051        3.87230999993863        2.86297122218209
h           -8.64763899789727        3.65253218922893        2.93608714329830
h          -10.02764456656442        3.22234810674011        3.44100087475431
o            6.09007524148059        3.15457343692772       -6.00121393812493
h            5.85749059245941        4.02104991363880       -5.61459117169482
h            7.01869169052632        3.02572035838232       -5.76216475420325
o            5.87440647438987        6.75229569764185       -0.01082298649605
h            5.13142805082122        6.50701580549816       -0.59465284402982