      -----------------------------------------------------------      
     |                   =====================                   |     
     |                           x T B                           |     
     |                   =====================                   |     
     |                         S. Grimme                         |     
     |          Mulliken Center for Theoretical Chemistry        |     
     |                    University of Bonn                     |     
      -----------------------------------------------------------      

   * xtb version 6.5.1 (579679a) compiled by 'ehlert@majestix' on 2022-07-11

   xtb is free software: you can redistribute it and/or modify it under
   the terms of the GNU Lesser General Public License as published by
   the Free Software Foundation, either version 3 of the License, or
   (at your option) any later version.
   
   xtb is distributed in the hope that it will be useful,
   but WITHOUT ANY WARRANTY; without even the implied warranty of
   MERCHANTABILITY or FITNESS FOR A PARTICULAR PURPOSE.  See the
   GNU Lesser General Public License for more details.
   
   Cite this work as:
   * C. Bannwarth, E. Caldeweyher, S. Ehlert, A. Hansen, P. Pracht,
     J. Seibert, S. Spicher, S. Grimme, WIREs Comput. Mol. Sci., 2020, 11,
     e01493. DOI: 10.1002/wcms.1493
   
   for GFN2-xTB:
   * C. Bannwarth, S. Ehlert and S. Grimme., J. Chem. Theory Comput., 2019,
     15, 1652-1671. DOI: 10.1021/acs.jctc.8b01176
   for GFN1-xTB:
   * S. Grimme, C. Bannwarth, P. Shushkov, J. Chem. Theory Comput., 2017,
     13, 1989-2009. DOI: 10.1021/acs.jctc.7b00118
   for GFN0-xTB:
   * P. Pracht, E. Caldeweyher, S. Ehlert, S. Grimme, ChemRxiv, 2019, preprint.
     DOI: 10.26434/chemrxiv.8326202.v1
   for GFN-FF:
   * S. Spicher and S. Grimme, Angew. Chem. Int. Ed., 2020, 59, 15665-15673.
     DOI: 10.1002/anie.202004239
   
   for ALPB and GBSA implicit solvation:
   * S. Ehlert, M. Stahn, S. Spicher, S. Grimme, J. Chem. Theory Comput.,
     2021, 17, 4250-4261. DOI: 10.1021/acs.jctc.1c00471
   
   for DFT-D4:
   * E. Caldeweyher, C. Bannwarth and S. Grimme, J. Chem. Phys., 2017,
     147, 034112. DOI: 10.1063/1.4993215
   * E. Caldeweyher, S. Ehlert, A. Hansen, H. Neugebauer, S. Spicher,
     C. Bannwarth and S. Grimme, J. Chem. Phys., 2019, 150, 154122.
     DOI: 10.1063/1.5090222
   * E. Caldeweyher, J.-M. Mewes, S. Ehlert and S. Grimme, Phys. Chem. Chem. Phys.
     2020, 22, 8499-8512. DOI: 10.1039/D0CP00502A
   
   for sTDA-xTB:
   * S. Grimme and C. Bannwarth, J. Chem. Phys., 2016, 145, 054103.
     DOI: 10.1063/1.4959605
   
   in the mass-spec context:
   * V. Asgeirsson, C. Bauer and S. Grimme, Chem. Sci., 2017, 8, 4879.
     DOI: 10.1039/c7sc00601b
   * J. Koopman and S. Grimme, ACS Omega 2019, 4, 12, 15120-15133.
     DOI: 10.1021/acsomega.9b02011
   
   for metadynamics refer to:
   * S. Grimme, J. Chem. Theory Comput., 2019, 155, 2847-2862
     DOI: 10.1021/acs.jctc.9b00143
   
   for SPH calculations refer to:
   * S. Spicher and S. Grimme, J. Chem. Theory Comput., 2021, 17, 1701-1714
     DOI: 10.1021/acs.jctc.0c01306
   
   with help from (in alphabetical order)
   P. Atkinson, C. Bannwarth, F. Bohle, G. Brandenburg, E. Caldeweyher
   M. Checinski, S. Dohm, S. Ehlert, S. Ehrlich, I. Gerasimov, C. Hölzer
   A. Katbashev, J. Koopman, C. Lavigne, S. Lehtola, F. März, M. Müller,
   F. Musil, H. Neugebauer, J. Pisarek, C. Plett, P. Pracht, F. Pultar,
   J. Seibert, P. Shushkov, S. Spicher, M. Stahn, M. Steiner, T. Strunk,
   J. Stückrath, T. Rose, and J. Unsleber
   
 * started run on 2022/11/24 at 12:04:43.998     

           -------------------------------------------------
          |                Calculation Setup                |
           -------------------------------------------------

          program call               : xtb solvent_cluster.coord --gfn2 --input xcontrol --opt 1
          hostname                   : cn0430
          coordinate file            : solvent_cluster.coord
          omp threads                :                     2

   ID    Z sym.   atoms
    1    8 o      1, 4, 7, 10, 13, 16, 19, 22, 25, 28, 31, 34, 37, 40, 43,
                  46, 49, 52, 55, 58, 61, 64, 67, 70, 73, 76, 79, 82, 85, 88,
                  91, 94, 97, 100, 103, 106, 109, 112, 115, 118, 121, 124,
                  127, 130, 133, 136, 139, 142, 145, 148, 151, 154, 157, 160,
                  163, 166, 169, 172, 175, 178, 181, 184, 187, 190, 193, 196,
                  199, 202, 205, 208, 211, 214, 217, 220, 223, 226, 229, 232,
                  235, 238, 241, 244, 247, 250, 253, 256, 259, 262, 265, 268,
                  271, 274, 277, 280, 283, 286, 289, 292, 295, 298, 301, 304,
                  307, 310, 313, 316, 319, 322, 325, 328, 331, 334, 337, 340,
                  343, 346, 349, 352, 355, 358, 361, 364, 367, 370, 373, 376,
                  379, 382, 385, 388, 391, 394, 397, 400, 403, 406, 409, 412,
                  415, 418, 421, 424, 427, 430, 433, 436, 439, 442, 445, 448,
                  451, 454, 457, 460, 463, 466, 469, 472, 475, 478, 481, 484,
                  487, 490, 493, 496, 499, 502, 505, 508, 511, 514, 517, 520,
                  523, 526, 529, 532, 535, 538, 541, 544, 547, 550, 553, 556,
                  559, 562, 565, 568, 571, 574, 577, 580, 583, 586, 589, 592,
                  595, 598, 601, 604, 607, 610, 613, 616, 619, 622, 625, 628,
                  631, 634, 637, 640, 643, 646, 649, 652, 655, 658, 661, 664,
                  667, 670, 673, 676, 679, 682, 685, 688, 691, 694, 697, 700,
                  703, 706, 709, 712, 715, 718, 721, 724, 727, 730, 733, 736,
                  739, 742, 745, 748, 751, 754
    2    1 h      2, 3, 5, 6, 8, 9, 11, 12, 14, 15, 17, 18, 20, 21, 23, 24,
                  26, 27, 29, 30, 32, 33, 35, 36, 38, 39, 41, 42, 44, 45, 47,
                  48, 50, 51, 53, 54, 56, 57, 59, 60, 62, 63, 65, 66, 68, 69,
                  71, 72, 74, 75, 77, 78, 80, 81, 83, 84, 86, 87, 89, 90, 92,
                  93, 95, 96, 98, 99, 101, 102, 104, 105, 107, 108, 110, 111,
                  113, 114, 116, 117, 119, 120, 122, 123, 125, 126, 128, 129,
                  131, 132, 134, 135, 137, 138, 140, 141, 143, 144, 146, 147,
                  149, 150, 152, 153, 155, 156, 158, 159, 161, 162, 164, 165,
                  167, 168, 170, 171, 173, 174, 176, 177, 179, 180, 182, 183,
                  185, 186, 188, 189, 191, 192, 194, 195, 197, 198, 200, 201,
                  203, 204, 206, 207, 209, 210, 212, 213, 215, 216, 218, 219,
                  221, 222, 224, 225, 227, 228, 230, 231, 233, 234, 236, 237,
                  239, 240, 242, 243, 245, 246, 248, 249, 251, 252, 254, 255,
                  257, 258, 260, 261, 263, 264, 266, 267, 269, 270, 272, 273,
                  275, 276, 278, 279, 281, 282, 284, 285, 287, 288, 290, 291,
                  293, 294, 296, 297, 299, 300, 302, 303, 305, 306, 308, 309,
                  311, 312, 314, 315, 317, 318, 320, 321, 323, 324, 326, 327,
                  329, 330, 332, 333, 335, 336, 338, 339, 341, 342, 344, 345,
                  347, 348, 350, 351, 353, 354, 356, 357, 359, 360, 362, 363,
                  365, 366, 368, 369, 371, 372, 374, 375, 377, 378, 380, 381,
                  383, 384, 386, 387, 389, 390, 392, 393, 395, 396, 398, 399,
                  401, 402, 404, 405, 407, 408, 410, 411, 413, 414, 416, 417,
                  419, 420, 422, 423, 425, 426, 428, 429, 431, 432, 434, 435,
                  437, 438, 440, 441, 443, 444, 446, 447, 449, 450, 452, 453,
                  455, 456, 458, 459, 461, 462, 464, 465, 467, 468, 470, 471,
                  473, 474, 476, 477, 479, 480, 482, 483, 485, 486, 488, 489,
                  491, 492, 494, 495, 497, 498, 500, 501, 503, 504, 506, 507,
                  509, 510, 512, 513, 515, 516, 518, 519, 521, 522, 524, 525,
                  527, 528, 530, 531, 533, 534, 536, 537, 539, 540, 542, 543,
                  545, 546, 548, 549, 551, 552, 554, 555, 557, 558, 560, 561,
                  563, 564, 566, 567, 569, 570, 572, 573, 575, 576, 578, 579,
                  581, 582, 584, 585, 587, 588, 590, 591, 593, 594, 596, 597,
                  599, 600, 602, 603, 605, 606, 608, 609, 611, 612, 614, 615,
                  617, 618, 620, 621, 623, 624, 626, 627, 629, 630, 632, 633,
                  635, 636, 638, 639, 641, 642, 644, 645, 647, 648, 650, 651,
                  653, 654, 656, 657, 659, 660, 662, 663, 665, 666, 668, 669,
                  671, 672, 674, 675, 677, 678, 680, 681, 683, 684, 686, 687,
                  689, 690, 692, 693, 695, 696, 698, 699, 701, 702, 704, 705,
                  707, 708, 710, 711, 713, 714, 716, 717, 719, 720, 722, 723,
                  725, 726, 728, 729, 731, 732, 734, 735, 737, 738, 740, 741,
                  743, 744, 746, 747, 749, 750, 752, 753, 755, 756

molecular fragmentation (1/2 indicates fragments):
111222222222222222222222222222222222222222222222222222222222222222222222
222222222222222222222222222222222222222222222222222222222222222222222222
222222222222222222222222222222222222222222222222222222222222222222222222
222222222222222222222222222222222222222222222222222222222222222222222222
222222222222222222222222222222222222222222222222222222222222222222222222
222222222222222222222222222222222222222222222222222222222222222222222222
222222222222222222222222222222222222222222222222222222222222222222222222
222222222222222222222222222222222222222222222222222222222222222222222222
222222222222222222222222222222222222222222222222222222222222222222222222
222222222222222222222222222222222222222222222222222222222222222222222222
222222222222222222222222222222222222
# atoms in fragment 1/2:     3   753
 fragment masses (1/2) :       18.02     4521.84
CMA distance (Bohr)    :  17.665
constraining FC (au)   :  0.0500

           -------------------------------------------------
          |                 G F N 2 - x T B                 |
           -------------------------------------------------

        Reference                      10.1021/acs.jctc.8b01176
      * Hamiltonian:
        H0-scaling (s, p, d)           1.850000    2.230000    2.230000
        zeta-weighting                 0.500000
      * Dispersion:
        s8                             2.700000
        a1                             0.520000
        a2                             5.000000
        s9                             5.000000
      * Repulsion:
        kExp                           1.500000    1.000000
        rExp                           1.000000
      * Coulomb:
        alpha                          2.000000
        third order                    shell-resolved
        anisotropic                    true
        a3                             3.000000
        a5                             4.000000
        cn-shift                       1.200000
        cn-exp                         4.000000
        max-rad                        5.000000


          ...................................................
          :                      SETUP                      :
          :.................................................:
          :  # basis functions                1512          :
          :  # atomic orbitals                1512          :
          :  # shells                         1008          :
          :  # electrons                      2016          :
          :  max. iterations                   250          :
          :  Hamiltonian                  GFN2-xTB          :
          :  restarted?                      false          :
          :  GBSA solvation                  false          :
          :  PC potential                    false          :
          :  electronic temp.          300.0000000     K    :
          :  accuracy                    1.0000000          :
          :  -> integral cutoff          0.2500000E+02      :
          :  -> integral neglect         0.1000000E-07      :
          :  -> SCF convergence          0.1000000E-05 Eh   :
          :  -> wf. convergence          0.1000000E-03 e    :
          :  Broyden damping             0.4000000          :
          ...................................................

 iter      E             dE          RMSdq      gap      omega  full diag
   1  -1290.9921788 -0.129099E+04  0.407E+00    8.39       0.0  T
   2  -1291.0693159 -0.771371E-01  0.241E+00    7.13       1.0  T
   3  -1291.1011266 -0.318107E-01  0.210E-01    5.49       1.0  T
   4  -1291.1064718 -0.534522E-02  0.454E-02    5.95       1.0  T
   5  -1291.1065549 -0.830655E-04  0.307E-02    5.88       1.0  T
   6  -1291.1065944 -0.395469E-04  0.413E-03    5.92       1.0  T
   7  -1291.1065967 -0.229274E-05  0.735E-04    5.91       4.9  T
   8  -1291.1065967 -0.282498E-07  0.376E-04    5.91       9.7  T
   9  -1291.1065967 -0.133957E-07  0.592E-05    5.91      61.5  T

   *** convergence criteria satisfied after 9 iterations ***

         #    Occupation            Energy/Eh            Energy/eV
      -------------------------------------------------------------
         1        2.0000           -0.6859730             -18.6663
       ...           ...                  ...                  ...
      1002        2.0000           -0.3341627              -9.0930
      1003        2.0000           -0.3329850              -9.0610
      1004        2.0000           -0.3306450              -8.9973
      1005        2.0000           -0.3241567              -8.8208
      1006        2.0000           -0.3190216              -8.6810
      1007        2.0000           -0.3146578              -8.5623
      1008        2.0000           -0.2984279              -8.1206 (HOMO)
      1009                         -0.0811275              -2.2076 (LUMO)
      1010                         -0.0696249              -1.8946
      1011                         -0.0592569              -1.6125
      1012                         -0.0559019              -1.5212
      1013                         -0.0492571              -1.3404
       ...                                ...                  ...
      1512                          0.5203518              14.1595
      -------------------------------------------------------------
                  HL-Gap            0.2173004 Eh            5.9130 eV
             Fermi-level           -0.1897777 Eh           -5.1641 eV

 SCC (total)                   0 d,  0 h,  0 min, 20.952 sec
 SCC setup                      ...        0 min,  0.042 sec (  0.198%)
 Dispersion                     ...        0 min,  0.109 sec (  0.522%)
 classical contributions        ...        0 min,  0.023 sec (  0.111%)
 integral evaluation            ...        0 min,  0.603 sec (  2.880%)
 iterations                     ...        0 min,  7.654 sec ( 36.532%)
 molecular gradient             ...        0 min, 12.450 sec ( 59.422%)
 printout                       ...        0 min,  0.070 sec (  0.335%)

         :::::::::::::::::::::::::::::::::::::::::::::::::::::
         ::                     SUMMARY                     ::
         :::::::::::::::::::::::::::::::::::::::::::::::::::::
         :: total energy           -1283.306861850676 Eh    ::
         :: gradient norm              0.109324654849 Eh/a0 ::
         :: HOMO-LUMO gap              5.913045683365 eV    ::
         ::.................................................::
         :: SCC energy             -1291.106596738132 Eh    ::
         :: -> isotropic ES            7.152391790806 Eh    ::
         :: -> anisotropic ES         -1.613085752146 Eh    ::
         :: -> anisotropic XC         -0.127327076399 Eh    ::
         :: -> dispersion             -0.804609920431 Eh    ::
         :: repulsion energy           7.639453853324 Eh    ::
         :: add. restraining           0.000000000000 Eh    ::
         :: total charge               0.000000000000 e     ::
         :::::::::::::::::::::::::::::::::::::::::::::::::::::

      ----------------------------------------------------------- 
     |                       L-ANC optimizer                     |
      ----------------------------------------------------------- 
          low memory version by Sebastian Ehlert

          ...................................................
          :                      SETUP                      :
          :.................................................:
          :   energy convergence        0.1000000E-05 Eh    :
          :   grad. convergence         0.8000000E-03 Eh/a0 :
          :   optimization log               true           :
          :   writing optlog all                1     steps :
          :   Hessian reset                    20     steps :
          :   maximium step len.        1.0000000     a0    :
          :   LBFGS images                     20           :
          ...................................................
 * calculating model hessian...
Using Lindh-Hessian (1995)
 Shifting diagonal of input Hessian by   1.000003615253164E-002
 Lowest  eigenvalues of input Hessian
    0.010000   -0.000000   -0.000000   -0.000000   -0.000000   -0.000000
   -0.000000   -0.000000   -0.000000   -0.000000   -0.000000   -0.000000
   -0.000000   -0.000000   -0.000000   -0.000000   -0.000000   -0.000000
 Highest eigenvalues
    0.318778    0.324628    1.235232    1.260116    1.423223    1.454838
 

........................................................................
.............................. CYCLE    1 ..............................
........................................................................
   1  -1291.1069599 -0.129111E+04  0.177E-02    5.97       0.0  T
   2  -1291.1069686 -0.866297E-05  0.107E-02    5.96       1.0  T
   3  -1291.1069710 -0.234266E-05  0.164E-03    5.96       2.2  T
   4  -1291.1069712 -0.265161E-06  0.395E-04    5.96       9.2  T
   5  -1291.1069712 -0.379691E-08  0.543E-05    5.96      67.0  T
     SCC iter.                  ...        0 min,  3.759 sec
     gradient                   ...        0 min, 12.526 sec
 * total energy  : -1283.3092944 Eh     change       -0.2432554E-02 Eh
   gradient norm :     0.0096033 Eh/a0  converged?    E=F G=F D=F
   step length   :     0.3783529 a0

........................................................................
.............................. CYCLE    2 ..............................
........................................................................
   1  -1291.1012757 -0.129110E+04  0.411E-02    6.03       0.0  T
   2  -1291.1013175 -0.417451E-04  0.247E-02    6.03       1.0  T
   3  -1291.1013270 -0.951955E-05  0.349E-03    6.04       1.0  T
   4  -1291.1013283 -0.131165E-05  0.717E-04    6.04       5.1  T
   5  -1291.1013283 -0.142813E-07  0.133E-04    6.04      27.4  T
   6  -1291.1013283 -0.628006E-09  0.465E-05    6.04      78.2  T
     SCC iter.                  ...        0 min,  4.033 sec
     gradient                   ...        0 min, 12.492 sec
 * total energy  : -1283.3103070 Eh     change       -0.1012577E-02 Eh
   gradient norm :     0.0328495 Eh/a0  converged?    E=F G=F D=F
   step length   :     0.8504836 a0

........................................................................
.............................. CYCLE    3 ..............................
........................................................................
   1  -1291.1082263 -0.129111E+04  0.232E-02    6.06       0.0  T
   2  -1291.1082395 -0.131877E-04  0.140E-02    6.06       1.0  T
   3  -1291.1082428 -0.339222E-05  0.206E-03    6.07       1.8  T
   4  -1291.1082433 -0.413842E-06  0.442E-04    6.07       8.2  T
   5  -1291.1082433 -0.282830E-08  0.614E-05    6.07      59.2  T
     SCC iter.                  ...        0 min,  3.357 sec
     gradient                   ...        0 min, 12.531 sec
 * total energy  : -1283.3113455 Eh     change       -0.1038493E-02 Eh
   gradient norm :     0.0134931 Eh/a0  converged?    E=F G=F D=F
   step length   :     0.2519996 a0

........................................................................
.............................. CYCLE    4 ..............................
........................................................................
   1  -1291.1085280 -0.129111E+04  0.890E-03    6.08       0.0  T
   2  -1291.1085290 -0.107493E-05  0.548E-03    6.08       1.0  T
   3  -1291.1085295 -0.435076E-06  0.526E-04    6.08       6.9  T
   4  -1291.1085295 -0.266584E-07  0.157E-04    6.08      23.1  T
     SCC iter.                  ...        0 min,  2.640 sec
     gradient                   ...        0 min, 12.469 sec
 * total energy  : -1283.3117172 Eh     change       -0.3717096E-03 Eh
   gradient norm :     0.0035379 Eh/a0  converged?    E=F G=F D=F
   step length   :     0.1249241 a0

........................................................................
.............................. CYCLE    5 ..............................
........................................................................
   1  -1291.1030193 -0.129110E+04  0.208E-02    6.08       0.0  T
   2  -1291.1030233 -0.395625E-05  0.127E-02    6.08       1.0  T
   3  -1291.1030250 -0.172237E-05  0.103E-03    6.06       3.5  T
   4  -1291.1030251 -0.984417E-07  0.347E-04    6.07      10.5  T
   5  -1291.1030251 -0.442560E-08  0.530E-05    6.07      68.6  T
     SCC iter.                  ...        0 min,  3.277 sec
     gradient                   ...        0 min, 12.500 sec
 * total energy  : -1283.3118517 Eh     change       -0.1344756E-03 Eh
   gradient norm :     0.0274258 Eh/a0  converged?    E=F G=F D=F
   step length   :     0.4069720 a0

........................................................................
.............................. CYCLE    6 ..............................
........................................................................
   1  -1291.1073423 -0.129111E+04  0.795E-03    6.08       0.0  T
   2  -1291.1073432 -0.856651E-06  0.478E-03    6.08       1.0  T
   3  -1291.1073435 -0.362103E-06  0.531E-04    6.08       6.8  T
   4  -1291.1073435 -0.200730E-07  0.170E-04    6.08      21.4  T
     SCC iter.                  ...        0 min,  2.559 sec
     gradient                   ...        0 min, 12.516 sec
 * total energy  : -1283.3121770 Eh     change       -0.3253189E-03 Eh
   gradient norm :     0.0082455 Eh/a0  converged?    E=F G=F D=F
   step length   :     0.1134244 a0

........................................................................
.............................. CYCLE    7 ..............................
........................................................................
   1  -1291.1076590 -0.129111E+04  0.714E-03    6.09       0.0  T
   2  -1291.1076593 -0.293860E-06  0.433E-03    6.08       1.0  T
   3  -1291.1076595 -0.125553E-06  0.279E-04    6.08      13.0  T
   4  -1291.1076595 -0.874297E-08  0.997E-05    6.08      36.5  T
     SCC iter.                  ...        0 min,  2.511 sec
     gradient                   ...        0 min, 12.548 sec
 * total energy  : -1283.3123924 Eh     change       -0.2154166E-03 Eh
   gradient norm :     0.0065465 Eh/a0  converged?    E=F G=F D=F
   step length   :     0.1305286 a0

........................................................................
.............................. CYCLE    8 ..............................
........................................................................
   1  -1291.0970115 -0.129110E+04  0.377E-02    6.01       0.0  T
   2  -1291.0970230 -0.115156E-04  0.230E-02    5.98       1.0  T
   3  -1291.0970278 -0.478175E-05  0.167E-03    5.95       2.2  T
   4  -1291.0970281 -0.318538E-06  0.629E-04    5.95       5.8  T
   5  -1291.0970281 -0.150014E-07  0.871E-05    5.95      41.8  T
     SCC iter.                  ...        0 min,  3.084 sec
     gradient                   ...        0 min, 12.733 sec
 * total energy  : -1283.3117650 Eh     change        0.6274304E-03 Eh
   gradient norm :     0.0426687 Eh/a0  converged?    E=F G=F D=F
   step length   :     0.6756129 a0

........................................................................
.............................. CYCLE    9 ..............................
........................................................................
   1  -1291.1104281 -0.129111E+04  0.267E-02    6.02       0.0  T
   2  -1291.1104333 -0.518217E-05  0.162E-02    6.04       1.0  T
   3  -1291.1104360 -0.274227E-05  0.122E-03    6.07       3.0  T
   4  -1291.1104361 -0.859829E-07  0.398E-04    6.07       9.1  T
   5  -1291.1104361 -0.679688E-08  0.567E-05    6.07      64.1  T
     SCC iter.                  ...        0 min,  3.101 sec
     gradient                   ...        0 min, 12.709 sec
 * total energy  : -1283.3127951 Eh     change       -0.1030115E-02 Eh
   gradient norm :     0.0082460 Eh/a0  converged?    E=F G=F D=F
   step length   :     0.4411881 a0

........................................................................
.............................. CYCLE   10 ..............................
........................................................................
   1  -1291.1096787 -0.129111E+04  0.704E-03    6.06       0.0  T
   2  -1291.1096793 -0.607598E-06  0.431E-03    6.05       1.0  T
   3  -1291.1096795 -0.210230E-06  0.376E-04    6.03       9.7  T
   4  -1291.1096796 -0.196403E-07  0.127E-04    6.04      28.6  T
     SCC iter.                  ...        0 min,  2.488 sec
     gradient                   ...        0 min, 12.715 sec
 * total energy  : -1283.3130194 Eh     change       -0.2243244E-03 Eh
   gradient norm :     0.0023965 Eh/a0  converged?    E=F G=F D=F
   step length   :     0.1250958 a0

........................................................................
.............................. CYCLE   11 ..............................
........................................................................
   1  -1291.0876332 -0.129109E+04  0.489E-02    5.91       0.0  T
   2  -1291.0876677 -0.344494E-04  0.296E-02    5.86       1.0  T
   3  -1291.0876764 -0.874231E-05  0.294E-03    5.79       1.2  T
   4  -1291.0876776 -0.118268E-05  0.908E-04    5.80       4.0  T
   5  -1291.0876776 -0.281900E-07  0.144E-04    5.80      25.3  T
   6  -1291.0876776 -0.128216E-08  0.522E-05    5.80      69.7  T
     SCC iter.                  ...        0 min,  3.623 sec
     gradient                   ...        0 min, 12.667 sec
 * total energy  : -1283.3092669 Eh     change        0.3752514E-02 Eh
   gradient norm :     0.0681971 Eh/a0  converged?    E=F G=F D=F
   step length   :     0.8608839 a0

........................................................................
.............................. CYCLE   12 ..............................
........................................................................
   1  -1291.1100386 -0.129111E+04  0.449E-02    5.90       0.0  T
   2  -1291.1100622 -0.235949E-04  0.272E-02    5.96       1.0  T
   3  -1291.1100690 -0.681667E-05  0.248E-03    6.02       1.5  T
   4  -1291.1100698 -0.799091E-06  0.767E-04    6.02       4.7  T
   5  -1291.1100699 -0.174880E-07  0.109E-04    6.01      33.2  T
     SCC iter.                  ...        0 min,  3.041 sec
     gradient                   ...        0 min, 12.692 sec
 * total energy  : -1283.3131831 Eh     change       -0.3916231E-02 Eh
   gradient norm :     0.0035358 Eh/a0  converged?    E=F G=F D=F
   step length   :     0.7678906 a0

........................................................................
.............................. CYCLE   13 ..............................
........................................................................
   1  -1291.1100243 -0.129111E+04  0.439E-03    6.01       0.0  T
   2  -1291.1100247 -0.355039E-06  0.264E-03    6.01       1.4  T
   3  -1291.1100247 -0.647460E-07  0.306E-04    6.00      11.9  T
   4  -1291.1100248 -0.133214E-07  0.607E-05    6.00      59.9  T
     SCC iter.                  ...        0 min,  2.426 sec
     gradient                   ...        0 min, 12.683 sec
 * total energy  : -1283.3133059 Eh     change       -0.1227615E-03 Eh
   gradient norm :     0.0021506 Eh/a0  converged?    E=F G=F D=F
   step length   :     0.0801133 a0

........................................................................
.............................. CYCLE   14 ..............................
........................................................................
   1  -1291.0888555 -0.129109E+04  0.528E-02    5.90       0.0  T
   2  -1291.0889019 -0.463976E-04  0.317E-02    5.84       1.0  T
   3  -1291.0889114 -0.956067E-05  0.354E-03    5.77       1.0  T
   4  -1291.0889131 -0.161463E-05  0.949E-04    5.78       3.8  T
   5  -1291.0889131 -0.291438E-07  0.161E-04    5.78      22.6  T
   6  -1291.0889131 -0.150158E-08  0.548E-05    5.78      66.4  T
     SCC iter.                  ...        0 min,  3.601 sec
     gradient                   ...        0 min, 12.692 sec
 * total energy  : -1283.3092641 Eh     change        0.4041744E-02 Eh
   gradient norm :     0.0673965 Eh/a0  converged?    E=F G=F D=F
   step length   :     1.0357028 a0

........................................................................
.............................. CYCLE   15 ..............................
........................................................................
   1  -1291.1103625 -0.129111E+04  0.490E-02    5.87       0.0  T
   2  -1291.1103927 -0.301069E-04  0.296E-02    5.93       1.0  T
   3  -1291.1104004 -0.769886E-05  0.285E-03    6.00       1.3  T
   4  -1291.1104014 -0.109512E-05  0.830E-04    5.99       4.4  T
   5  -1291.1104015 -0.205957E-07  0.123E-04    5.99      29.5  T
   6  -1291.1104015 -0.751243E-09  0.444E-05    5.99      81.8  T
     SCC iter.                  ...        0 min,  3.567 sec
     gradient                   ...        0 min, 12.694 sec
 * total energy  : -1283.3134468 Eh     change       -0.4182692E-02 Eh
   gradient norm :     0.0020736 Eh/a0  converged?    E=F G=F D=F
   step length   :     0.8912183 a0

........................................................................
.............................. CYCLE   16 ..............................
........................................................................
   1  -1291.1103895 -0.129111E+04  0.419E-03    5.99       0.0  T
   2  -1291.1103897 -0.247493E-06  0.254E-03    5.99       1.4  T
   3  -1291.1103898 -0.515165E-07  0.247E-04    5.98      14.7  T
   4  -1291.1103898 -0.958607E-08  0.589E-05    5.98      61.7  T
     SCC iter.                  ...        0 min,  2.384 sec
     gradient                   ...        0 min, 12.693 sec
 * total energy  : -1283.3135499 Eh     change       -0.1031001E-03 Eh
   gradient norm :     0.0020451 Eh/a0  converged?    E=F G=F D=F
   step length   :     0.0876092 a0

........................................................................
.............................. CYCLE   17 ..............................
........................................................................
   1  -1291.0956061 -0.129110E+04  0.448E-02    5.93       0.0  T
   2  -1291.0956377 -0.316502E-04  0.270E-02    5.88       1.0  T
   3  -1291.0956436 -0.593847E-05  0.289E-03    5.82       1.3  T
   4  -1291.0956448 -0.115110E-05  0.701E-04    5.83       5.2  T
   5  -1291.0956448 -0.159071E-07  0.126E-04    5.83      28.8  T
   6  -1291.0956448 -0.845830E-09  0.425E-05    5.83      85.7  T
     SCC iter.                  ...        0 min,  3.561 sec
     gradient                   ...        0 min, 12.731 sec
 * total energy  : -1283.3115320 Eh     change        0.2017897E-02 Eh
   gradient norm :     0.0505581 Eh/a0  converged?    E=F G=F D=F
   step length   :     0.9365679 a0

........................................................................
.............................. CYCLE   18 ..............................
........................................................................
   1  -1291.1106292 -0.129111E+04  0.402E-02    5.87       0.0  T
   2  -1291.1106491 -0.198825E-04  0.243E-02    5.92       1.0  T
   3  -1291.1106535 -0.441629E-05  0.228E-03    5.98       1.6  T
   4  -1291.1106542 -0.760311E-06  0.607E-04    5.97       6.0  T
   5  -1291.1106543 -0.111272E-07  0.972E-05    5.97      37.4  T
     SCC iter.                  ...        0 min,  2.974 sec
     gradient                   ...        0 min, 12.752 sec
 * total energy  : -1283.3136739 Eh     change       -0.2141872E-02 Eh
   gradient norm :     0.0018200 Eh/a0  converged?    E=F G=F D=F
   step length   :     0.8134086 a0

........................................................................
.............................. CYCLE   19 ..............................
........................................................................
   1  -1291.1104112 -0.129111E+04  0.634E-03    5.97       0.0  T
   2  -1291.1104117 -0.557501E-06  0.383E-03    5.97       1.0  T
   3  -1291.1104118 -0.959526E-07  0.365E-04    5.96      10.0  T
   4  -1291.1104118 -0.224090E-07  0.728E-05    5.96      50.0  T
     SCC iter.                  ...        0 min,  2.380 sec
     gradient                   ...        0 min, 12.687 sec
 * total energy  : -1283.3137913 Eh     change       -0.1174425E-03 Eh
   gradient norm :     0.0019481 Eh/a0  converged?    E=F G=F D=F
   step length   :     0.1398119 a0

........................................................................
.............................. CYCLE   20 ..............................
........................................................................
   1  -1291.1056068 -0.129111E+04  0.237E-02    5.94       0.0  T
   2  -1291.1056148 -0.805882E-05  0.143E-02    5.92       1.0  T
   3  -1291.1056163 -0.151908E-05  0.142E-03    5.89       2.6  T
   4  -1291.1056167 -0.313310E-06  0.325E-04    5.89      11.2  T
   5  -1291.1056167 -0.376190E-08  0.606E-05    5.89      60.0  T
     SCC iter.                  ...        0 min,  2.889 sec
     gradient                   ...        0 min, 12.506 sec
 * total energy  : -1283.3136789 Eh     change        0.1124833E-03 Eh
   gradient norm :     0.0200962 Eh/a0  converged?    E=F G=F D=F
   step length   :     0.5064746 a0
 * RMSD in coord.:     0.0918444 a0     energy gain  -0.6817014E-02 Eh
 * calculating model hessian...
Using Lindh-Hessian (1995)
 Shifting diagonal of input Hessian by   1.000004667073483E-002
 Lowest  eigenvalues of input Hessian
    0.010000    0.010000   -0.000000   -0.000000   -0.000000   -0.000000
   -0.000000   -0.000000   -0.000000   -0.000000   -0.000000   -0.000000
   -0.000000   -0.000000   -0.000000   -0.000000   -0.000000   -0.000000
 Highest eigenvalues
    0.280178    0.306136    1.203441    1.215533    1.341340    1.404795
 

........................................................................
.............................. CYCLE   21 ..............................
........................................................................
   1  -1291.1096550 -0.129111E+04  0.552E-03    5.90       0.0  T
   2  -1291.1096553 -0.363450E-06  0.328E-03    5.90       1.1  T
   3  -1291.1096555 -0.172160E-06  0.353E-04    5.90      10.3  T
   4  -1291.1096555 -0.715681E-08  0.117E-04    5.90      31.2  T
     SCC iter.                  ...        0 min,  2.325 sec
     gradient                   ...        0 min, 12.634 sec
 * total energy  : -1283.3140254 Eh     change       -0.3465450E-03 Eh
   gradient norm :     0.0054112 Eh/a0  converged?    E=F G=F D=F
   step length   :     0.0599854 a0

........................................................................
.............................. CYCLE   22 ..............................
........................................................................
   1  -1291.1113368 -0.129111E+04  0.375E-03    5.91       0.0  T
   2  -1291.1113369 -0.146649E-06  0.229E-03    5.91       1.6  T
   3  -1291.1113370 -0.679543E-07  0.205E-04    5.91      17.7  T
   4  -1291.1113370 -0.250725E-08  0.626E-05    5.91      58.1  T
     SCC iter.                  ...        0 min,  2.374 sec
     gradient                   ...        0 min, 12.941 sec
 * total energy  : -1283.3140751 Eh     change       -0.4969287E-04 Eh
   gradient norm :     0.0015452 Eh/a0  converged?    E=F G=F D=F
   step length   :     0.0475422 a0

........................................................................
.............................. CYCLE   23 ..............................
........................................................................
   1  -1291.1115577 -0.129111E+04  0.292E-03    5.91       0.0  T
   2  -1291.1115578 -0.118936E-06  0.176E-03    5.90       2.1  T
   3  -1291.1115578 -0.265047E-07  0.179E-04    5.90      20.3  T
   4  -1291.1115578 -0.443220E-08  0.426E-05    5.90      85.4  T
     SCC iter.                  ...        0 min,  2.551 sec
     gradient                   ...        0 min, 12.644 sec
 * total energy  : -1283.3140993 Eh     change       -0.2418941E-04 Eh
   gradient norm :     0.0017499 Eh/a0  converged?    E=F G=F D=F
   step length   :     0.0535865 a0

........................................................................
.............................. CYCLE   24 ..............................
........................................................................
   1  -1291.1110090 -0.129111E+04  0.763E-03    5.90       0.0  T
   2  -1291.1110098 -0.816229E-06  0.461E-03    5.89       1.0  T
   3  -1291.1110100 -0.160484E-06  0.469E-04    5.89       7.8  T
   4  -1291.1110100 -0.319060E-07  0.107E-04    5.89      34.1  T
     SCC iter.                  ...        0 min,  2.368 sec
     gradient                   ...        0 min, 12.613 sec
 * total energy  : -1283.3141410 Eh     change       -0.4173215E-04 Eh
   gradient norm :     0.0028302 Eh/a0  converged?    E=F G=F D=F
   step length   :     0.1373024 a0

........................................................................
.............................. CYCLE   25 ..............................
........................................................................
   1  -1291.1108764 -0.129111E+04  0.494E-03    5.89       0.0  T
   2  -1291.1108768 -0.377623E-06  0.298E-03    5.88       1.2  T
   3  -1291.1108768 -0.618154E-07  0.312E-04    5.88      11.7  T
   4  -1291.1108769 -0.150287E-07  0.605E-05    5.88      60.1  T
     SCC iter.                  ...        0 min,  2.380 sec
     gradient                   ...        0 min, 12.563 sec
 * total energy  : -1283.3141689 Eh     change       -0.2786532E-04 Eh
   gradient norm :     0.0044141 Eh/a0  converged?    E=F G=F D=F
   step length   :     0.1001460 a0

........................................................................
.............................. CYCLE   26 ..............................
........................................................................
   1  -1291.1093883 -0.129111E+04  0.156E-02    5.88       0.0  T
   2  -1291.1093915 -0.316101E-05  0.933E-03    5.87       1.0  T
   3  -1291.1093920 -0.518797E-06  0.900E-04    5.85       4.0  T
   4  -1291.1093921 -0.124595E-06  0.182E-04    5.86      20.0  T
     SCC iter.                  ...        0 min,  2.352 sec
     gradient                   ...        0 min, 12.933 sec
 * total energy  : -1283.3141784 Eh     change       -0.9548977E-05 Eh
   gradient norm :     0.0134332 Eh/a0  converged?    E=F G=F D=F
   step length   :     0.3242620 a0

........................................................................
.............................. CYCLE   27 ..............................
........................................................................
   1  -1291.1112373 -0.129111E+04  0.736E-03    5.86       0.0  T
   2  -1291.1112377 -0.444497E-06  0.441E-03    5.86       1.0  T
   3  -1291.1112378 -0.101954E-06  0.354E-04    5.86      10.3  T
   4  -1291.1112379 -0.164116E-07  0.965E-05    5.86      37.7  T
     SCC iter.                  ...        0 min,  2.512 sec
     gradient                   ...        0 min, 12.691 sec
 * total energy  : -1283.3142554 Eh     change       -0.7700497E-04 Eh
   gradient norm :     0.0037280 Eh/a0  converged?    E=F G=F D=F
   step length   :     0.1303699 a0

........................................................................
.............................. CYCLE   28 ..............................
........................................................................
   1  -1291.1115114 -0.129111E+04  0.485E-03    5.87       0.0  T
   2  -1291.1115117 -0.288797E-06  0.293E-03    5.86       1.2  T
   3  -1291.1115117 -0.572779E-07  0.268E-04    5.85      13.6  T
   4  -1291.1115117 -0.115915E-07  0.610E-05    5.86      59.6  T
     SCC iter.                  ...        0 min,  2.510 sec
     gradient                   ...        0 min, 12.638 sec
 * total energy  : -1283.3143066 Eh     change       -0.5117835E-04 Eh
   gradient norm :     0.0029048 Eh/a0  converged?    E=F G=F D=F
   step length   :     0.1079520 a0

........................................................................
.............................. CYCLE   29 ..............................
........................................................................
   1  -1291.1000423 -0.129110E+04  0.431E-02    5.86       0.0  T
   2  -1291.1000584 -0.161474E-04  0.257E-02    5.83       1.0  T
   3  -1291.1000616 -0.316333E-05  0.203E-03    5.80       1.8  T
   4  -1291.1000622 -0.587914E-06  0.488E-04    5.81       7.5  T
   5  -1291.1000622 -0.743853E-08  0.100E-04    5.81      36.4  T
     SCC iter.                  ...        0 min,  3.110 sec
     gradient                   ...        0 min, 12.656 sec
 * total energy  : -1283.3126174 Eh     change        0.1689189E-02 Eh
   gradient norm :     0.0443642 Eh/a0  converged?    E=F G=F D=F
   step length   :     0.9388661 a0

........................................................................
.............................. CYCLE   30 ..............................
........................................................................
   1  -1291.1122224 -0.129111E+04  0.397E-02    5.78       0.0  T
   2  -1291.1122335 -0.111798E-04  0.237E-02    5.82       1.0  T
   3  -1291.1122360 -0.241299E-05  0.170E-03    5.86       2.1  T
   4  -1291.1122364 -0.399301E-06  0.406E-04    5.85       9.0  T
   5  -1291.1122364 -0.447176E-08  0.801E-05    5.85      45.4  T
     SCC iter.                  ...        0 min,  3.105 sec
     gradient                   ...        0 min, 12.242 sec
 * total energy  : -1283.3143523 Eh     change       -0.1734892E-02 Eh
   gradient norm :     0.0018318 Eh/a0  converged?    E=F G=F D=F
   step length   :     0.8472454 a0

........................................................................
.............................. CYCLE   31 ..............................
........................................................................
   1  -1291.1122380 -0.129111E+04  0.428E-03    5.85       0.0  T
   2  -1291.1122381 -0.158643E-06  0.258E-03    5.85       1.4  T
   3  -1291.1122382 -0.334639E-07  0.201E-04    5.85      18.1  T
   4  -1291.1122382 -0.643399E-08  0.486E-05    5.85      74.9  T
     SCC iter.                  ...        0 min,  2.384 sec
     gradient                   ...        0 min, 12.220 sec
 * total energy  : -1283.3143931 Eh     change       -0.4073073E-04 Eh
   gradient norm :     0.0018090 Eh/a0  converged?    E=F G=F D=F
   step length   :     0.0891896 a0

........................................................................
.............................. CYCLE   32 ..............................
........................................................................
   1  -1291.0966812 -0.129110E+04  0.484E-02    5.85       0.0  T
   2  -1291.0966969 -0.156515E-04  0.290E-02    5.83       1.0  T
   3  -1291.0967015 -0.467210E-05  0.207E-03    5.80       1.8  T
   4  -1291.0967021 -0.504165E-06  0.650E-04    5.80       5.6  T
   5  -1291.0967021 -0.141183E-07  0.111E-04    5.80      32.9  T
     SCC iter.                  ...        0 min,  2.891 sec
     gradient                   ...        0 min, 12.254 sec
 * total energy  : -1283.3120413 Eh     change        0.2351805E-02 Eh
   gradient norm :     0.0519522 Eh/a0  converged?    E=F G=F D=F
   step length   :   168.7821355 a0

........................................................................
.............................. CYCLE   33 ..............................
........................................................................
   1  -1291.1100638 -0.129111E+04  0.317E-02    5.78       0.0  T
   2  -1291.1100700 -0.617984E-05  0.190E-02    5.81       1.0  T
   3  -1291.1100721 -0.209160E-05  0.133E-03    5.83       2.7  T
   4  -1291.1100722 -0.172480E-06  0.415E-04    5.83       8.8  T
   5  -1291.1100722 -0.508771E-08  0.640E-05    5.83      56.9  T
     SCC iter.                  ...        0 min,  2.903 sec
     gradient                   ...        0 min, 12.247 sec
 * total energy  : -1283.3144900 Eh     change       -0.2448758E-02 Eh
   gradient norm :     0.0090120 Eh/a0  converged?    E=F G=F D=F
   step length   :     0.6311190 a0

........................................................................
.............................. CYCLE   34 ..............................
........................................................................
   1  -1291.1108512 -0.129111E+04  0.152E-03    5.83       0.0  T
   2  -1291.1108512 -0.187406E-07  0.914E-04    5.83       4.0  T
   3  -1291.1108512 -0.893169E-08  0.783E-05    5.83      46.5  T
     SCC iter.                  ...        0 min,  1.793 sec
     gradient                   ...        0 min, 12.274 sec
 * total energy  : -1283.3145250 Eh     change       -0.3502914E-04 Eh
   gradient norm :     0.0059283 Eh/a0  converged?    E=F G=F D=F
   step length   :     0.0206014 a0

........................................................................
.............................. CYCLE   35 ..............................
........................................................................
   1  -1291.1122527 -0.129111E+04  0.220E-03    5.84       0.0  T
   2  -1291.1122527 -0.414420E-07  0.132E-03    5.84       2.8  T
   3  -1291.1122528 -0.230282E-07  0.118E-04    5.84      30.8  T
   4  -1291.1122528 -0.624823E-09  0.347E-05    5.84     104.9  T
     SCC iter.                  ...        0 min,  2.378 sec
     gradient                   ...        0 min, 12.232 sec
 * total energy  : -1283.3145532 Eh     change       -0.2814455E-04 Eh
   gradient norm :     0.0038205 Eh/a0  converged?    E=F G=F D=F
   step length   :     0.0316036 a0

........................................................................
.............................. CYCLE   36 ..............................
........................................................................
   1  -1291.1124203 -0.129111E+04  0.256E-03    5.84       0.0  T
   2  -1291.1124203 -0.468219E-07  0.155E-03    5.84       2.3  T
   3  -1291.1124204 -0.137845E-07  0.107E-04    5.84      34.0  T
   4  -1291.1124204 -0.144314E-08  0.279E-05    5.84     130.3  T
     SCC iter.                  ...        0 min,  2.325 sec
     gradient                   ...        0 min, 12.216 sec
 * total energy  : -1283.3145685 Eh     change       -0.1532104E-04 Eh
   gradient norm :     0.0023176 Eh/a0  converged?    E=F G=F D=F
   step length   :     0.0449574 a0

........................................................................
.............................. CYCLE   37 ..............................
........................................................................
   1  -1291.1123821 -0.129111E+04  0.619E-03    5.84       0.0  T
   2  -1291.1123823 -0.219854E-06  0.372E-03    5.84       1.0  T
   3  -1291.1123824 -0.654709E-07  0.239E-04    5.84      15.2  T
   4  -1291.1123824 -0.753016E-08  0.684E-05    5.84      53.1  T
     SCC iter.                  ...        0 min,  2.313 sec
     gradient                   ...        0 min, 12.244 sec
 * total energy  : -1283.3146084 Eh     change       -0.3993595E-04 Eh
   gradient norm :     0.0023521 Eh/a0  converged?    E=F G=F D=F
   step length   :     0.1192155 a0

........................................................................
.............................. CYCLE   38 ..............................
........................................................................
   1  -1291.1065675 -0.129111E+04  0.276E-02    5.85       0.0  T
   2  -1291.1065712 -0.368292E-05  0.166E-02    5.85       1.0  T
   3  -1291.1065726 -0.136833E-05  0.995E-04    5.84       3.7  T
   4  -1291.1065727 -0.105865E-06  0.331E-04    5.84      11.0  T
   5  -1291.1065727 -0.426962E-08  0.586E-05    5.84      62.0  T
     SCC iter.                  ...        0 min,  2.883 sec
     gradient                   ...        0 min, 12.199 sec
 * total energy  : -1283.3143039 Eh     change        0.3045253E-03 Eh
   gradient norm :     0.0227333 Eh/a0  converged?    E=F G=F D=F
   step length   :     0.5310849 a0

........................................................................
.............................. CYCLE   39 ..............................
........................................................................
   1  -1291.1126306 -0.129111E+04  0.241E-02    5.82       0.0  T
   2  -1291.1126336 -0.304727E-05  0.145E-02    5.83       1.0  T
   3  -1291.1126346 -0.100415E-05  0.901E-04    5.84       4.0  T
   4  -1291.1126347 -0.912764E-07  0.279E-04    5.84      13.0  T
   5  -1291.1126347 -0.267755E-08  0.513E-05    5.84      70.9  T
     SCC iter.                  ...        0 min,  2.893 sec
     gradient                   ...        0 min, 12.207 sec
 * total energy  : -1283.3146418 Eh     change       -0.3378662E-03 Eh
   gradient norm :     0.0036031 Eh/a0  converged?    E=F G=F D=F
   step length   :     0.4588699 a0

........................................................................
.............................. CYCLE   40 ..............................
........................................................................
   1  -1291.1124373 -0.129111E+04  0.275E-03    5.84       0.0  T
   2  -1291.1124373 -0.429261E-07  0.165E-03    5.84       2.2  T
   3  -1291.1124373 -0.151717E-07  0.109E-04    5.84      33.4  T
   4  -1291.1124373 -0.131286E-08  0.345E-05    5.84     105.4  T
     SCC iter.                  ...        0 min,  2.323 sec
     gradient                   ...        0 min, 12.213 sec
 * total energy  : -1283.3146631 Eh     change       -0.2132841E-04 Eh
   gradient norm :     0.0028521 Eh/a0  converged?    E=F G=F D=F
   step length   :     0.0515732 a0

........................................................................
.............................. CYCLE   41 ..............................
........................................................................
   1  -1291.1069260 -0.129111E+04  0.262E-02    5.86       0.0  T
   2  -1291.1069295 -0.351184E-05  0.157E-02    5.86       1.0  T
   3  -1291.1069309 -0.135355E-05  0.973E-04    5.86       3.7  T
   4  -1291.1069310 -0.982195E-07  0.324E-04    5.86      11.2  T
   5  -1291.1069310 -0.425962E-08  0.573E-05    5.86      63.4  T
     SCC iter.                  ...        0 min,  2.892 sec
     gradient                   ...        0 min, 12.202 sec
 * total energy  : -1283.3143000 Eh     change        0.3630766E-03 Eh
   gradient norm :     0.0224768 Eh/a0  converged?    E=F G=F D=F
   step length   :     0.4899007 a0

........................................................................
.............................. CYCLE   42 ..............................
........................................................................
   1  -1291.1069506 -0.129111E+04  0.581E-04    5.86       0.0  T
   2  -1291.1069506 -0.267255E-08  0.349E-04    5.86      10.4  T
   3  -1291.1069506 -0.748287E-09  0.254E-05    5.86     143.3  T
     SCC iter.                  ...        0 min,  1.725 sec
     gradient                   ...        0 min, 12.492 sec
 * total energy  : -1283.3143093 Eh     change       -0.9268097E-05 Eh
   gradient norm :     0.0222444 Eh/a0  converged?    E=F G=F D=F
   step length   :     0.0092225 a0
 * RMSD in coord.:     0.0704600 a0     energy gain  -0.6304359E-03 Eh
 * calculating model hessian...
Using Lindh-Hessian (1995)
 Shifting diagonal of input Hessian by   1.000004969015066E-002
 Lowest  eigenvalues of input Hessian
    0.010000    0.010000   -0.000000   -0.000000   -0.000000   -0.000000
   -0.000000   -0.000000   -0.000000   -0.000000   -0.000000   -0.000000
   -0.000000   -0.000000   -0.000000   -0.000000   -0.000000   -0.000000
 Highest eigenvalues
    0.278361    0.307900    1.188736    1.234004    1.340757    1.403304
 

........................................................................
.............................. CYCLE   43 ..............................
........................................................................
   1  -1291.1111183 -0.129111E+04  0.612E-03    5.85       0.0  T
   2  -1291.1111186 -0.360158E-06  0.367E-03    5.85       1.0  T
   3  -1291.1111188 -0.166176E-06  0.323E-04    5.84      11.2  T
   4  -1291.1111188 -0.603768E-08  0.110E-04    5.84      33.0  T
     SCC iter.                  ...        0 min,  2.351 sec
     gradient                   ...        0 min, 12.244 sec
 * total energy  : -1283.3147770 Eh     change       -0.4676910E-03 Eh
   gradient norm :     0.0063453 Eh/a0  converged?    E=F G=F D=F
   step length   :     0.0755085 a0

........................................................................
.............................. CYCLE   44 ..............................
........................................................................
   1  -1291.1127402 -0.129111E+04  0.369E-03    5.84       0.0  T
   2  -1291.1127403 -0.115749E-06  0.222E-03    5.84       1.6  T
   3  -1291.1127404 -0.443627E-07  0.189E-04    5.85      19.3  T
   4  -1291.1127404 -0.281943E-08  0.589E-05    5.85      61.8  T
     SCC iter.                  ...        0 min,  2.316 sec
     gradient                   ...        0 min, 12.265 sec
 * total energy  : -1283.3148357 Eh     change       -0.5871336E-04 Eh
   gradient norm :     0.0014403 Eh/a0  converged?    E=F G=F D=F
   step length   :     0.0541562 a0

........................................................................
.............................. CYCLE   45 ..............................
........................................................................
   1  -1291.1128919 -0.129111E+04  0.332E-03    5.84       0.0  T
   2  -1291.1128920 -0.777866E-07  0.200E-03    5.84       1.8  T
   3  -1291.1128920 -0.166604E-07  0.135E-04    5.84      26.9  T
   4  -1291.1128920 -0.305090E-08  0.308E-05    5.84     118.1  T
     SCC iter.                  ...        0 min,  2.309 sec
     gradient                   ...        0 min, 12.304 sec
 * total energy  : -1283.3148606 Eh     change       -0.2485939E-04 Eh
   gradient norm :     0.0022612 Eh/a0  converged?    E=F G=F D=F
   step length   :     0.0675157 a0

........................................................................
.............................. CYCLE   46 ..............................
........................................................................
   1  -1291.1125315 -0.129111E+04  0.479E-03    5.83       0.0  T
   2  -1291.1125317 -0.148309E-06  0.292E-03    5.83       1.2  T
   3  -1291.1125317 -0.555169E-07  0.184E-04    5.83      19.7  T
   4  -1291.1125317 -0.395084E-08  0.559E-05    5.83      65.1  T
     SCC iter.                  ...        0 min,  2.305 sec
     gradient                   ...        0 min, 12.328 sec
 * total energy  : -1283.3148816 Eh     change       -0.2098674E-04 Eh
   gradient norm :     0.0019487 Eh/a0  converged?    E=F G=F D=F
   step length   :     0.0861480 a0

........................................................................
.............................. CYCLE   47 ..............................
........................................................................
   1  -1291.1124295 -0.129111E+04  0.270E-03    5.83       0.0  T
   2  -1291.1124296 -0.639470E-07  0.163E-03    5.83       2.2  T
   3  -1291.1124296 -0.187936E-07  0.125E-04    5.83      29.2  T
   4  -1291.1124296 -0.222576E-08  0.373E-05    5.83      97.5  T
     SCC iter.                  ...        0 min,  2.300 sec
     gradient                   ...        0 min, 12.342 sec
 * total energy  : -1283.3148860 Eh     change       -0.4431914E-05 Eh
   gradient norm :     0.0010622 Eh/a0  converged?    E=F G=F D=F
   step length   :     0.0558544 a0

........................................................................
.............................. CYCLE   48 ..............................
........................................................................
   1  -1291.1126884 -0.129111E+04  0.990E-04    5.83       0.0  T
   2  -1291.1126884 -0.131984E-07  0.609E-04    5.83       6.0  T
   3  -1291.1126884 -0.645628E-08  0.568E-05    5.83      64.1  T
     SCC iter.                  ...        0 min,  1.730 sec
     gradient                   ...        0 min, 12.375 sec
 * total energy  : -1283.3148879 Eh     change       -0.1868268E-05 Eh
   gradient norm :     0.0005361 Eh/a0  converged?    E=F G=T D=F
   step length   :     0.0123281 a0

........................................................................
.............................. CYCLE   49 ..............................
........................................................................
   1  -1291.1126997 -0.129111E+04  0.359E-04    5.83       0.0  T
   2  -1291.1126997 -0.224600E-08  0.217E-04    5.83      16.8  T
   3  -1291.1126997 -0.575938E-09  0.247E-05    5.83     147.5  T
     SCC iter.                  ...        0 min,  1.732 sec
     gradient                   ...        0 min, 12.422 sec
 * total energy  : -1283.3148882 Eh     change       -0.3686694E-06 Eh
   gradient norm :     0.0002154 Eh/a0  converged?    E=T G=T D=F
   step length   :     0.0077614 a0

   *** GEOMETRY OPTIMIZATION CONVERGED AFTER 49 CYCLES ***

------------------------------------------------------------------------
 total energy gain   :        -0.0080264 Eh       -5.0366 kcal/mol
 total RMSD          :         0.1335028 a0        0.0706 Å
 total power (kW/mol):        -0.4300659 (step)   -0.0259 (real)
------------------------------------------------------------------------

 L-ANCopt (total)              0 d,  0 h, 13 min, 35.148 sec
 setup                          ...        0 min,  0.030 sec (  0.004%)
 model hessian                  ...        0 min, 22.803 sec (  2.797%)
 ANC generation                 ...        0 min,  7.148 sec (  0.877%)
 coordinate transformation      ...        0 min,  0.004 sec (  0.000%)
 Rational function              ...        0 min,  0.000 sec (  0.000%)
 singlepoint calculation        ...       13 min,  4.823 sec ( 96.280%)
 optimization log               ...        0 min,  0.331 sec (  0.041%)
 hessian update                 ...        0 min,  0.001 sec (  0.000%)

================
 final structure:
================
$coord
       10.67126630346900      -14.07347128616200       -0.61788196397600      o
        9.25657260196700      -14.83285823128500       -1.50983826969400      h
        9.90766453116300      -13.25985427416100        0.84191924592500      h
       -2.32276543459200        6.99276063374300       12.87885491470300      o
       -2.80970410519900        6.45239205743600       11.13620437015800      h
       -1.70616271096000        8.68638089493900       12.72388095626000      h
       -0.13454039710600       -3.55460339905800       -4.60399811397800      o
        1.08245320329900       -2.80875583145800       -3.43937577457500      h
       -1.06161167016100       -4.79362865139000       -3.60318048039300      h
      -10.96892967547400        4.29141872158300        0.64150158266400      o
       -9.16087535242900        4.33950820014500        1.01831012353000      h
      -11.25629193646800        5.58795625685000       -0.63335297703500      h
       -5.98412313352200        4.07019607909800        1.87446901100800      o
       -5.33453115067700        5.49987378180200        2.83775630872700      h
       -5.10427510528300        4.19086190381700        0.27678165422300      h
       -6.95570797883500       -9.93702285317400       -0.30553043360200      o
       -8.48015290774200       -9.72340109002400       -1.30447617420300      h
       -6.86377404822700       -8.41391299316200        0.74973526696900      h
       -1.44655060933600       -8.67825049889700       -7.21136436720700      o
       -1.64322968526700      -10.25839712878100       -8.11843907956300      h
        0.22094357796100       -8.73986816780400       -6.38857095900200      h
       -1.30692174206400       -9.93833769236400        1.26775858395700      o
       -1.89901686421700      -10.55821180675800        2.90714432079000      h
       -1.59864483349100      -11.23435618303000        0.01854551875500      h
       -3.00671624948500       -6.08787532045500       -1.38676042485300      o
       -2.70238867974000       -7.59350984469700       -0.36572182901400      h
       -4.79876490478800       -6.01869478556200       -1.86539397724700      h
        2.21028658449900        4.65200356077300       -9.26385948254800      o
        2.43308411022800        5.56554103042900      -10.83404272700600      h
        1.57300227111000        3.00103438288300       -9.77465888235600      h
       -7.02046921857500       -1.86342872443200       -6.68695255990400      o
       -8.31720584629800       -0.96070366629100       -7.66989675746800      h
       -5.64806385652300       -0.65734823828200       -6.43507776959300      h
       -2.27362508547700        5.77866755404400       -7.16874243103300      o
       -0.66081895620400        5.48433689667600       -8.00449218604000      h
       -3.56940265800500        5.04107341517300       -8.21607578299900      h
       -7.48752053801400       -5.47994388118600       -3.27995777048300      o
       -7.48933129042600       -6.96612237570500       -4.38892810416700      h
       -7.45503267166100       -4.02252652580000       -4.40914483324500      h
       -8.11916751090200        3.65776336704300       -5.20596684370000      o
       -7.18322942372800        3.95502670674100       -6.74553910536500      h
       -7.88795755773800        5.13911332244300       -4.13670997389400      h
       -2.99872961812500        5.01342441888000       -2.23432644233400      o
       -2.65660042685900        5.18391339907500       -4.04244173549700      h
       -1.42828617427700        5.32248562003600       -1.30981168616400      h
       -2.52354752999000        0.43917020149400       -6.47891261200500      o
       -1.96985450489700        0.60304936912800       -8.22389283677800      h
       -1.77201853326000       -1.13841507815400       -5.85458267518900      h
       -2.78664281133300       -1.23562144639400        6.12517320415500      o
       -1.83660211589600        0.30839757059900        6.32952980519200      h
       -4.56312573030800       -0.73713403009800        6.07357775351100      h
       -5.11335272513400       -3.94760171289300       14.37673886402500      o
       -6.72904012560900       -3.09295006856500       14.12174729636000      h
       -5.53559669797600       -5.67561288669100       14.72662735091800      h
       -2.66524975789800      -11.89756335410200        5.67355660899000      o
       -4.49898471393100      -11.86426123450600        5.78732203685400      h
       -2.06441480969900      -10.69375878415500        6.92059835469900      h
       -4.99654840043600        0.95410658802700       10.59396832339300      o
       -5.53444350802200        1.57300033092900       12.24024234752600      h
       -5.82250617137300       -0.65771849058700       10.25416059374900      h
       -7.23178385310800       -5.75465653569500        2.38887044409300      o
       -6.21898528311700       -6.18040311558400        3.91396503545900      h
       -6.90661823620300       -4.02090063847400        1.90933821494900      h
        7.56216491691300        2.38228360152900        4.50731576390900      o
        7.18676054012600        2.58885283146900        6.27251789655500      h
        7.57525912848200        4.06679305437300        3.72771566053300      h
        2.03481566365900       -6.60465692649000       -0.61483328743200      o
        3.62710057061000       -6.68925705556600        0.33678112396600      h
        0.88683831765600       -7.63526809825500        0.37931377625700      h
       -3.04878286323200       10.10845295997800       -4.04192687550500      o
       -1.79920323617100        9.01447520023800       -4.81757742575700      h
       -3.26343021240200       11.55983911421300       -5.14845090603500      h
       -2.47768075918500        0.08163045668300       16.25516751230000      o
       -3.76842977889900        1.37567455260600       16.17722492686100      h
       -3.35160271834100       -1.45451297359200       15.75381828633400      h
       -7.48271755460500        0.65714280031600        5.69155859796400      o
       -7.38362025439300        2.49599035963900        5.55911554665100      h
       -8.91552944319600        0.11091559338700        4.64204295929100      h
      -15.22399424192900        2.44849425578100       -2.39782412834600      o
      -13.64566198007100        1.52519940180300       -2.68109301559900      h
      -14.91184064938800        3.68173714739700       -1.08078266609600      h
        5.45596939237300        4.11220158817900       -1.35251012940400      o
        6.51857200609900        5.09301079188500       -0.20370793503100      h
        6.39030171307800        2.56602437413900       -1.68659387045500      h
       -3.56605284229300       -4.53587670377200       -9.02298057308800      o
       -2.85053720203300       -5.97432805691600       -8.12177174450000      h
       -5.06605145939200       -3.99027347376900       -8.09311737809700      h
        5.40643555790700       -4.86536827621800       -4.38333827553400      o
        4.12305155459600       -5.26045795335200       -3.14389751385000      h
        5.12700308853000       -3.10321200480200       -4.85847529710600      h
       -7.30202883604600       -9.43037903291600       -6.33639420049900      o
       -6.51277167824600       -9.28935194116200       -7.98461332881200      h
       -8.93223035113000      -10.17289755591500       -6.68928719858400      h
      -10.81492703012200       -0.14139733366500       -3.16742233405900      o
       -9.87661264431500        1.11805599507400       -4.12018354983700      h
       -9.76533678506900       -0.50648985729300       -1.71517141855300      h
        2.94747802806200        4.97104074823600        8.73377178660300      o
        2.74614467371500        5.82689365960300       10.33696050506800      h
        4.30872224800400        5.89821508807800        7.87020239380700      h
        9.40539321757700       -7.56576219885200        5.78184070721400      o
        9.76730015288300       -8.09487313457100        7.52348412571600      h
        8.32423351090300       -6.08377723317100        5.90172445562000      h
        3.03395072985600        0.15052394862900        3.64904737932200      o
        4.67588828080000        0.97768696693400        3.66890389129700      h
        1.77198474609400        1.42076821781800        4.06807404309100      h
        6.89222152063000        7.32705927159500        6.94533507354400      o
        6.68144071610300        9.14690361656900        7.08723859071300      h
        8.59248464342600        6.98447248999300        7.54465036252700      h
       -6.76611387571700        8.34869074929600       -7.32159859571400      o
       -5.58101785307300        8.78736841677600       -5.99257718028200      h
       -5.82719795083400        8.61380478651000       -8.87431661651500      h
      -12.20350263539300        8.05082243518900       -2.70821720457100      o
      -13.77016924820200        8.90006444608000       -2.25232387801400      h
      -12.50254802407800        7.15436008814900       -4.28277187855700      h
        2.55267569849800       -2.64445964590400        7.69473289819700      o
        1.64174678613400       -1.47731658197100        8.79712895694000      h
        2.94432565091700       -1.68620319399200        6.14579663551700      h
       -4.59325702601100       -6.97105714557700        6.25060899725700      o
       -2.84775508361800       -6.57966124205700        5.74666984839800      h
       -5.13879329187400       -5.69830132269900        7.45689249194100      h
        0.08214363746500       -5.97143271916100        4.83835781964600      o
        0.81114868749300       -4.74019811792400        6.00407588376000      h
        1.22713008680700       -7.39947653608500        4.92508103258300      h
       -0.32953470506300        3.60500071167100        5.14890888659900      o
        0.03197464607600        4.70786694594500        3.71220300868600      h
        0.80267994433500        4.15588767608800        6.50842326350200      h
        1.45053513429500       -3.31503927209600      -14.99391525100700      o
        2.61094186870400       -4.72410907963100      -14.73896534839800      h
        2.46356291916200       -1.80843314771300      -14.70811862758400      h
        5.53581829196500       -6.08387616826200        9.61849762081600      o
        7.04428444034000       -5.34064378182100       10.31598196755500      h
        4.49321046354100       -4.68915176060300        8.94822009358500      h
      -13.10722921483800        4.69494872663300        5.34144332430300      o
      -14.34671679788400        5.93968712657800        5.85061455815400      h
      -12.81552374075900        4.83625189355300        3.53286004409900      h
      -13.84823996310800       10.44639442840000        2.99371821873100      o
      -13.40312820811700       10.62329910642800        4.78166800081300      h
      -13.34847051817800       12.06020062729100        2.19799956596800      h
      -15.07822306139900       -5.01868869138500        3.94246700566800      o
      -15.88316672942400       -6.31718548355600        4.97148008948800      h
      -16.32027809093700       -3.72849710529900        3.48894610286200      h
        2.43156484350800      -13.68908290220200        7.57217449631100      o
        0.88166232029700      -13.10923768889800        8.33179920996600      h
        1.93596851213900      -14.58192817336900        6.05002232749000      h
       10.36080506879700       -9.13227793121700       10.41412344079200      o
       10.20022258760700       -7.72511779550000       11.57825088950300      h
        8.94282684180300      -10.26757536501100       10.75369746746100      h
        1.49746517112200        2.62782823963400       -4.28580836769100      o
        1.66471724748700        4.43971049360700       -4.45919926529000      h
       -0.10829113839900        2.15506442453700       -5.06498524785400      h
        7.60249395429400      -10.03747140400600       -4.52116059824600      o
        8.48257253155600       -9.57653114289200       -2.96819947138300      h
        5.82185135109500       -9.57153635589000       -4.35561871026000      h
      -15.70029828813900       10.06267978049500       -6.96789835583600      o
      -13.93594870573200        9.88752582149900       -7.57567284334900      h
      -16.60867537354100       10.87949874320000       -8.29864190555000      h
       12.59090940151100        3.17371981819500        5.14502812535800      o
       13.81175244548500        1.84125577618400        4.78557464204000      h
       10.95844128090500        2.49628381367000        4.60912592030100      h
        2.44058582506000        5.82489875453100      -14.28327740576000      o
        2.97596384602800        4.09615852861900      -14.63038247524100      h
        0.59875874787200        5.78625456392400      -14.35776069761600      h
      -15.82968790023200       -2.86394300446700       -2.30813508218400      o
      -16.70137611638900       -2.26560993966400       -0.81142716469000      h
      -14.09035784247400       -3.16573703242700       -1.72316624754400      h
       -3.81226208699900        5.49430731528400        8.45075621579100      o
       -4.62411950373700        3.93023111934200        8.95752853949200      h
       -2.64991903507000        5.02562164765000        7.10816521235200      h
        6.16701806612000       -7.02188748756900        1.86157977064200      o
        7.60345659335400       -7.97170804240500        1.19305714100400      h
        5.49267948399700       -7.91504583246800        3.32355997383600      h
       -5.05362766854300      -14.31625651790100        1.49815541544600      o
       -5.76528512298500      -12.69514003398400        0.96721188113800      h
       -6.45655869906400      -15.28386066627300        2.10760923230100      h
        4.63174302501200       -0.38803295818100       -6.78260509777000      o
        3.60902732744000        0.85716163011200       -5.84773852338300      h
        3.45348625128000       -1.36550499902400       -7.83053810059800      h
        4.41901577252200        0.99589607648700      -14.38809734190000      o
        5.29333122893500        1.30953302434000      -12.75804496587800      h
        5.74814898641000        0.82696675042300      -15.60806669300200      h
       -1.88571155438500       -4.30217022345200       10.28550550301400      o
       -3.30836974721900       -4.12759428041200       11.43145707678400      h
       -2.17750251399700       -3.16501178641000        8.86211426810000      h
        0.49909640108100      -10.69152823762700      -12.59533320725100      o
       -0.50962830337800       -9.16743665837000      -12.87420129995800      h
       -0.62970518952400      -11.96610602730700      -11.95200923297400      h
        3.14542850518600       -1.27496497260700       -1.38083538415800      o
        3.06942413341800        0.47906809733300       -1.86257394148000      h
        4.62513286776500       -1.47647499252000       -0.28618849154600      h
       -3.22719926230400      -11.42052339909700       -3.26874305294200      o
       -4.68374623864200      -10.74579262419600       -2.35593059214200      h
       -2.84320392357800      -10.18546253102400       -4.57493648064200      h
        6.22963896313300      -12.07350775787300       11.01611139734200      o
        5.11853782265700      -12.92707837029900        9.84812745562800      h
        5.13610700713000      -11.17463112587300       12.17056189262600      h
       -7.97681842829000       -4.83178561849000      -14.10887143619900      o
       -8.75878506003800       -5.59338829922500      -12.59682271475500      h
       -6.51197998020500       -5.83828251784700      -14.49295445575300      h
      -11.53650584361800       -9.09592484076100       -2.53446835243800      o
      -12.06587014472200       -8.54820658960300       -0.86194438287100      h
      -11.57405160286000       -7.54859179398600       -3.56386921614900      h
       -5.50526859393000       -0.93755285913100      -12.23054143294100      o
       -4.47797253041400       -1.85247859233400      -11.02238682780900      h
       -6.65152686379600       -2.20867915242600      -12.94145994255300      h
      -19.11675450623100       10.33588049701900        3.03854529198800      o
      -17.37675092690100       10.85616971749700        2.75968197820900      h
      -19.73776470156700        9.95432337814400        1.36154217360000      h
        2.92161923681300       -8.51062891459100       13.09560867581500      o
        3.93979417218300       -7.54540272535500       11.86575941093900      h
        2.24148452977700       -7.24479885624700       14.21544728244700      h
       -6.04316423574200        3.64374117077500       14.80383406686800      o
       -4.96261395869500        5.05998692404100       14.38984420173300      h
       -7.76997433657700        4.16508156510700       14.35444415374200      h
        8.70715248213800        0.61556417031200       -2.98301056625100      o
        9.18773053966800        0.75846833252100       -4.73095474888700      h
        9.10713149899900       -1.12578476066800       -2.48911646449100      h
        8.06109709514000        6.62421074575300        2.03043364183900      o
        9.82518222400600        7.11059961646900        2.10662476879700      h
        7.02493240469200        8.02016894376800        2.66014990175500      h
      -10.43736431361400        0.59199404014500       -9.23396202380300      o
      -10.77719025530300       -0.03582904431700      -10.92117713183700      h
      -11.95911871836700        0.27228492773900       -8.24675257058500      h
        8.31711909275900      -12.11412322101700        3.75402459584100      o
        8.74240119766300      -10.42584299578600        4.39693214954100      h
        8.32160528080900      -13.21882288195800        5.18530717079600      h
       -2.73167864734000        5.22366156210100      -14.07347497963200      o
       -3.68684991660500        4.66624366700900      -12.59053143855800      h
       -2.68102457747300        3.77180363683800      -15.17952155275900      h
        8.91633503506900       -3.30784594202000       -8.68837664623000      o
        8.77622419697300       -3.67501905656300      -10.49322296785800      h
        7.39016112842800       -2.45344733199600       -8.19082447628200      h
      -16.63686660553000       -9.21221287211000        6.43027077032800      o
      -16.41412635834000      -10.45219725862700        5.05677854260000      h
      -18.42043156143900       -8.99660116895400        6.67505457453000      h
      -18.23095798749900       -1.52870953865300        2.12497684896700      o
      -19.99064503981100       -1.78423601535700        2.60940434250700      h
      -17.86154560269700        0.16426844097600        2.78539947219200      h
      -15.91742825192500       -7.57046265026600       -0.31563028936700      o
      -15.99871969177200       -6.18858499286200       -1.53723121416800      h
      -15.18862628356300       -6.75762256809800        1.20005085309200      h
      -16.04369901023300       11.32842067476600       -1.90715864075500      o
      -15.31880210952400       12.94876560474300       -1.53446305289100      h
      -16.27184014369800       11.22762568614500       -3.72248499000100      h
       -9.39343543806100       12.28777594430300       -2.51969834437000      o
       -9.31166938938400       13.18237878608000       -4.15643888420300      h
      -10.44100045833400       10.77645189591100       -2.75836210308800      h
       -7.13945937208300        7.60164679204100       -1.89747318998600      o
       -5.38498313589700        6.99719496336600       -1.95452039246700      h
       -7.12626839067100        9.28711328468600       -2.57942743363500      h
        0.65653773841300       10.98016989486700        9.87048547891100      o
        1.86172562195900       10.09307739754400       10.94737031840700      h
        1.52001098478800       12.42964054936900        9.16550859649600      h
        0.90558742943700        8.69899813873300        5.16785557508700      o
        2.39152562999400        9.38242047948200        4.34276856662400      h
        0.87427557809300        9.35601608334400        6.87190747709000      h
        1.38349340502700        9.92886299063600      -10.88839129689700      o
        1.98926539889500        9.40027401857700      -12.51203244750200      h
        2.85241302583600       10.29697803227600       -9.85170294014500      h
        7.28409882408800        6.96052858469400      -12.03186534886200      o
        6.80374621577700        8.23820047293800      -10.76800459830800      h
[...]
   382   8 o      384   1 h                                       0.9808432
   385   8 o      386   1 h                                       0.9825980
   385   8 o      387   1 h                                       0.9645449
   388   8 o      389   1 h                                       0.9768681
   388   8 o      390   1 h                                       0.9687405
   391   8 o      392   1 h                                       0.9867002
   391   8 o      393   1 h                                       0.9592721
   394   8 o      395   1 h                                       0.9812447
   394   8 o      396   1 h                                       0.9576765
   397   8 o      398   1 h                                       0.9682620
   397   8 o      399   1 h                                       0.9701958
   400   8 o      401   1 h                                       0.9836946
   400   8 o      402   1 h                                       0.9650269
   403   8 o      404   1 h                                       0.9841802
   403   8 o      405   1 h                                       0.9707616
   406   8 o      407   1 h                                       0.9737301
   406   8 o      408   1 h                                       0.9826657
   409   8 o      410   1 h                                       0.9697701
   409   8 o      411   1 h                                       0.9857167
   412   8 o      413   1 h                                       0.9747387
   412   8 o      414   1 h                                       0.9764666
   415   8 o      416   1 h                                       0.9983141
   415   8 o      417   1 h                                       0.9567624
   418   8 o      419   1 h                                       0.9861754
   418   8 o      420   1 h                                       0.9583472
   421   8 o      422   1 h                                       0.9682708
   421   8 o      423   1 h                                       0.9740045
   424   8 o      425   1 h                                       0.9569407
   424   8 o      426   1 h                                       0.9841918
   427   8 o      428   1 h                                       0.9766413
   427   8 o      429   1 h                                       0.9790000
   430   8 o      431   1 h                                       0.9640978
   430   8 o      432   1 h                                       0.9739012
   433   8 o      434   1 h                                       0.9625414
   433   8 o      435   1 h                                       0.9825580
   436   8 o      437   1 h                                       0.9708835
   436   8 o      438   1 h                                       0.9806569
   439   8 o      440   1 h                                       0.9755159
   439   8 o      441   1 h                                       0.9658009
   442   8 o      443   1 h                                       0.9820494
   442   8 o      444   1 h                                       0.9735988
   445   8 o      446   1 h                                       0.9839646
   445   8 o      447   1 h                                       0.9843866
   448   8 o      449   1 h                                       0.9715727
   448   8 o      450   1 h                                       0.9687177
   451   8 o      452   1 h                                       0.9694639
   451   8 o      453   1 h                                       0.9757411
   454   8 o      455   1 h                                       0.9747357
   454   8 o      456   1 h                                       0.9724322
   457   8 o      458   1 h                                       0.9720801
   457   8 o      459   1 h                                       0.9813195
   460   8 o      461   1 h                                       0.9911123
   460   8 o      462   1 h                                       0.9669087
   463   8 o      464   1 h                                       0.9563703
   463   8 o      465   1 h                                       0.9787999
   466   8 o      467   1 h                                       0.9662703
   466   8 o      468   1 h                                       0.9689661
   469   8 o      470   1 h                                       0.9965619
   469   8 o      471   1 h                                       0.9654673
   472   8 o      473   1 h                                       0.9862049
   472   8 o      474   1 h                                       0.9632848
   475   8 o      476   1 h                                       0.9779410
   475   8 o      477   1 h                                       0.9789238
   478   8 o      479   1 h                                       0.9709100
   478   8 o      480   1 h                                       0.9830027
   481   8 o      482   1 h                                       0.9700289
   481   8 o      483   1 h                                       0.9642737
   484   8 o      485   1 h                                       0.9597801
   484   8 o      486   1 h                                       0.9773301
   487   8 o      488   1 h                                       0.9750964
   487   8 o      489   1 h                                       0.9717946
   490   8 o      491   1 h                                       0.9787285
   490   8 o      492   1 h                                       0.9664555
   493   8 o      494   1 h                                       0.9944222
   493   8 o      495   1 h                                       0.9653427
   496   8 o      497   1 h                                       0.9572164
   496   8 o      498   1 h                                       0.9759256
   499   8 o      500   1 h                                       0.9752318
   499   8 o      501   1 h                                       0.9649593
   502   8 o      503   1 h                                       0.9708746
   502   8 o      504   1 h                                       0.9693419
   505   8 o      506   1 h                                       0.9639731
   505   8 o      507   1 h                                       0.9606141
   508   8 o      509   1 h                                       0.9713244
   508   8 o      510   1 h                                       0.9771526
   511   8 o      512   1 h                                       0.9565002
   511   8 o      513   1 h                                       0.9760252
   514   8 o      515   1 h                                       0.9707782
   514   8 o      516   1 h                                       0.9705458
   517   8 o      518   1 h                                       0.9894379
   517   8 o      519   1 h                                       0.9615172
   520   8 o      521   1 h                                       0.9711398
   520   8 o      522   1 h                                       0.9753325
   523   8 o      524   1 h                                       0.9747616
   523   8 o      525   1 h                                       0.9647738
   526   8 o      527   1 h                                       0.9711873
   526   8 o      528   1 h                                       0.9766145
   529   8 o      530   1 h                                       0.9855732
   529   8 o      531   1 h                                       0.9578196
   532   8 o      533   1 h                                       0.9700784
   532   8 o      534   1 h                                       0.9773414
   535   8 o      536   1 h                                       0.9792974
   535   8 o      537   1 h                                       0.9628690
   538   8 o      539   1 h                                       0.9647248
   538   8 o      540   1 h                                       0.9790994
   541   8 o      542   1 h                                       0.9698862
   541   8 o      543   1 h                                       0.9654048
   544   8 o      545   1 h                                       0.9940187
   544   8 o      546   1 h                                       0.9551383 (min)
   547   8 o      548   1 h                                       0.9739666
   547   8 o      549   1 h                                       0.9812461
   550   8 o      551   1 h                                       0.9804791
   550   8 o      552   1 h                                       0.9625235
   553   8 o      554   1 h                                       0.9673154
   553   8 o      555   1 h                                       0.9639261
   556   8 o      557   1 h                                       0.9767694
   556   8 o      558   1 h                                       0.9754790
   559   8 o      560   1 h                                       0.9692849
   559   8 o      561   1 h                                       0.9752121
   562   8 o      563   1 h                                       0.9708538
   562   8 o      564   1 h                                       0.9736075
   565   8 o      566   1 h                                       0.9746695
   565   8 o      567   1 h                                       0.9725537
   568   8 o      569   1 h                                       0.9705271
   568   8 o      570   1 h                                       0.9672766
   571   8 o      572   1 h                                       0.9747107
   571   8 o      573   1 h                                       0.9758653
   574   8 o      575   1 h                                       0.9853968
   574   8 o      576   1 h                                       0.9688807
   577   8 o      578   1 h                                       0.9610087
   577   8 o      579   1 h                                       0.9755620
   580   8 o      581   1 h                                       0.9828051
   580   8 o      582   1 h                                       0.9672676
   583   8 o      584   1 h                                       0.9608404
   583   8 o      585   1 h                                       0.9794620
   586   8 o      587   1 h                                       0.9643459
   586   8 o      588   1 h                                       0.9700164
   589   8 o      590   1 h                                       0.9746791
   589   8 o      591   1 h                                       0.9692413
   592   8 o      593   1 h                                       0.9699471
   592   8 o      594   1 h                                       0.9633803
   595   8 o      596   1 h                                       0.9636614
   595   8 o      597   1 h                                       0.9700198
   598   8 o      599   1 h                                       0.9831580
   598   8 o      600   1 h                                       0.9672433
   601   8 o      602   1 h                                       0.9811433
   601   8 o      603   1 h                                       0.9634852
   604   8 o      605   1 h                                       0.9858986
   604   8 o      606   1 h                                       0.9604723
   607   8 o      608   1 h                                       0.9655975
   607   8 o      609   1 h                                       0.9837994
   610   8 o      611   1 h                                       0.9607026
   610   8 o      612   1 h                                       0.9737240
   613   8 o      614   1 h                                       0.9616152
   613   8 o      615   1 h                                       0.9822680
   616   8 o      617   1 h                                       0.9574972
   616   8 o      618   1 h                                       0.9756413
   619   8 o      620   1 h                                       0.9774700
   619   8 o      621   1 h                                       0.9890887
   622   8 o      623   1 h                                       0.9666910
   622   8 o      624   1 h                                       0.9664151
   625   8 o      626   1 h                                       0.9757501
   625   8 o      627   1 h                                       0.9722113
   628   8 o      629   1 h                                       0.9743188
   628   8 o      630   1 h                                       0.9764029
   631   8 o      632   1 h                                       0.9757773
   631   8 o      633   1 h                                       0.9849900
   634   8 o      635   1 h                                       0.9775171
   634   8 o      636   1 h                                       0.9684943
   637   8 o      638   1 h                                       0.9705992
   637   8 o      639   1 h                                       0.9851579
   640   8 o      641   1 h                                       0.9793629
   640   8 o      642   1 h                                       0.9751901
   643   8 o      644   1 h                                       0.9677182
   643   8 o      645   1 h                                       0.9628798
   646   8 o      647   1 h                                       0.9922219
   646   8 o      648   1 h                                       0.9668625
   649   8 o      650   1 h                                       0.9562129
   652   8 o      653   1 h                                       0.9678548
   652   8 o      654   1 h                                       0.9723730
   655   8 o      656   1 h                                       0.9646750
   655   8 o      657   1 h                                       0.9792674
   658   8 o      659   1 h                                       0.9852864
   658   8 o      660   1 h                                       0.9556889
   661   8 o      662   1 h                                       0.9701361
   661   8 o      663   1 h                                       0.9799494
   664   8 o      665   1 h                                       0.9653483
   664   8 o      666   1 h                                       0.9798956
   667   8 o      668   1 h                                       0.9686530
   667   8 o      669   1 h                                       0.9850344
   670   8 o      671   1 h                                       0.9778253
   670   8 o      672   1 h                                       0.9795264
   673   8 o      674   1 h                                       0.9611673
   676   8 o      677   1 h                                       0.9819544
   676   8 o      678   1 h                                       0.9635074
   679   8 o      680   1 h                                       0.9727156
   679   8 o      681   1 h                                       0.9817693
   682   8 o      683   1 h                                       0.9798284
   682   8 o      684   1 h                                       0.9727205
   685   8 o      686   1 h                                       0.9832730
   685   8 o      687   1 h                                       0.9619731
   688   8 o      689   1 h                                       0.9703499
   688   8 o      690   1 h                                       0.9721437
   691   8 o      692   1 h                                       0.9667882
   691   8 o      693   1 h                                       0.9742937
   694   8 o      695   1 h                                       0.9712077
   694   8 o      696   1 h                                       0.9659798
   697   8 o      698   1 h                                       0.9735892
   697   8 o      699   1 h                                       0.9657622
   700   8 o      701   1 h                                       0.9646545
   700   8 o      702   1 h                                       0.9898064
   703   8 o      704   1 h                                       0.9748390
   703   8 o      705   1 h                                       0.9770194
   706   8 o      707   1 h                                       0.9696362
   706   8 o      708   1 h                                       0.9675367
   709   8 o      710   1 h                                       0.9869407
   709   8 o      711   1 h                                       0.9651856
   712   8 o      713   1 h                                       0.9662880
   712   8 o      714   1 h                                       0.9826048
   715   8 o      716   1 h                                       0.9821690
   715   8 o      717   1 h                                       0.9765934
   718   8 o      719   1 h                                       0.9590020
   718   8 o      720   1 h                                       0.9772141
   721   8 o      722   1 h                                       0.9788265
   721   8 o      723   1 h                                       0.9781034
   724   8 o      725   1 h                                       0.9868636
   724   8 o      726   1 h                                       0.9741585
   727   8 o      728   1 h                                       0.9804203
   727   8 o      729   1 h                                       0.9563694
   730   8 o      731   1 h                                       0.9736752
   730   8 o      732   1 h                                       0.9751117
   733   8 o      734   1 h                                       0.9763228
   733   8 o      735   1 h                                       0.9619562
   736   8 o      737   1 h                                       0.9790081
   736   8 o      738   1 h                                       0.9579011
   739   8 o      740   1 h                                       0.9825112
   739   8 o      741   1 h                                       0.9870956
   742   8 o      743   1 h                                       0.9619982
   742   8 o      744   1 h                                       0.9706636
   745   8 o      746   1 h                                       0.9767019
   745   8 o      747   1 h                                       0.9782206
   748   8 o      749   1 h                                       0.9761180
   748   8 o      750   1 h                                       0.9757883
   751   8 o      752   1 h                                       0.9654892
   751   8 o      753   1 h                                       0.9613577
   754   8 o      755   1 h                                       0.9590781
   754   8 o      756   1 h                                       0.9657511

 * 1 distinct bonds (by element types)

   Z      Z             #   av. dist./Å        max./Å        min./Å
   1 H    8 O         502     0.9734921     0.9992821     0.9551383


optimized geometry written to: xtbopt.coord


           -------------------------------------------------
          | TOTAL ENERGY            -1283.314888220037 Eh   |
          | GRADIENT NORM               0.007894061105 Eh/α |
          | HOMO-LUMO GAP               5.828729545840 eV   |
           -------------------------------------------------

------------------------------------------------------------------------
 * finished run on 2022/11/24 at 12:18:56.028     
------------------------------------------------------------------------
 total:
 * wall-time:     0 d,  0 h, 14 min, 12.030 sec
 *  cpu-time:     0 d,  0 h, 21 min,  1.229 sec
 * ratio c/w:     1.480 speedup
 SCF:
 * wall-time:     0 d,  0 h,  0 min, 20.960 sec
 *  cpu-time:     0 d,  0 h,  0 min, 33.717 sec
 * ratio c/w:     1.609 speedup
 ANC optimizer:
 * wall-time:     0 d,  0 h, 13 min, 50.030 sec
 *  cpu-time:     0 d,  0 h, 20 min, 25.798 sec
 * ratio c/w:     1.477 speedup

