      -----------------------------------------------------------      
     |                   =====================                   |     
     |                           x T B                           |     
     |                   =====================                   |     
     |                         S. Grimme                         |     
     |          Mulliken Center for Theoretical Chemistry        |     
     |                    University of Bonn                     |     
      -----------------------------------------------------------      

   * xtb version 6.5.1 (579679a) compiled by 'ehlert@majestix' on 2022-07-11

   xtb is free software: you can redistribute it and/or modify it under
   the terms of the GNU Lesser General Public License as published by
   the Free Software Foundation, either version 3 of the License, or
   (at your option) any later version.
   
   xtb is distributed in the hope that it will be useful,
   but WITHOUT ANY WARRANTY; without even the implied warranty of
   MERCHANTABILITY or FITNESS FOR A PARTICULAR PURPOSE.  See the
   GNU Lesser General Public License for more details.
   
   Cite this work as:
   * C. Bannwarth, E. Caldeweyher, S. Ehlert, A. Hansen, P. Pracht,
     J. Seibert, S. Spicher, S. Grimme, WIREs Comput. Mol. Sci., 2020, 11,
     e01493. DOI: 10.1002/wcms.1493
   
   for GFN2-xTB:
   * C. Bannwarth, S. Ehlert and S. Grimme., J. Chem. Theory Comput., 2019,
     15, 1652-1671. DOI: 10.1021/acs.jctc.8b01176
   for GFN1-xTB:
   * S. Grimme, C. Bannwarth, P. Shushkov, J. Chem. Theory Comput., 2017,
     13, 1989-2009. DOI: 10.1021/acs.jctc.7b00118
   for GFN0-xTB:
   * P. Pracht, E. Caldeweyher, S. Ehlert, S. Grimme, ChemRxiv, 2019, preprint.
     DOI: 10.26434/chemrxiv.8326202.v1
   for GFN-FF:
   * S. Spicher and S. Grimme, Angew. Chem. Int. Ed., 2020, 59, 15665-15673.
     DOI: 10.1002/anie.202004239
   
   for ALPB and GBSA implicit solvation:
   * S. Ehlert, M. Stahn, S. Spicher, S. Grimme, J. Chem. Theory Comput.,
     2021, 17, 4250-4261. DOI: 10.1021/acs.jctc.1c00471
   
   for DFT-D4:
   * E. Caldeweyher, C. Bannwarth and S. Grimme, J. Chem. Phys., 2017,
     147, 034112. DOI: 10.1063/1.4993215
   * E. Caldeweyher, S. Ehlert, A. Hansen, H. Neugebauer, S. Spicher,
     C. Bannwarth and S. Grimme, J. Chem. Phys., 2019, 150, 154122.
     DOI: 10.1063/1.5090222
   * E. Caldeweyher, J.-M. Mewes, S. Ehlert and S. Grimme, Phys. Chem. Chem. Phys.
     2020, 22, 8499-8512. DOI: 10.1039/D0CP00502A
   
   for sTDA-xTB:
   * S. Grimme and C. Bannwarth, J. Chem. Phys., 2016, 145, 054103.
     DOI: 10.1063/1.4959605
   
   in the mass-spec context:
   * V. Asgeirsson, C. Bauer and S. Grimme, Chem. Sci., 2017, 8, 4879.
     DOI: 10.1039/c7sc00601b
   * J. Koopman and S. Grimme, ACS Omega 2019, 4, 12, 15120-15133.
     DOI: 10.1021/acsomega.9b02011
   
   for metadynamics refer to:
   * S. Grimme, J. Chem. Theory Comput., 2019, 155, 2847-2862
     DOI: 10.1021/acs.jctc.9b00143
   
   for SPH calculations refer to:
   * S. Spicher and S. Grimme, J. Chem. Theory Comput., 2021, 17, 1701-1714
     DOI: 10.1021/acs.jctc.0c01306
   
   with help from (in alphabetical order)
   P. Atkinson, C. Bannwarth, F. Bohle, G. Brandenburg, E. Caldeweyher
   M. Checinski, S. Dohm, S. Ehlert, S. Ehrlich, I. Gerasimov, C. Hölzer
   A. Katbashev, J. Koopman, C. Lavigne, S. Lehtola, F. März, M. Müller,
   F. Musil, H. Neugebauer, J. Pisarek, C. Plett, P. Pracht, F. Pultar,
   J. Seibert, P. Shushkov, S. Spicher, M. Stahn, M. Steiner, T. Strunk,
   J. Stückrath, T. Rose, and J. Unsleber
   
 * started run on 2022/11/24 at 12:21:40.834     

           -------------------------------------------------
          |                Calculation Setup                |
           -------------------------------------------------

          program call               : xtb solvent_cluster.coord --gfn2 --sp --lmo --chrg 0
          hostname                   : cn0430
          coordinate file            : solvent_cluster.coord
          omp threads                :                     2

   ID    Z sym.   atoms
    1    8 o      1, 4, 7, 10, 13, 16, 19, 22, 25, 28, 31, 34, 37, 40, 43,
                  46, 49, 52, 55, 58, 61, 64, 67, 70, 73, 76, 79, 82, 85, 88,
                  91, 94, 97, 100, 103, 106, 109, 112, 115, 118, 121, 124,
                  127, 130, 133, 136, 139, 142, 145, 148, 151, 154, 157, 160,
                  163, 166, 169, 172, 175, 178, 181, 184, 187, 190, 193, 196,
                  199, 202, 205, 208, 211, 214, 217, 220, 223, 226, 229, 232,
                  235, 238, 241, 244, 247, 250, 253, 256, 259, 262, 265, 268,
                  271, 274, 277, 280, 283, 286, 289, 292, 295, 298, 301, 304,
                  307, 310, 313, 316, 319, 322, 325, 328, 331, 334, 337, 340,
                  343, 346, 349, 352, 355, 358, 361, 364, 367, 370, 373, 376,
                  379, 382, 385, 388, 391, 394, 397, 400, 403, 406, 409, 412,
                  415, 418, 421, 424, 427, 430, 433, 436, 439, 442, 445, 448,
                  451, 454, 457, 460, 463, 466, 469, 472, 475, 478, 481, 484,
                  487, 490, 493, 496, 499, 502, 505, 508, 511, 514, 517, 520,
                  523, 526, 529, 532, 535, 538, 541, 544, 547, 550, 553, 556,
                  559, 562, 565, 568, 571, 574, 577, 580, 583, 586, 589, 592,
                  595, 598, 601, 604, 607, 610, 613, 616, 619, 622, 625, 628,
                  631, 634, 637, 640, 643, 646, 649, 652, 655, 658, 661, 664,
                  667, 670, 673, 676, 679, 682, 685, 688, 691, 694, 697, 700,
                  703, 706, 709, 712, 715, 718, 721, 724, 727, 730, 733, 736,
                  739, 742, 745, 748, 751, 754
    2    1 h      2, 3, 5, 6, 8, 9, 11, 12, 14, 15, 17, 18, 20, 21, 23, 24,
                  26, 27, 29, 30, 32, 33, 35, 36, 38, 39, 41, 42, 44, 45, 47,
                  48, 50, 51, 53, 54, 56, 57, 59, 60, 62, 63, 65, 66, 68, 69,
                  71, 72, 74, 75, 77, 78, 80, 81, 83, 84, 86, 87, 89, 90, 92,
                  93, 95, 96, 98, 99, 101, 102, 104, 105, 107, 108, 110, 111,
                  113, 114, 116, 117, 119, 120, 122, 123, 125, 126, 128, 129,
                  131, 132, 134, 135, 137, 138, 140, 141, 143, 144, 146, 147,
                  149, 150, 152, 153, 155, 156, 158, 159, 161, 162, 164, 165,
                  167, 168, 170, 171, 173, 174, 176, 177, 179, 180, 182, 183,
                  185, 186, 188, 189, 191, 192, 194, 195, 197, 198, 200, 201,
                  203, 204, 206, 207, 209, 210, 212, 213, 215, 216, 218, 219,
                  221, 222, 224, 225, 227, 228, 230, 231, 233, 234, 236, 237,
                  239, 240, 242, 243, 245, 246, 248, 249, 251, 252, 254, 255,
                  257, 258, 260, 261, 263, 264, 266, 267, 269, 270, 272, 273,
                  275, 276, 278, 279, 281, 282, 284, 285, 287, 288, 290, 291,
                  293, 294, 296, 297, 299, 300, 302, 303, 305, 306, 308, 309,
                  311, 312, 314, 315, 317, 318, 320, 321, 323, 324, 326, 327,
                  329, 330, 332, 333, 335, 336, 338, 339, 341, 342, 344, 345,
                  347, 348, 350, 351, 353, 354, 356, 357, 359, 360, 362, 363,
                  365, 366, 368, 369, 371, 372, 374, 375, 377, 378, 380, 381,
                  383, 384, 386, 387, 389, 390, 392, 393, 395, 396, 398, 399,
                  401, 402, 404, 405, 407, 408, 410, 411, 413, 414, 416, 417,
                  419, 420, 422, 423, 425, 426, 428, 429, 431, 432, 434, 435,
                  437, 438, 440, 441, 443, 444, 446, 447, 449, 450, 452, 453,
                  455, 456, 458, 459, 461, 462, 464, 465, 467, 468, 470, 471,
                  473, 474, 476, 477, 479, 480, 482, 483, 485, 486, 488, 489,
                  491, 492, 494, 495, 497, 498, 500, 501, 503, 504, 506, 507,
                  509, 510, 512, 513, 515, 516, 518, 519, 521, 522, 524, 525,
                  527, 528, 530, 531, 533, 534, 536, 537, 539, 540, 542, 543,
                  545, 546, 548, 549, 551, 552, 554, 555, 557, 558, 560, 561,
                  563, 564, 566, 567, 569, 570, 572, 573, 575, 576, 578, 579,
                  581, 582, 584, 585, 587, 588, 590, 591, 593, 594, 596, 597,
                  599, 600, 602, 603, 605, 606, 608, 609, 611, 612, 614, 615,
                  617, 618, 620, 621, 623, 624, 626, 627, 629, 630, 632, 633,
                  635, 636, 638, 639, 641, 642, 644, 645, 647, 648, 650, 651,
                  653, 654, 656, 657, 659, 660, 662, 663, 665, 666, 668, 669,
                  671, 672, 674, 675, 677, 678, 680, 681, 683, 684, 686, 687,
                  689, 690, 692, 693, 695, 696, 698, 699, 701, 702, 704, 705,
                  707, 708, 710, 711, 713, 714, 716, 717, 719, 720, 722, 723,
                  725, 726, 728, 729, 731, 732, 734, 735, 737, 738, 740, 741,
                  743, 744, 746, 747, 749, 750, 752, 753, 755, 756

molecular fragmentation (1/2 indicates fragments):
111222222222222222222222222222222222222222222222222222222222222222222222
222222222222222222222222222222222222222222222222222222222222222222222222
222222222222222222222222222222222222222222222222222222222222222222222222
222222222222222222222222222222222222222222222222222222222222222222222222
222222222222222222222222222222222222222222222222222222222222222222222222
222222222222222222222222222222222222222222222222222222222222222222222222
222222222222222222222222222222222222222222222222222222222222222222222222
222222222222222222222222222222222222222222222222222222222222222222222222
222222222222222222222222222222222222222222222222222222222222222222222222
222222222222222222222222222222222222222222222222222222222222222222222222
222222222222222222222222222222222222
# atoms in fragment 1/2:     3   753
 fragment masses (1/2) :       18.02     4521.84
CMA distance (Bohr)    :  17.667
constraining FC (au)   :  0.0500

           -------------------------------------------------
          |                 G F N 2 - x T B                 |
           -------------------------------------------------

        Reference                      10.1021/acs.jctc.8b01176
      * Hamiltonian:
        H0-scaling (s, p, d)           1.850000    2.230000    2.230000
        zeta-weighting                 0.500000
      * Dispersion:
        s8                             2.700000
        a1                             0.520000
        a2                             5.000000
        s9                             5.000000
      * Repulsion:
        kExp                           1.500000    1.000000
        rExp                           1.000000
      * Coulomb:
        alpha                          2.000000
        third order                    shell-resolved
        anisotropic                    true
        a3                             3.000000
        a5                             4.000000
        cn-shift                       1.200000
        cn-exp                         4.000000
        max-rad                        5.000000


          ...................................................
          :                      SETUP                      :
          :.................................................:
          :  # basis functions                1512          :
          :  # atomic orbitals                1512          :
          :  # shells                         1008          :
          :  # electrons                      2016          :
          :  max. iterations                   250          :
          :  Hamiltonian                  GFN2-xTB          :
          :  restarted?                      false          :
          :  GBSA solvation                  false          :
          :  PC potential                    false          :
          :  electronic temp.          300.0000000     K    :
          :  accuracy                    1.0000000          :
          :  -> integral cutoff          0.2500000E+02      :
          :  -> integral neglect         0.1000000E-07      :
          :  -> SCF convergence          0.1000000E-05 Eh   :
          :  -> wf. convergence          0.1000000E-03 e    :
          :  Broyden damping             0.4000000          :
          ...................................................

 iter      E             dE          RMSdq      gap      omega  full diag
   1  -1291.0003375 -0.129100E+04  0.407E+00    8.44       0.0  T
   2  -1291.0757229 -0.753854E-01  0.241E+00    7.19       1.0  T
   3  -1291.1073381 -0.316152E-01  0.209E-01    5.36       1.0  T
   4  -1291.1125784 -0.524028E-02  0.452E-02    5.87       1.0  T
   5  -1291.1126583 -0.799070E-04  0.306E-02    5.79       1.0  T
   6  -1291.1126975 -0.392179E-04  0.400E-03    5.83       1.0  T
   7  -1291.1126996 -0.214576E-05  0.740E-04    5.83       4.9  T
   8  -1291.1126997 -0.289945E-07  0.379E-04    5.83       9.6  T
   9  -1291.1126997 -0.136886E-07  0.549E-05    5.83      66.3  T

   *** convergence criteria satisfied after 9 iterations ***

         #    Occupation            Energy/Eh            Energy/eV
      -------------------------------------------------------------
         1        2.0000           -0.6858915             -18.6641
       ...           ...                  ...                  ...
      1002        2.0000           -0.3440222              -9.3613
      1003        2.0000           -0.3415830              -9.2949
      1004        2.0000           -0.3323823              -9.0446
      1005        2.0000           -0.3294937              -8.9660
      1006        2.0000           -0.3286493              -8.9430
      1007        2.0000           -0.3262685              -8.8782
      1008        2.0000           -0.2952490              -8.0341 (HOMO)
      1009                         -0.0810501              -2.2055 (LUMO)
      1010                         -0.0697066              -1.8968
      1011                         -0.0594989              -1.6190
      1012                         -0.0561728              -1.5285
      1013                         -0.0487871              -1.3276
       ...                                ...                  ...
      1512                          0.4894251              13.3179
      -------------------------------------------------------------
                  HL-Gap            0.2141989 Eh            5.8286 eV
             Fermi-level           -0.1881495 Eh           -5.1198 eV
 
 localization/xTB-IFF output generation
 averaging CT terms over            1  occ. levels
 averaging CT terms over            1  virt. levels
 dipole moment from electron density (au)
     X       Y       Z   
   0.7965   2.2530  -3.4809  total (Debye):   10.732
cpu  time for init local    0.77 s
wall time for init local    0.39 s
 doing rotations ...
 initialization of trafo matrix to unity

 converged in     16 iterations, threshold :   0.99999039D-06
 doing transformations ...
 lmo centers(Z=2) and atoms on file <lmocent.coord>
 LMO Fii/eV  ncent    charge center   contributions...
    1 LP   *******   0.00 -11.44867   5.08804   6.16300  133O : 28.09   55O : 18.50  583O : 16.81  388O : 16.26   13O : 16.06   88O : 15.43  124O : 15.34  646O : 15.14  217O : 14.89  589O : 14.51  163O : 14.13   10O : 14.09
   73O : 13.95  619O : 13.48   61O : 12.89  358O : 12.83   76O : 12.80  442O : 12.28  598O : 12.08  256O : 12.07  166O : 11.84   94O : 11.21   97O : 11.21  742O : 11.10
  445O : 11.08  535O : 10.95   58O : 10.77    1O : 10.38  670O : 10.19  151O :  9.80   82O :  9.74   49O :  9.59  238O :  9.40  115O :  9.23   25O :  9.09  586O :  9.08
  685O :  8.80  667O :  8.77  745O :  8.69  478O :  8.61  295O :  8.57  169O :  8.39  253O :  8.29  373O :  8.24  103O :  8.12  364O :  7.71   31O :  7.71  607O :  7.58
  112O :  7.27  181O :  7.23  139O :  7.21    7O :  7.20  715O :  7.16  205O :  7.14  439O :  7.06  421O :  7.04  688O :  7.03  538O :  6.98  325O :  6.89  286O :  6.88
  211O :  6.82   19O :  6.81  610O :  6.79  340O :  6.71  334O :  6.68  592O :  6.61  361O :  6.52  301O :  6.51  451O :  6.50  703O :  6.48  130O :  6.44  400O :  6.42
   91O :  6.36  274O :  6.30  328O :  6.29  472O :  6.29  109O :  6.27  463O :  6.23  466O :  6.20  721O :  6.04  304O :  5.97  157O :  5.97  184O :  5.92  121O :  5.88
  229O :  5.83   22O :  5.81  214O :  5.81  550O :  5.79  523O :  5.76  100O :  5.70  712O :  5.66  346O :  5.66  220O :  5.58  754O :  5.50  394O :  5.50  403O :  5.39
  322O :  5.38  529O :  5.38  700O :  5.21  718O :  5.13  292O :  5.09  193O :  5.08  391O :  4.87  526O :  4.87  556O :  4.81  622O :  4.75  637O :  4.64  520O :  4.64
  613O :  4.56  571O :  4.49  244O :  4.40  235O :  4.39  415O :  4.37  307O :  4.33  355O :  4.23  559O :  4.22   67O :  4.20  493O :  4.20  706O :  4.19  148O :  4.17
  190O :  4.15  106O :  4.10  628O :  4.06  367O :  4.03  223O :  4.03  553O :  3.97  154O :  3.96  172O :  3.92  175O :  3.90  280O :  3.88  313O :  3.84  196O :  3.82
   28O :  3.78  319O :  3.76  310O :  3.72  484O :  3.69  376O :  3.62   46O :  3.61   37O :  3.55  418O :  3.54  448O :  3.53  202O :  3.52  265O :  3.48  490O :  3.44
   64O :  3.43  424O :  3.42  226O :  3.41  199O :  3.39   43O :  3.29  469O :  3.27  406O :  3.17   70O :  3.14  574O :  3.13  562O :  3.04  508O :  3.04  337O :  3.03
  289O :  3.00  694O :  2.97   85O :  2.93  595O :  2.91  655O :  2.91  739O :  2.88  724O :  2.85  349O :  2.81  631O :  2.74  511O :  2.71  604O :  2.68  682O :  2.68
  697O :  2.52  412O :  2.50  475O :  2.39  343O :  2.36  379O :  2.33  733O :  2.33  568O :  2.32  208O :  2.20   62H :  2.20  748O :  2.18  268O :  2.17  104H :  2.17
    4O :  2.16  277O :  2.12  283O :  2.10   50H :  2.09  460O :  2.07  262O :  2.07  370O :  2.05  649O :  2.03  544O :  2.00  397O :  1.94  436O :  1.88  430O :  1.82
  481O :  1.82   40O :  1.81   16O :  1.81  580O :  1.79  502O :  1.78  514O :  1.77  709O :  1.66  743H :  1.58  541O :  1.58  673O :  1.57  232O :  1.56  118O :  1.50
  487O :  1.50  117H :  1.48  643O :  1.48  187O :  1.48  532O :  1.47  634O :  1.47  736O :  1.47  457O :  1.43  389H :  1.43  727O :  1.38  591H :  1.37   87H :  1.35
  352O :  1.33  241O :  1.29  259O :  1.27  298O :  1.25  612H :  1.24  145O :  1.24  517O :  1.23   24H :  1.22  433O :  1.21  444H :  1.20   34O :  1.19  658O :  1.19
  276H :  1.18  171H :  1.17  625O :  1.17  329H :  1.15  331O :  1.15  608H :  1.10  385O :  1.07   51H :  1.05  271O :  1.02  209H :  1.01  221H :  1.00  661O :  1.00
  382O :  0.99  601O :  0.99  577O :  0.99  160O :  0.98   79O :  0.97  640O :  0.97  195H :  0.95  656H :  0.94  717H :  0.93  629H :  0.92   57H :  0.90  652O :  0.90
  565O :  0.89  219H :  0.87  496O :  0.85  730O :  0.85  142O :  0.82  155H :  0.82   15H :  0.80  404H :  0.79  585H :  0.78   95H :  0.77  201H :  0.77   78H :  0.74
  347H :  0.74  255H :  0.74  264H :  0.74  354H :  0.73  547O :  0.73  449H :  0.71  312H :  0.71  594H :  0.71  141H :  0.70  366H :  0.70  505O :  0.70  427O :  0.70
  250O :  0.70  691O :  0.69   93H :  0.69  134H :  0.68  372H :  0.68  679O :  0.67  474H :  0.67   52O :  0.67  127O :  0.65  321H :  0.64  324H :  0.63  402H :  0.63
  564H :  0.62  409O :  0.61  616O :  0.61  107H :  0.61  437H :  0.61   74H :  0.60  114H :  0.60  479H :  0.60  624H :  0.59  626H :  0.59  588H :  0.59  405H :  0.59
  747H :  0.58  480H :  0.58  751O :  0.57  452H :  0.57   99H :  0.56  323H :  0.56  350H :  0.55  131H :  0.55  183H :  0.54  485H :  0.53  177H :  0.53  110H :  0.53
  186H :  0.53  316O :  0.52  158H :  0.51  676O :  0.51  605H :  0.51   26H :  0.51   96H :  0.50  216H :  0.50  203H :  0.50  126H :  0.49  654H :  0.49  708H :  0.48
   98H :  0.48  258H :  0.48  413H :  0.48  686H :  0.48  393H :  0.47  135H :  0.47  650H :  0.46  156H :  0.46  194H :  0.46  206H :  0.46  489H :  0.46  723H :  0.46
  185H :  0.45  296H :  0.45  303H :  0.45  635H :  0.44  621H :  0.44  294H :  0.43  540H :  0.43    5H :  0.43   84H :  0.42  522H :  0.40  375H :  0.40   47H :  0.40
  614H :  0.40  453H :  0.39   66H :  0.39  575H :  0.39  609H :  0.38  207H :  0.38  401H :  0.38  491H :  0.38  240H :  0.37  210H :  0.36  440H :  0.35  674H :  0.35
  468H :  0.35  398H :  0.35  750H :  0.34  297H :  0.34  471H :  0.34  518H :  0.34  537H :  0.34  671H :  0.33  251H :  0.33  419H :  0.32  254H :  0.32  213H :  0.32
  345H :  0.31  720H :  0.31  462H :  0.31  543H :  0.31  215H :  0.31  492H :  0.31  341H :  0.31  147H :  0.31  702H :  0.30  287H :  0.30  533H :  0.30   21H :  0.30
  422H :  0.29  563H :  0.29  377H :  0.29  170H :  0.29  476H :  0.28  521H :  0.28  270H :  0.28  558H :  0.28  689H :  0.28   32H :  0.27  744H :  0.27  528H :  0.27
  123H :  0.27  690H :  0.27  191H :  0.27  136O :  0.26  247O :  0.26   41H :  0.26  309H :  0.26  246H :  0.25   33H :  0.25  113H :  0.25  572H :  0.25   29H :  0.24
  711H :  0.24    6H :  0.24  530H :  0.24  435H :  0.23  178O :  0.22  630H :  0.22  560H :  0.22  494H :  0.21  152H :  0.21  245H :  0.21   77H :  0.21  695H :  0.21
  632H :  0.20  456H :  0.20  510H :  0.20   17H :  0.20  552H :  0.20  362H :  0.19  447H :  0.19   11H :  0.19   39H :  0.19  306H :  0.19   72H :  0.18  348H :  0.18
  233H :  0.18  243H :  0.18  414H :  0.18  499O :  0.18  627H :  0.18  546H :  0.18  596H :  0.18  672H :  0.17    2H :  0.17  531H :  0.17  161H :  0.17  582H :  0.17
  257H :  0.17  369H :  0.17  222H :  0.17  443H :  0.16  756H :  0.16  164H :  0.16  696H :  0.16   30H :  0.16  483H :  0.16   75H :  0.16   56H :  0.15  465H :  0.15
  638H :  0.15  315H :  0.15  159H :  0.15  495H :  0.15  119H :  0.14   89H :  0.14  111H :  0.14  284H :  0.14  680H :  0.14  664O :  0.14   44H :  0.14  423H :  0.14
  363H :  0.14  746H :  0.14  726H :  0.14  542H :  0.14    9H :  0.13  731H :  0.13  285H :  0.13  567H :  0.13    3H :  0.13  569H :  0.13   42H :  0.13  728H :  0.13
  677H :  0.12  578H :  0.12  168H :  0.12  704H :  0.12  668H :  0.11  407H :  0.11  417H :  0.11  639H :  0.11  374H :  0.11  360H :  0.11  647H :  0.11  524H :  0.10
  383H :  0.10  438H :  0.10  305H :  0.10   27H :  0.10  687H :  0.10  470H :  0.10  339H :  0.10   80H :  0.09  507H :  0.09  378H :  0.09  732H :  0.09  669H :  0.09
  714H :  0.09   59H :  0.09  527H :  0.09  600H :  0.09  300H :  0.09  333H :  0.09  320H :  0.09   14H :  0.08  225H :  0.08  459H :  0.08  227H :  0.08  722H :  0.08
  657H :  0.08  602H :  0.08  332H :  0.08  615H :  0.08  420H :  0.08  129H :  0.08  519H :  0.08  387H :  0.08  101H :  0.08  551H :  0.08  143H :  0.08  188H :  0.08
  167H :  0.08  641H :  0.08  644H :  0.08   69H :  0.07  698H :  0.07  593H :  0.07  653H :  0.07  516H :  0.07  327H :  0.07  149H :  0.07
    2 LP   *******   0.00  10.06350   1.20122  -4.95622  133O : 19.83   55O : 15.22   13O : 14.52  583O : 13.83  388O : 13.35   88O : 12.69  124O : 12.61  646O : 12.46  217O : 12.24  589O : 11.94   10O : 11.69  163O : 11.62
   73O : 11.47  619O : 11.09   76O : 10.60   61O : 10.60  358O : 10.56  442O : 10.10  598O :  9.93  256O :  9.93  166O :  9.72   94O :  9.23   97O :  9.22  742O :  9.13
  445O :  9.11  535O :  9.01   58O :  8.86    1O :  8.54  670O :  8.38  151O :  8.06   82O :  8.01   49O :  7.90  238O :  7.73  115O :  7.59   25O :  7.48  586O :  7.47
  685O :  7.24  667O :  7.21  745O :  7.15  478O :  7.08  295O :  7.05  169O :  6.90  253O :  6.80  373O :  6.78  103O :  6.68  364O :  6.34   31O :  6.34  607O :  6.23
  112O :  5.99  181O :  5.94  139O :  5.93    7O :  5.92  715O :  5.89  205O :  5.88  439O :  5.81  421O :  5.79  688O :  5.78  538O :  5.74  286O :  5.66  325O :  5.66
  211O :  5.61   19O :  5.60  610O :  5.58  340O :  5.52  334O :  5.50  592O :  5.44  361O :  5.37  301O :  5.36  451O :  5.35  703O :  5.33  130O :  5.30  400O :  5.28
   91O :  5.23  274O :  5.18  328O :  5.18  466O :  5.17  472O :  5.17  109O :  5.15  463O :  5.13  721O :  4.97  304O :  4.91  157O :  4.91  184O :  4.87  121O :  4.83
  229O :  4.79   22O :  4.78  214O :  4.78  550O :  4.76  523O :  4.74  100O :  4.69  712O :  4.66  346O :  4.63  220O :  4.59  754O :  4.53  394O :  4.52  403O :  4.43
  322O :  4.43  529O :  4.42  700O :  4.29  718O :  4.22  292O :  4.19  193O :  4.17  391O :  4.01  526O :  4.00  556O :  3.95  622O :  3.91  637O :  3.82  520O :  3.81
  613O :  3.75  571O :  3.69  235O :  3.61  244O :  3.60  415O :  3.59  307O :  3.56  559O :  3.48  355O :  3.48   67O :  3.45  493O :  3.45  706O :  3.45  148O :  3.43
  190O :  3.41  106O :  3.37  628O :  3.34  367O :  3.32  223O :  3.31  553O :  3.26  154O :  3.26  172O :  3.22  175O :  3.21  280O :  3.19  313O :  3.15  196O :  3.14
   28O :  3.11  310O :  3.10  319O :  3.09  484O :  3.03  376O :  2.98   46O :  2.97   37O :  2.92  418O :  2.92  448O :  2.90  202O :  2.90  265O :  2.86  490O :  2.83
   64O :  2.82  424O :  2.81  226O :  2.80  199O :  2.79  469O :  2.67   43O :  2.65  406O :  2.61   70O :  2.58  574O :  2.57  562O :  2.50  508O :  2.50  337O :  2.49
  289O :  2.47  694O :  2.44   85O :  2.41  655O :  2.39  595O :  2.39  739O :  2.37  724O :  2.34  349O :  2.31  631O :  2.26  511O :  2.23  604O :  2.20  682O :  2.20
  697O :  2.07  412O :  2.05  475O :  1.97  343O :  1.96  379O :  1.92  733O :  1.91  568O :  1.91  208O :  1.81   62H :  1.81  748O :  1.79  268O :  1.78  104H :  1.78
    4O :  1.78  277O :  1.74  283O :  1.72   50H :  1.72  460O :  1.70  262O :  1.70  370O :  1.68  649O :  1.67  544O :  1.65  397O :  1.60  436O :  1.55  430O :  1.50
  481O :  1.50   40O :  1.50   16O :  1.49  580O :  1.48  502O :  1.46  514O :  1.46  709O :  1.37  743H :  1.30  541O :  1.30  673O :  1.29  232O :  1.28  118O :  1.24
  487O :  1.23  643O :  1.22  117H :  1.22  187O :  1.22  532O :  1.21  634O :  1.21  736O :  1.21  457O :  1.18  389H :  1.16  727O :  1.13  591H :  1.13   87H :  1.11
  352O :  1.10  241O :  1.06  259O :  1.04  298O :  1.03  612H :  1.02  145O :  1.02  517O :  1.01   24H :  1.00  433O :  0.99   34O :  0.99  444H :  0.98  658O :  0.98
  276H :  0.97  171H :  0.96  625O :  0.96  329H :  0.95  331O :  0.95  608H :  0.90  385O :  0.88   51H :  0.87  271O :  0.84  661O :  0.84  640O :  0.83  209H :  0.83
  221H :  0.83  382O :  0.82  601O :  0.82  577O :  0.81  160O :  0.80   79O :  0.80  195H :  0.78  656H :  0.77  717H :  0.76  629H :  0.76   57H :  0.74  652O :  0.74
  565O :  0.73  219H :  0.72  496O :  0.70  730O :  0.70  142O :  0.68  155H :  0.68  134H :  0.66  404H :  0.65  585H :  0.65   95H :  0.63  201H :  0.63   78H :  0.62
  264H :  0.60  255H :  0.60  547O :  0.60  312H :  0.60  354H :  0.60  449H :  0.58  594H :  0.58  141H :  0.58  505O :  0.58  366H :  0.58  427O :  0.57  250O :  0.57
  691O :  0.57   93H :  0.57  372H :  0.56  679O :  0.55  474H :  0.55   52O :  0.55  127O :  0.53  321H :  0.52  324H :  0.52  402H :  0.52   15H :  0.51  564H :  0.51
  409O :  0.51  616O :  0.50  107H :  0.50  437H :  0.50   74H :  0.49  114H :  0.49  479H :  0.49  624H :  0.49  626H :  0.49  588H :  0.48  405H :  0.48  135H :  0.48
  747H :  0.47  480H :  0.47  452H :  0.47  350H :  0.47   99H :  0.46  323H :  0.46  131H :  0.45  751O :  0.45  183H :  0.45  485H :  0.44  177H :  0.44  110H :  0.43
  186H :  0.43  316O :  0.43  158H :  0.42  676O :  0.42  605H :  0.42   26H :  0.42   96H :  0.41  216H :  0.41  203H :  0.41  126H :  0.40  654H :  0.40  347H :  0.40
  708H :  0.40   98H :  0.39  258H :  0.39  413H :  0.39  686H :  0.39  393H :  0.39  650H :  0.38  156H :  0.38  194H :  0.38  206H :  0.38  489H :  0.38  723H :  0.38
  185H :  0.37  296H :  0.37  303H :  0.37  635H :  0.36  621H :  0.36  294H :  0.35  540H :  0.35    5H :  0.35   84H :  0.34  522H :  0.33  375H :  0.33   47H :  0.33
  614H :  0.32  453H :  0.32   66H :  0.32  575H :  0.32  609H :  0.31  491H :  0.31  207H :  0.31  401H :  0.31  240H :  0.31  210H :  0.30  468H :  0.29  440H :  0.29
  674H :  0.29  398H :  0.29  750H :  0.28  471H :  0.28  297H :  0.28  518H :  0.28  537H :  0.28  671H :  0.28  251H :  0.27  419H :  0.27  254H :  0.26  213H :  0.26
  720H :  0.26  462H :  0.25  543H :  0.25  215H :  0.25  492H :  0.25  345H :  0.25  341H :  0.25  147H :  0.25  702H :  0.25  287H :  0.25  533H :  0.25   21H :  0.25
  422H :  0.24  563H :  0.24  377H :  0.24  170H :  0.24  476H :  0.23  521H :  0.23  270H :  0.23  558H :  0.23  689H :  0.23   32H :  0.23  744H :  0.22  247O :  0.22
  528H :  0.22  123H :  0.22  690H :  0.22  191H :  0.22   41H :  0.22  136O :  0.21  309H :  0.21  246H :  0.21   33H :  0.21  113H :  0.20  572H :  0.20   29H :  0.20
  711H :  0.20    6H :  0.19  530H :  0.19  435H :  0.19  178O :  0.18  630H :  0.18  560H :  0.18  494H :  0.17  152H :  0.17  245H :  0.17  695H :  0.17  632H :  0.17
  456H :  0.17  510H :  0.16   17H :  0.16  552H :  0.16  362H :  0.16  447H :  0.16   39H :  0.16  306H :  0.15  348H :  0.15   72H :  0.15  233H :  0.15  243H :  0.15
   11H :  0.15  414H :  0.15  499O :  0.14  627H :  0.14  546H :  0.14  596H :  0.14  672H :  0.14    2H :  0.14  531H :  0.14   77H :  0.14  161H :  0.14  582H :  0.14
  257H :  0.14  369H :  0.14  222H :  0.14  443H :  0.14  756H :  0.13  164H :  0.13  696H :  0.13  483H :  0.13   30H :  0.13   75H :  0.13   56H :  0.13  465H :  0.12
  638H :  0.12  315H :  0.12  159H :  0.12  495H :  0.12  119H :  0.12   89H :  0.12  111H :  0.12  284H :  0.12  680H :  0.11  664O :  0.11  423H :  0.11  363H :  0.11
  746H :  0.11  726H :  0.11  542H :  0.11    9H :  0.11  731H :  0.11   14H :  0.11  285H :  0.11  567H :  0.11   42H :  0.11    3H :  0.11  569H :  0.11   44H :  0.10
  728H :  0.10  677H :  0.10  578H :  0.10  168H :  0.10  704H :  0.10  668H :  0.09  407H :  0.09  417H :  0.09  374H :  0.09  639H :  0.09  360H :  0.09  647H :  0.09
  524H :  0.09  383H :  0.09  438H :  0.09  305H :  0.08   27H :  0.08  687H :  0.08  470H :  0.08  339H :  0.08   80H :  0.08  507H :  0.08  378H :  0.08  732H :  0.08
  641H :  0.07  669H :  0.07   59H :  0.07  714H :  0.07  527H :  0.07  600H :  0.07  300H :  0.07  320H :  0.07  333H :  0.07
    3 LP   *******   0.00  20.95555 -50.01668   6.68180  133O : 19.72   55O : 17.01  583O : 13.75  388O : 13.30   13O : 13.14   88O : 12.62  124O : 12.55  646O : 12.39  217O : 12.18  589O : 11.87   10O : 11.59  163O : 11.56
   73O : 11.41  619O : 11.03   61O : 10.54  358O : 10.54   76O : 10.47  442O : 10.04  598O :  9.87  256O :  9.87  166O :  9.67   94O :  9.17   97O :  9.17  742O :  9.08
  445O :  9.06  535O :  8.96   58O :  8.81    1O :  8.49  670O :  8.34  151O :  8.02   82O :  7.97   49O :  7.84  238O :  7.69  115O :  7.55  586O :  7.48   25O :  7.43
  685O :  7.20  667O :  7.16  745O :  7.11  478O :  7.04  295O :  7.01  169O :  6.86  253O :  6.78  373O :  6.74  103O :  6.64  364O :  6.30   31O :  6.30  607O :  6.20
  112O :  5.95  181O :  5.92    7O :  5.90  139O :  5.89  715O :  5.85  205O :  5.84  439O :  5.78  421O :  5.75  688O :  5.75  538O :  5.71  610O :  5.65  325O :  5.64
  286O :  5.63  211O :  5.58   19O :  5.58  340O :  5.49  334O :  5.47  592O :  5.41  361O :  5.34  301O :  5.33  451O :  5.32  703O :  5.30  130O :  5.27  400O :  5.25
   91O :  5.20  274O :  5.16  328O :  5.15  472O :  5.14  466O :  5.14  109O :  5.13  463O :  5.10  721O :  4.94  304O :  4.89  157O :  4.88  184O :  4.84  121O :  4.83
  229O :  4.77  214O :  4.75  550O :  4.73  523O :  4.71   22O :  4.69  100O :  4.66  346O :  4.63  712O :  4.62  220O :  4.56  394O :  4.50  754O :  4.50  403O :  4.40
  322O :  4.40  529O :  4.40  700O :  4.26  718O :  4.20  292O :  4.16  193O :  4.16  391O :  3.98  526O :  3.98  556O :  3.93  622O :  3.89  637O :  3.79  520O :  3.79
  613O :  3.73  571O :  3.67  244O :  3.60  235O :  3.59  415O :  3.57  307O :  3.54  355O :  3.46  559O :  3.45   67O :  3.44  493O :  3.43  706O :  3.43  148O :  3.41
  190O :  3.40  106O :  3.35  628O :  3.32  367O :  3.30  223O :  3.30  553O :  3.25  154O :  3.24  172O :  3.20  175O :  3.19  280O :  3.18  313O :  3.14  196O :  3.12
   28O :  3.10  319O :  3.07  310O :  3.04  484O :  3.02  376O :  2.96   46O :  2.95   37O :  2.91  418O :  2.90  448O :  2.88  202O :  2.88  265O :  2.84  490O :  2.81
   64O :  2.81  424O :  2.80  226O :  2.79  199O :  2.77   43O :  2.69  469O :  2.66  406O :  2.59   70O :  2.57  574O :  2.56  562O :  2.49  508O :  2.48  337O :  2.48
  289O :  2.45  694O :  2.43   85O :  2.40  595O :  2.38  655O :  2.38  739O :  2.35  724O :  2.33  349O :  2.30  631O :  2.24  511O :  2.21  682O :  2.19  604O :  2.19
  697O :  2.06  412O :  2.04  475O :  1.96  343O :  1.95  379O :  1.90  733O :  1.90  568O :  1.89  208O :  1.81   62H :  1.80  748O :  1.78  268O :  1.77  104H :  1.77
    4O :  1.77  277O :  1.73  283O :  1.71   50H :  1.71  460O :  1.70  262O :  1.69  370O :  1.67  649O :  1.66  544O :  1.64  397O :  1.59  436O :  1.54  430O :  1.49
  481O :  1.49   40O :  1.48   16O :  1.48  580O :  1.47  502O :  1.46  514O :  1.45  709O :  1.36  743H :  1.30  541O :  1.29  673O :  1.29  232O :  1.27  118O :  1.26
  487O :  1.22  643O :  1.21  117H :  1.21  532O :  1.21  187O :  1.20  634O :  1.20  736O :  1.20  612H :  1.19  389H :  1.17  457O :  1.17  727O :  1.13  591H :  1.12
   87H :  1.11  352O :  1.10  241O :  1.05  259O :  1.04  298O :  1.02  145O :  1.01  517O :  1.01  433O :  0.99   24H :  0.98  444H :  0.98   34O :  0.97  658O :  0.97
  276H :  0.97  171H :  0.96  625O :  0.96  331O :  0.95  329H :  0.94  608H :  0.90  385O :  0.88   51H :  0.86  271O :  0.84  661O :  0.84  640O :  0.83  209H :  0.82
  221H :  0.82  382O :  0.81  601O :  0.81  577O :  0.81  160O :  0.80   79O :  0.80  195H :  0.78  656H :  0.77  717H :  0.76  629H :  0.76  652O :  0.73  565O :  0.72
  219H :  0.71  496O :  0.70  142O :  0.69  730O :  0.69  155H :  0.67   15H :  0.65  134H :  0.65  404H :  0.65   57H :  0.64  585H :  0.64   95H :  0.63  201H :  0.63
   78H :  0.61  255H :  0.60  264H :  0.60  547O :  0.60  354H :  0.59  449H :  0.58  594H :  0.58  312H :  0.58  141H :  0.58  366H :  0.57  505O :  0.57  427O :  0.57
  250O :  0.57  691O :  0.56   93H :  0.56  372H :  0.56  679O :  0.55  474H :  0.55   52O :  0.54  127O :  0.53  321H :  0.52  324H :  0.52  402H :  0.52  564H :  0.50
  409O :  0.50  616O :  0.50  107H :  0.50  437H :  0.50   74H :  0.49  114H :  0.49  479H :  0.49  624H :  0.48  626H :  0.48  405H :  0.48  588H :  0.48  135H :  0.48
  747H :  0.47  480H :  0.47  751O :  0.47  452H :  0.46  350H :  0.46   99H :  0.46  323H :  0.46  131H :  0.45  183H :  0.45  485H :  0.44  177H :  0.43  110H :  0.43
  186H :  0.43  316O :  0.42  158H :  0.42  676O :  0.42  605H :  0.42   26H :  0.41   96H :  0.41  216H :  0.41  203H :  0.41  126H :  0.40  654H :  0.40  347H :  0.40
  708H :  0.39   98H :  0.39  258H :  0.39  413H :  0.39  686H :  0.39  393H :  0.39  650H :  0.38  156H :  0.38  194H :  0.38  206H :  0.38  489H :  0.37  723H :  0.37
  185H :  0.37  296H :  0.37  303H :  0.37  635H :  0.36  621H :  0.36  294H :  0.35  540H :  0.35    5H :  0.35   84H :  0.34  522H :  0.32  375H :  0.32   47H :  0.32
  614H :  0.32  453H :  0.32   66H :  0.32  575H :  0.31  609H :  0.31  207H :  0.31  401H :  0.31  491H :  0.31  240H :  0.31  210H :  0.30  468H :  0.29  440H :  0.29
  674H :  0.29  398H :  0.28  750H :  0.28  471H :  0.28  297H :  0.28  518H :  0.28  537H :  0.28  671H :  0.27  251H :  0.27  419H :  0.27  254H :  0.26  213H :  0.26
  720H :  0.25  462H :  0.25  543H :  0.25  215H :  0.25  492H :  0.25  345H :  0.25  341H :  0.25  147H :  0.25  702H :  0.25  287H :  0.25  533H :  0.25   21H :  0.24
  422H :  0.24  563H :  0.24  170H :  0.24  377H :  0.24  476H :  0.23  521H :  0.23  270H :  0.23  558H :  0.23  689H :  0.23   32H :  0.22  744H :  0.22  123H :  0.22
  528H :  0.22  690H :  0.22  191H :  0.22  247O :  0.21   41H :  0.21  136O :  0.21  309H :  0.21  246H :  0.21   33H :  0.21  113H :  0.20  572H :  0.20   29H :  0.20
  711H :  0.19    6H :  0.19  530H :  0.19  435H :  0.19  178O :  0.18  630H :  0.18  560H :  0.18  494H :  0.17  152H :  0.17  245H :  0.17  695H :  0.17  632H :  0.17
   77H :  0.17  456H :  0.17  510H :  0.16   17H :  0.16  552H :  0.16  362H :  0.16  447H :  0.16   39H :  0.16   11H :  0.15  306H :  0.15   72H :  0.15  348H :  0.15
  233H :  0.15  243H :  0.15  414H :  0.15  499O :  0.14  627H :  0.14  546H :  0.14  596H :  0.14  672H :  0.14    2H :  0.14  531H :  0.14  161H :  0.14  582H :  0.14
  257H :  0.14  369H :  0.14  222H :  0.14  443H :  0.14  756H :  0.13  164H :  0.13  696H :  0.13   30H :  0.13  483H :  0.13   75H :  0.13  119H :  0.12  465H :  0.12
  638H :  0.12  315H :  0.12  159H :  0.12  495H :  0.12   89H :  0.12  111H :  0.11  284H :  0.11  680H :  0.11   44H :  0.11  363H :  0.11  423H :  0.11  664O :  0.11
  746H :  0.11  726H :  0.11    9H :  0.11  542H :  0.11  731H :  0.11  285H :  0.11  567H :  0.11    3H :  0.11  569H :  0.10   42H :  0.10  728H :  0.10  677H :  0.10
  578H :  0.10  168H :  0.10  704H :  0.10  668H :  0.09  407H :  0.09  417H :  0.09  360H :  0.09  374H :  0.09  639H :  0.09  647H :  0.09   56H :  0.09  524H :  0.09
  383H :  0.08  438H :  0.08  305H :  0.08   27H :  0.08  687H :  0.08  470H :  0.08  339H :  0.08   80H :  0.08  507H :  0.08  378H :  0.08  732H :  0.07  641H :  0.07
  143H :  0.07  669H :  0.07  714H :  0.07   59H :  0.07  527H :  0.07  600H :  0.07  300H :  0.07
    4 LP   *******   0.00  54.11601  10.44474  -6.98088  133O : 19.21  217O : 15.07   55O : 14.74  583O : 13.40  388O : 12.97   13O : 12.80   88O : 12.30  124O : 12.23  646O : 12.07  589O : 11.56   10O : 11.29  163O : 11.26
   73O : 11.12  619O : 10.74   61O : 10.27  358O : 10.23   76O : 10.20  442O :  9.78  598O :  9.62  256O :  9.62  166O :  9.42   94O :  8.94   97O :  8.92  742O :  8.85
  445O :  8.83  535O :  8.73   58O :  8.58    1O :  8.27  670O :  8.12  151O :  7.81   82O :  7.64   49O :  7.64  238O :  7.49  115O :  7.35   25O :  7.24  586O :  7.23
  685O :  7.02  667O :  6.99  745O :  6.92  478O :  6.86  295O :  6.83  169O :  6.68  253O :  6.62  373O :  6.58  103O :  6.49   31O :  6.14  364O :  6.14  607O :  6.04
  112O :  5.79  181O :  5.76  139O :  5.74    7O :  5.74  715O :  5.70  205O :  5.69  439O :  5.63  421O :  5.62  688O :  5.60  538O :  5.56  286O :  5.49  325O :  5.48
  211O :  5.44   19O :  5.43  334O :  5.41  610O :  5.41  340O :  5.35  592O :  5.27  361O :  5.20  301O :  5.19  451O :  5.17  703O :  5.17  130O :  5.13  400O :  5.12
   91O :  5.06  274O :  5.02  328O :  5.01  472O :  5.01  466O :  5.01  109O :  5.00  463O :  4.97  721O :  4.81  304O :  4.76  157O :  4.73  184O :  4.72  121O :  4.68
  229O :  4.64  214O :  4.64   22O :  4.63  550O :  4.61  523O :  4.59  100O :  4.54  346O :  4.51  712O :  4.51  220O :  4.45  754O :  4.38  394O :  4.38  403O :  4.29
  322O :  4.29  529O :  4.29  700O :  4.15  718O :  4.09  292O :  4.05  193O :  4.04  391O :  3.88  526O :  3.88  556O :  3.83  622O :  3.79  637O :  3.70  520O :  3.69
  613O :  3.63  571O :  3.57  244O :  3.50  235O :  3.49  415O :  3.48  307O :  3.45  355O :  3.37  559O :  3.36   67O :  3.35  493O :  3.34  706O :  3.34  148O :  3.33
  190O :  3.30  106O :  3.29  628O :  3.23  367O :  3.21  223O :  3.21  553O :  3.16  154O :  3.16  172O :  3.12  175O :  3.11  280O :  3.09  313O :  3.06  196O :  3.04
   28O :  3.02  319O :  2.99  310O :  2.96  484O :  2.94  376O :  2.88   46O :  2.88   37O :  2.83  418O :  2.82  448O :  2.81  202O :  2.81   64O :  2.79  265O :  2.77
  490O :  2.74  424O :  2.73  226O :  2.72  199O :  2.70   43O :  2.62  469O :  2.60  406O :  2.53   70O :  2.50  574O :  2.49  562O :  2.42  508O :  2.42  337O :  2.41
  289O :  2.39  694O :  2.37   85O :  2.34  595O :  2.32  655O :  2.32  739O :  2.29  724O :  2.27  349O :  2.24  631O :  2.19  682O :  2.16  511O :  2.16  604O :  2.13
  697O :  2.01  412O :  1.99  475O :  1.91  343O :  1.90  379O :  1.86  733O :  1.85  568O :  1.85  208O :  1.75   62H :  1.75  748O :  1.73  268O :  1.73    4O :  1.73
  104H :  1.72  277O :  1.69  283O :  1.67   50H :  1.67  460O :  1.65  262O :  1.65  370O :  1.63  649O :  1.62  544O :  1.59  397O :  1.55  436O :  1.50  430O :  1.45
  481O :  1.45   40O :  1.44   16O :  1.44  580O :  1.43  502O :  1.42  514O :  1.41  709O :  1.33  743H :  1.26  541O :  1.26  673O :  1.25  232O :  1.24  118O :  1.20
  487O :  1.19  643O :  1.18  117H :  1.18  187O :  1.18  532O :  1.17  634O :  1.17  736O :  1.17  389H :  1.14  457O :  1.10  727O :  1.10  591H :  1.09   87H :  1.08
  352O :  1.07  241O :  1.02  259O :  1.01  298O :  1.00  612H :  0.99  145O :  0.99  517O :  0.98   24H :  0.97  433O :  0.96  444H :  0.95   34O :  0.95  658O :  0.95
  276H :  0.94  171H :  0.93  625O :  0.93  329H :  0.92  331O :  0.92  608H :  0.87  385O :  0.86   51H :  0.84  271O :  0.81  661O :  0.81  640O :  0.81  209H :  0.80
  221H :  0.80  382O :  0.79  601O :  0.79  577O :  0.79  160O :  0.78   79O :  0.77  195H :  0.76  656H :  0.75  717H :  0.74  629H :  0.74   57H :  0.72  652O :  0.71
  565O :  0.71  496O :  0.68  730O :  0.67  142O :  0.66  155H :  0.65  134H :  0.64   15H :  0.64  404H :  0.63  585H :  0.63   95H :  0.61  201H :  0.61  219H :  0.60
   78H :  0.59  547O :  0.59  264H :  0.59  255H :  0.59  354H :  0.58  449H :  0.57  594H :  0.56  312H :  0.56  141H :  0.56  366H :  0.56  505O :  0.56  427O :  0.56
  250O :  0.56  691O :  0.55   93H :  0.55  372H :  0.54  679O :  0.54  474H :  0.53   52O :  0.53  127O :  0.51  321H :  0.51  324H :  0.50  402H :  0.50  564H :  0.49
  409O :  0.49  616O :  0.49  107H :  0.49  437H :  0.48   74H :  0.48  114H :  0.48  479H :  0.47  624H :  0.47  626H :  0.47  588H :  0.47  405H :  0.47  135H :  0.46
  480H :  0.46  747H :  0.46  751O :  0.45  452H :  0.45  350H :  0.45   99H :  0.45  323H :  0.44  131H :  0.44  183H :  0.43  485H :  0.43  177H :  0.42  110H :  0.42
  186H :  0.42  316O :  0.41  158H :  0.41  605H :  0.41  676O :  0.41   26H :  0.40   96H :  0.40  216H :  0.40  203H :  0.40  126H :  0.39  686H :  0.39  654H :  0.39
  347H :  0.39  708H :  0.38   98H :  0.38  258H :  0.38  413H :  0.38  393H :  0.38  650H :  0.37  156H :  0.37  194H :  0.37  206H :  0.37  489H :  0.37  723H :  0.36
  185H :  0.36  296H :  0.36  303H :  0.36  635H :  0.35  621H :  0.35  294H :  0.34  540H :  0.34    5H :  0.34   84H :  0.33  522H :  0.32   47H :  0.32  375H :  0.32
  614H :  0.31  453H :  0.31   66H :  0.31  575H :  0.31  609H :  0.30  207H :  0.30  401H :  0.30  491H :  0.30  240H :  0.30  210H :  0.29  468H :  0.28  440H :  0.28
  674H :  0.28  398H :  0.28  750H :  0.27  471H :  0.27  297H :  0.27  518H :  0.27  537H :  0.27  671H :  0.27  251H :  0.26  419H :  0.26  254H :  0.26  213H :  0.25
  720H :  0.25  462H :  0.25  215H :  0.25  543H :  0.25  492H :  0.25  345H :  0.25  147H :  0.25  341H :  0.24  702H :  0.24  287H :  0.24  533H :  0.24   21H :  0.24
  422H :  0.24  563H :  0.23  377H :  0.23  170H :  0.23  476H :  0.22  521H :  0.22  270H :  0.22  558H :  0.22  689H :  0.22   32H :  0.22  744H :  0.22  528H :  0.21
  690H :  0.21  123H :  0.21  191H :  0.21  247O :  0.21   41H :  0.21  136O :  0.21  309H :  0.20  246H :  0.20   33H :  0.20  113H :  0.20  572H :  0.20   29H :  0.19
  711H :  0.19    6H :  0.19  530H :  0.19  435H :  0.18  178O :  0.18  630H :  0.17  560H :  0.17  494H :  0.17  152H :  0.17  245H :  0.16  695H :  0.16  632H :  0.16
   77H :  0.16  456H :  0.16  510H :  0.16   17H :  0.16  552H :  0.16  362H :  0.16  447H :  0.15   39H :  0.15   11H :  0.15  306H :  0.15   72H :  0.15  348H :  0.14
  233H :  0.14  243H :  0.14  414H :  0.14  499O :  0.14  627H :  0.14  546H :  0.14  596H :  0.14  672H :  0.14    2H :  0.14  531H :  0.14  161H :  0.14  582H :  0.13
  257H :  0.13  369H :  0.13  222H :  0.13  443H :  0.13  756H :  0.13  164H :  0.13  696H :  0.13   30H :  0.13  483H :  0.13   75H :  0.12   56H :  0.12  465H :  0.12
  638H :  0.12  315H :  0.12  495H :  0.12  159H :  0.11  119H :  0.11   89H :  0.11  111H :  0.11  284H :  0.11  680H :  0.11   44H :  0.11  664O :  0.11  423H :  0.11
  363H :  0.11  746H :  0.11  726H :  0.11  542H :  0.11    9H :  0.11  731H :  0.11  285H :  0.11  567H :  0.10    3H :  0.10  569H :  0.10   42H :  0.10  728H :  0.10
  677H :  0.10  578H :  0.10  168H :  0.09  704H :  0.09  668H :  0.09  407H :  0.09  417H :  0.09  374H :  0.09  639H :  0.09  360H :  0.09  647H :  0.08  524H :  0.08
  383H :  0.08  438H :  0.08  305H :  0.08   27H :  0.08  687H :  0.08  470H :  0.08  339H :  0.08   80H :  0.08  507H :  0.08  378H :  0.07  732H :  0.07  641H :  0.07
  669H :  0.07  714H :  0.07   59H :  0.07  527H :  0.07
    5 LP   *******   0.00  26.12645   1.40908   5.27990  133O : 19.17   55O : 14.71  124O : 14.13  583O : 13.37  388O : 12.93   13O : 12.78   88O : 12.27  646O : 12.05  217O : 11.84  589O : 11.54   10O : 11.26  163O : 11.23
   73O : 11.09  619O : 10.72   61O : 10.25  358O : 10.20   76O : 10.18  442O :  9.76  598O :  9.60  256O :  9.60  166O :  9.37   94O :  8.92  742O :  8.83  445O :  8.81
  535O :  8.71   97O :  8.69   58O :  8.57    1O :  8.25  670O :  8.10  151O :  7.79   82O :  7.76   49O :  7.55  238O :  7.47  115O :  7.35   25O :  7.23  586O :  7.22
  685O :  7.00  667O :  6.97  745O :  6.91  478O :  6.84  295O :  6.81  169O :  6.67  253O :  6.57  373O :  6.56  103O :  6.28   31O :  6.13  364O :  6.13  607O :  6.02
  112O :  5.78  181O :  5.74  139O :  5.73    7O :  5.73  715O :  5.69  205O :  5.68  439O :  5.62  421O :  5.60  688O :  5.59  538O :  5.55  286O :  5.48  325O :  5.45
  211O :  5.43   19O :  5.42  610O :  5.40  340O :  5.34  334O :  5.32  592O :  5.26  361O :  5.19  301O :  5.18  451O :  5.18  703O :  5.16  130O :  5.13  400O :  5.10
   91O :  5.05  274O :  5.01  328O :  5.00  472O :  5.00  466O :  5.00  109O :  4.98  463O :  4.96  721O :  4.80  304O :  4.75  157O :  4.74  184O :  4.71  121O :  4.67
  229O :  4.63   22O :  4.62  214O :  4.62  550O :  4.60  523O :  4.58  100O :  4.53  346O :  4.50  712O :  4.49  220O :  4.44  754O :  4.37  394O :  4.37  403O :  4.29
  322O :  4.28  529O :  4.28  700O :  4.14  718O :  4.08  292O :  4.04  193O :  4.04  391O :  3.87  526O :  3.87  556O :  3.82  622O :  3.78  637O :  3.69  520O :  3.69
  613O :  3.62  571O :  3.57  244O :  3.50  235O :  3.49  415O :  3.47  307O :  3.44  559O :  3.36  355O :  3.36   67O :  3.34  493O :  3.34  706O :  3.33  148O :  3.32
  190O :  3.30  106O :  3.25  628O :  3.23  367O :  3.21  223O :  3.20  553O :  3.16  154O :  3.15  172O :  3.11  175O :  3.10  280O :  3.09  313O :  3.05  196O :  3.04
   28O :  3.01  319O :  2.99  310O :  2.95  484O :  2.93  376O :  2.88   46O :  2.87   37O :  2.82  418O :  2.81  448O :  2.80  202O :  2.80  265O :  2.76  490O :  2.73
  424O :  2.72  226O :  2.71   64O :  2.70  199O :  2.69   43O :  2.61  469O :  2.59  406O :  2.52   70O :  2.50  574O :  2.49  562O :  2.42  508O :  2.42  337O :  2.41
  289O :  2.38  694O :  2.36   85O :  2.33  595O :  2.32  655O :  2.31  739O :  2.29  724O :  2.27  349O :  2.24  631O :  2.18  511O :  2.15  604O :  2.13  682O :  2.13
  697O :  2.00  412O :  1.98  475O :  1.91  343O :  1.90  379O :  1.85  733O :  1.85  568O :  1.84  208O :  1.75   62H :  1.75  748O :  1.73  268O :  1.72    4O :  1.72
  104H :  1.71  277O :  1.68  283O :  1.67  460O :  1.65  262O :  1.65  370O :  1.63  649O :  1.61  544O :  1.59   50H :  1.56  397O :  1.54  436O :  1.50  430O :  1.45
  481O :  1.45   16O :  1.44   40O :  1.44  580O :  1.43  502O :  1.42  514O :  1.41  709O :  1.32  743H :  1.26  541O :  1.26  673O :  1.25  232O :  1.24  118O :  1.20
  487O :  1.19  643O :  1.18  117H :  1.18  532O :  1.17  187O :  1.17  634O :  1.17  736O :  1.17  457O :  1.14  389H :  1.12  727O :  1.10  591H :  1.09   87H :  1.08
  352O :  1.06  241O :  1.02  259O :  1.01  298O :  0.99  612H :  0.99  145O :  0.99  517O :  0.98   24H :  0.97  433O :  0.96  444H :  0.95   34O :  0.95  658O :  0.94
  276H :  0.94  171H :  0.93  625O :  0.93  329H :  0.92  331O :  0.91  608H :  0.87  385O :  0.85   51H :  0.84  661O :  0.81  271O :  0.81  640O :  0.81  209H :  0.80
  221H :  0.80  382O :  0.79  601O :  0.79  577O :  0.79  160O :  0.78   79O :  0.77  195H :  0.76  656H :  0.75  717H :  0.74  629H :  0.73   57H :  0.72  652O :  0.71
  565O :  0.70  219H :  0.69  496O :  0.68  730O :  0.67  142O :  0.65  155H :  0.65   15H :  0.64  134H :  0.64  404H :  0.63  585H :  0.62   95H :  0.61  201H :  0.61
   78H :  0.59  264H :  0.58  547O :  0.58  255H :  0.58  354H :  0.57  449H :  0.56  594H :  0.56  312H :  0.56  141H :  0.56  505O :  0.56  366H :  0.56  427O :  0.55
  250O :  0.55  691O :  0.55   93H :  0.55  372H :  0.54  679O :  0.53  474H :  0.53   52O :  0.53  127O :  0.51  321H :  0.51  324H :  0.50  402H :  0.50  564H :  0.49
  409O :  0.49  616O :  0.49  107H :  0.48  437H :  0.48   74H :  0.48  114H :  0.48  479H :  0.47  624H :  0.47  626H :  0.47  588H :  0.47  405H :  0.47  135H :  0.46
  747H :  0.46  480H :  0.46  751O :  0.45  452H :  0.45  350H :  0.45   99H :  0.45  323H :  0.44  131H :  0.44  183H :  0.43  485H :  0.42  177H :  0.42  110H :  0.42
  186H :  0.42  316O :  0.41  158H :  0.41  676O :  0.41  605H :  0.41   26H :  0.40   96H :  0.40  216H :  0.40  203H :  0.39  654H :  0.39  347H :  0.39  708H :  0.38
  413H :  0.38  258H :  0.38  686H :  0.38  393H :  0.37  650H :  0.37  156H :  0.37   98H :  0.37  194H :  0.37  206H :  0.37  489H :  0.36  723H :  0.36  185H :  0.36
  296H :  0.36  303H :  0.36  635H :  0.35  621H :  0.35    5H :  0.34  294H :  0.34  540H :  0.34   84H :  0.33  522H :  0.32  375H :  0.31   47H :  0.31  614H :  0.31
  453H :  0.31   66H :  0.31  575H :  0.31  609H :  0.30  207H :  0.30  401H :  0.30  491H :  0.30  240H :  0.30  210H :  0.29  468H :  0.28  126H :  0.28  440H :  0.28
  674H :  0.28  398H :  0.28  750H :  0.27  471H :  0.27  297H :  0.27  518H :  0.27  537H :  0.27  671H :  0.27  251H :  0.26  419H :  0.26  254H :  0.26  213H :  0.25
  720H :  0.25  462H :  0.25  215H :  0.25  543H :  0.25  492H :  0.25  345H :  0.24  341H :  0.24  147H :  0.24  702H :  0.24  287H :  0.24  533H :  0.24   21H :  0.24
  422H :  0.23  563H :  0.23  170H :  0.23  377H :  0.23  476H :  0.22  521H :  0.22  270H :  0.22  558H :  0.22  689H :  0.22   32H :  0.22  744H :  0.22  123H :  0.21
  528H :  0.21  690H :  0.21  191H :  0.21  247O :  0.21   41H :  0.21  136O :  0.21  309H :  0.20  246H :  0.20   33H :  0.20  113H :  0.20  572H :  0.19   29H :  0.19
  711H :  0.19    6H :  0.19  530H :  0.19  435H :  0.18  178O :  0.18  630H :  0.17  560H :  0.17  494H :  0.17  152H :  0.17  245H :  0.16  695H :  0.16  168H :  0.16
  632H :  0.16   77H :  0.16  510H :  0.16  456H :  0.16   17H :  0.16  552H :  0.16  362H :  0.15  447H :  0.15   39H :  0.15   11H :  0.15  306H :  0.15   72H :  0.15
  348H :  0.14  233H :  0.14  243H :  0.14  414H :  0.14  499O :  0.14  627H :  0.14  546H :  0.14  596H :  0.14  672H :  0.14    2H :  0.14  531H :  0.14  161H :  0.13
  582H :  0.13  257H :  0.13  369H :  0.13  222H :  0.13  443H :  0.13  756H :  0.13  164H :  0.13  696H :  0.13   30H :  0.13  483H :  0.13   75H :  0.12   56H :  0.12
  465H :  0.12  638H :  0.12  315H :  0.12  159H :  0.12  495H :  0.12  119H :  0.11   89H :  0.11  111H :  0.11  284H :  0.11  680H :  0.11  664O :  0.11  363H :  0.11
   44H :  0.11  423H :  0.11  746H :  0.11  726H :  0.11  542H :  0.11    9H :  0.11  731H :  0.11  285H :  0.11  567H :  0.10    3H :  0.10  569H :  0.10   42H :  0.10
  728H :  0.10  677H :  0.10  578H :  0.10  704H :  0.09  668H :  0.09  407H :  0.09  417H :  0.09  374H :  0.09  639H :  0.09  360H :  0.09  647H :  0.08  524H :  0.08
  383H :  0.08  438H :  0.08  305H :  0.08   27H :  0.08  687H :  0.08  470H :  0.08  339H :  0.08   80H :  0.08  507H :  0.07  378H :  0.07  732H :  0.07  641H :  0.07
  669H :  0.07  714H :  0.07   59H :  0.07   14H :  0.07  527H :  0.07
    6 LP   *******   0.00  60.91731 -47.61887 -39.91591  133O : 18.33  583O : 16.08   55O : 14.07  388O : 12.37   13O : 12.22   88O : 11.73  124O : 11.67  646O : 11.52  217O : 11.32  589O : 11.04   10O : 10.77  163O : 10.74
   73O : 10.61  619O : 10.25   61O :  9.80  358O :  9.76   76O :  9.73  442O :  9.33  598O :  9.18  256O :  9.18  166O :  8.99   94O :  8.53   97O :  8.52  742O :  8.44
  445O :  8.42  535O :  8.33   58O :  8.19    1O :  7.88  670O :  7.75   82O :  7.41  151O :  7.30   49O :  7.29  238O :  7.15  115O :  7.02   25O :  6.91  586O :  6.90
  685O :  6.69  667O :  6.67  745O :  6.61  478O :  6.55  295O :  6.52  169O :  6.38  253O :  6.31  373O :  6.27  103O :  6.17  364O :  5.86   31O :  5.86  607O :  5.77
  112O :  5.53  181O :  5.49  139O :  5.48    7O :  5.48  715O :  5.44  205O :  5.43  439O :  5.37  421O :  5.35  688O :  5.34  538O :  5.31  325O :  5.24  286O :  5.24
  211O :  5.19   19O :  5.18  610O :  5.16  340O :  5.10  334O :  5.08  592O :  5.06  703O :  4.97  361O :  4.96  301O :  4.95  451O :  4.94  130O :  4.90  400O :  4.88
   91O :  4.83  274O :  4.80  328O :  4.78  472O :  4.78  466O :  4.78  109O :  4.77  463O :  4.74  721O :  4.60  304O :  4.54  157O :  4.54  184O :  4.50  121O :  4.47
  550O :  4.46  229O :  4.43   22O :  4.42  214O :  4.42  523O :  4.38  100O :  4.33  346O :  4.30  712O :  4.30  220O :  4.24  754O :  4.18  394O :  4.18  403O :  4.10
  322O :  4.09  529O :  4.09  700O :  3.96  718O :  3.90  292O :  3.87  193O :  3.86  391O :  3.71  526O :  3.70  556O :  3.66  622O :  3.61  637O :  3.53  520O :  3.53
  613O :  3.47  571O :  3.41  244O :  3.34  235O :  3.33  415O :  3.32  307O :  3.29  355O :  3.21  559O :  3.21   67O :  3.19  493O :  3.19  706O :  3.19  148O :  3.17
  190O :  3.15  106O :  3.11  628O :  3.09  367O :  3.07  223O :  3.06  553O :  3.02  154O :  3.01  172O :  2.98  175O :  2.97  280O :  2.95  313O :  2.92  196O :  2.90
   28O :  2.88  319O :  2.86  310O :  2.82  484O :  2.80  376O :  2.76   46O :  2.75   37O :  2.70  418O :  2.70  448O :  2.68  202O :  2.68  265O :  2.64  490O :  2.62
   64O :  2.61  424O :  2.60  226O :  2.59  199O :  2.58   43O :  2.50  469O :  2.48  406O :  2.41   70O :  2.39  574O :  2.38  562O :  2.32  508O :  2.31  337O :  2.30
  289O :  2.28  694O :  2.26   85O :  2.23  595O :  2.21  655O :  2.21  739O :  2.19  724O :  2.17  349O :  2.14  631O :  2.09  511O :  2.06  604O :  2.04  682O :  2.04
  697O :  1.92  412O :  1.90  475O :  1.82  343O :  1.82  379O :  1.77  733O :  1.77  568O :  1.76  208O :  1.67   62H :  1.67  748O :  1.66  268O :  1.65  104H :  1.65
    4O :  1.65  277O :  1.61  283O :  1.59   50H :  1.59  460O :  1.58  262O :  1.57  370O :  1.56  649O :  1.54  544O :  1.52  397O :  1.48  436O :  1.43  430O :  1.39
  481O :  1.38   40O :  1.38   16O :  1.38  580O :  1.36  502O :  1.35  514O :  1.35  709O :  1.27  743H :  1.20  541O :  1.20  673O :  1.20  232O :  1.18  118O :  1.14
  487O :  1.14  643O :  1.13  117H :  1.13  187O :  1.12  532O :  1.12  634O :  1.12  736O :  1.12  389H :  1.09  457O :  1.09  727O :  1.05  591H :  1.04   87H :  1.03
  352O :  1.02  241O :  0.98  259O :  0.96  298O :  0.95  612H :  0.94  145O :  0.94  517O :  0.94   24H :  0.92  433O :  0.92  444H :  0.91   34O :  0.90  658O :  0.90
  276H :  0.90  171H :  0.89  625O :  0.89  329H :  0.88  331O :  0.87  608H :  0.83  385O :  0.82   51H :  0.80  271O :  0.78  661O :  0.78  640O :  0.77  209H :  0.76
  221H :  0.76  382O :  0.76  601O :  0.76  577O :  0.75  160O :  0.74   79O :  0.74  195H :  0.72  656H :  0.71  717H :  0.70  629H :  0.70   57H :  0.69  565O :  0.67
  652O :  0.67  219H :  0.66  496O :  0.65  730O :  0.64  142O :  0.62  155H :  0.62   15H :  0.61  134H :  0.61  404H :  0.60   95H :  0.59  201H :  0.58   78H :  0.56
  255H :  0.56  264H :  0.56  547O :  0.56  354H :  0.55  594H :  0.54  449H :  0.54  312H :  0.54  141H :  0.54  505O :  0.53  366H :  0.53  427O :  0.53  250O :  0.53
   93H :  0.52  691O :  0.52  372H :  0.52  679O :  0.51  474H :  0.51   52O :  0.51  585H :  0.51  127O :  0.49  321H :  0.48  324H :  0.48  402H :  0.48  564H :  0.47
  409O :  0.47  616O :  0.47  107H :  0.46  437H :  0.46   74H :  0.46  114H :  0.46  479H :  0.45  624H :  0.45  626H :  0.45  588H :  0.45  405H :  0.45  135H :  0.44
  747H :  0.44  480H :  0.44  751O :  0.43  452H :  0.43  350H :  0.43   99H :  0.43  323H :  0.42  131H :  0.42  183H :  0.41  485H :  0.41  177H :  0.40  110H :  0.40
  186H :  0.40  316O :  0.39  158H :  0.39  676O :  0.39  605H :  0.39   26H :  0.38   96H :  0.38  216H :  0.38  203H :  0.38  126H :  0.37  654H :  0.37  347H :  0.37
  708H :  0.37   98H :  0.36  258H :  0.36  413H :  0.36  686H :  0.36  393H :  0.36  650H :  0.35  156H :  0.35  194H :  0.35  206H :  0.35  489H :  0.35  723H :  0.35
  296H :  0.34  185H :  0.34  303H :  0.34  635H :  0.34  621H :  0.33  294H :  0.33  540H :  0.33    5H :  0.32   84H :  0.32  522H :  0.30  375H :  0.30   47H :  0.30
  614H :  0.30  453H :  0.30   66H :  0.30  575H :  0.29  609H :  0.29  207H :  0.29  401H :  0.29  491H :  0.29  240H :  0.28  210H :  0.27  468H :  0.27  440H :  0.27
  674H :  0.27  398H :  0.26  750H :  0.26  471H :  0.26  297H :  0.26  518H :  0.26  537H :  0.26  671H :  0.25  251H :  0.25  419H :  0.25  254H :  0.24  213H :  0.24
  720H :  0.24  462H :  0.24  543H :  0.24  215H :  0.24  492H :  0.23  345H :  0.23  341H :  0.23  147H :  0.23  702H :  0.23  287H :  0.23  533H :  0.23   21H :  0.23
  422H :  0.22  563H :  0.22  377H :  0.22  170H :  0.22  476H :  0.21  521H :  0.21  270H :  0.21  558H :  0.21  689H :  0.21   32H :  0.21  744H :  0.21  528H :  0.20
  123H :  0.20  690H :  0.20  191H :  0.20  247O :  0.20   41H :  0.20  552H :  0.20  136O :  0.20  309H :  0.19  246H :  0.19   33H :  0.19  113H :  0.19  572H :  0.19
   29H :  0.18  711H :  0.18    6H :  0.18  530H :  0.18  435H :  0.17  178O :  0.17  630H :  0.17  560H :  0.16  494H :  0.16  245H :  0.16  695H :  0.16  632H :  0.15
   77H :  0.15  456H :  0.15  152H :  0.15  510H :  0.15   17H :  0.15  362H :  0.15  447H :  0.15   39H :  0.15  306H :  0.14   11H :  0.14   72H :  0.14  348H :  0.14
  233H :  0.14  243H :  0.14  414H :  0.14  499O :  0.13  627H :  0.13  546H :  0.13  596H :  0.13  672H :  0.13    2H :  0.13  531H :  0.13  161H :  0.13  582H :  0.13
  257H :  0.13  369H :  0.13  222H :  0.13  443H :  0.13  756H :  0.12  164H :  0.12  696H :  0.12   30H :  0.12  483H :  0.12   75H :  0.12   56H :  0.12  465H :  0.11
  638H :  0.11  315H :  0.11  159H :  0.11  495H :  0.11  119H :  0.11   89H :  0.11  111H :  0.11  284H :  0.11  680H :  0.11   44H :  0.11  664O :  0.11  423H :  0.10
  363H :  0.10  746H :  0.10  726H :  0.10  542H :  0.10    9H :  0.10  731H :  0.10  285H :  0.10  567H :  0.10    3H :  0.10  569H :  0.10   42H :  0.10  728H :  0.10
  677H :  0.09  578H :  0.09  168H :  0.09  668H :  0.09  407H :  0.08  417H :  0.08  374H :  0.08  639H :  0.08  360H :  0.08  647H :  0.08  704H :  0.08  383H :  0.08
  438H :  0.08  305H :  0.08  524H :  0.08   27H :  0.07  687H :  0.07  470H :  0.07  339H :  0.07   80H :  0.07  507H :  0.07  378H :  0.07
    7 LP   *******   0.00  22.23167  -9.65229  39.11296  133O : 18.09   55O : 13.88   73O : 13.45  583O : 12.61  388O : 12.20   13O : 12.05   88O : 11.58  124O : 11.51  646O : 11.36  217O : 11.17  589O : 10.88   10O : 10.63
  163O : 10.60  619O : 10.11   61O :  9.67  358O :  9.63   76O :  9.60  442O :  9.21  598O :  9.06  256O :  9.05  166O :  8.87   94O :  8.41   97O :  8.41  742O :  8.33
  445O :  8.31  535O :  8.22   58O :  8.09    1O :  7.79  670O :  7.64  151O :  7.35   82O :  7.31   49O :  7.19  238O :  7.05  115O :  6.93   25O :  6.82  586O :  6.81
  685O :  6.60  667O :  6.58  745O :  6.52  478O :  6.46  295O :  6.43  169O :  6.30  253O :  6.22  373O :  6.18  103O :  6.09  364O :  5.78   31O :  5.78  607O :  5.68
  112O :  5.46  181O :  5.41  139O :  5.41    7O :  5.40  715O :  5.37  205O :  5.36  439O :  5.30  421O :  5.28  688O :  5.27  538O :  5.23  286O :  5.17  325O :  5.16
   19O :  5.11  610O :  5.09  211O :  5.05  340O :  5.04  334O :  5.01  592O :  4.96  361O :  4.89  301O :  4.89  451O :  4.88  703O :  4.86  130O :  4.83  400O :  4.82
   91O :  4.77  274O :  4.73  328O :  4.72  472O :  4.72  466O :  4.71  109O :  4.70  463O :  4.68  721O :  4.53  304O :  4.48  157O :  4.48  184O :  4.44  121O :  4.41
  229O :  4.37   22O :  4.36  214O :  4.36  550O :  4.34  523O :  4.32  100O :  4.28  346O :  4.24  712O :  4.24  220O :  4.18  754O :  4.13  394O :  4.12  403O :  4.04
  322O :  4.04  529O :  4.03  700O :  3.91  718O :  3.85  292O :  3.82  193O :  3.81  391O :  3.66  526O :  3.65  556O :  3.61  622O :  3.57  520O :  3.48  637O :  3.47
  613O :  3.42  571O :  3.37  244O :  3.30  235O :  3.29  415O :  3.27  307O :  3.25  355O :  3.17  559O :  3.17   67O :  3.15  493O :  3.15  706O :  3.14  148O :  3.13
  190O :  3.11  106O :  3.07  628O :  3.04  367O :  3.03  223O :  3.02  553O :  2.98  154O :  2.97  172O :  2.94  175O :  2.93  280O :  2.91  313O :  2.88  196O :  2.86
   28O :  2.84  319O :  2.82  310O :  2.79  484O :  2.77  376O :  2.72   46O :  2.71   37O :  2.66  418O :  2.66  448O :  2.65  202O :  2.64  265O :  2.61  490O :  2.58
   64O :  2.58  424O :  2.57  226O :  2.56  199O :  2.54   43O :  2.47  469O :  2.44  406O :  2.38   70O :  2.36  574O :  2.34  562O :  2.28  508O :  2.28  337O :  2.27
  289O :  2.25  694O :  2.23   85O :  2.20  595O :  2.18  655O :  2.18  739O :  2.16  724O :  2.14  349O :  2.11  631O :  2.06  511O :  2.03  604O :  2.01  682O :  2.01
  697O :  1.89  412O :  1.87  475O :  1.80  343O :  1.79  379O :  1.75  733O :  1.75  568O :  1.74  208O :  1.66   62H :  1.65  748O :  1.63  268O :  1.63  104H :  1.63
    4O :  1.62  277O :  1.59  283O :  1.57   50H :  1.57  460O :  1.55  262O :  1.55  370O :  1.54  649O :  1.52  436O :  1.52  544O :  1.50  397O :  1.46  430O :  1.37
  481O :  1.36   40O :  1.36   16O :  1.36  580O :  1.35  502O :  1.34  514O :  1.33  709O :  1.25  743H :  1.19  541O :  1.18  673O :  1.18  232O :  1.17  118O :  1.13
  487O :  1.12  643O :  1.11  117H :  1.11  187O :  1.11  532O :  1.11  634O :  1.10  736O :  1.10  389H :  1.07  457O :  1.07  591H :  1.04  727O :  1.03   87H :  1.02
  352O :  1.00  241O :  0.96  259O :  0.95  298O :  0.94  612H :  0.93  145O :  0.93  517O :  0.92   24H :  0.91  433O :  0.91  444H :  0.90   34O :  0.89  658O :  0.89
  276H :  0.89  171H :  0.88  625O :  0.88  329H :  0.86  331O :  0.86  608H :  0.82  385O :  0.81   51H :  0.79  271O :  0.77  661O :  0.77  640O :  0.76  209H :  0.75
  221H :  0.75  382O :  0.75  601O :  0.74  577O :  0.74  160O :  0.73   79O :  0.73  195H :  0.71  656H :  0.70  717H :  0.69  629H :  0.69   57H :  0.68  652O :  0.67
  565O :  0.66  219H :  0.65  496O :  0.64  730O :  0.63  142O :  0.62  155H :  0.62  437H :  0.60   15H :  0.60  134H :  0.60  404H :  0.59  585H :  0.59   95H :  0.58
  201H :  0.58   78H :  0.56  255H :  0.55  264H :  0.55  547O :  0.55  354H :  0.54  449H :  0.53  594H :  0.53  312H :  0.53  141H :  0.53  366H :  0.53  505O :  0.53
  427O :  0.52  250O :  0.52  691O :  0.52   93H :  0.52  372H :  0.51  679O :  0.50  474H :  0.50   52O :  0.49  127O :  0.48  321H :  0.48  324H :  0.47  402H :  0.47
  564H :  0.46  409O :  0.46  616O :  0.46  107H :  0.46  114H :  0.45  479H :  0.45  624H :  0.44  626H :  0.44  588H :  0.44  405H :  0.44  135H :  0.44  747H :  0.43
  480H :  0.43  751O :  0.43  452H :  0.43  350H :  0.42   99H :  0.42  323H :  0.42  131H :  0.41  183H :  0.41  485H :  0.40  177H :  0.40  110H :  0.40  186H :  0.40
  316O :  0.39  158H :  0.39  676O :  0.38  605H :  0.38   26H :  0.38   96H :  0.38  216H :  0.37  203H :  0.37  126H :  0.37  654H :  0.37   74H :  0.36  347H :  0.36
  708H :  0.36   98H :  0.36  258H :  0.36  413H :  0.36  686H :  0.36  393H :  0.35  650H :  0.35  156H :  0.35  194H :  0.35  206H :  0.34  489H :  0.34  723H :  0.34
  185H :  0.34  296H :  0.34  303H :  0.34  635H :  0.33  621H :  0.33  294H :  0.32  540H :  0.32    5H :  0.32   84H :  0.31  522H :  0.30  375H :  0.30   47H :  0.30
  614H :  0.30  453H :  0.30   66H :  0.29  575H :  0.29  609H :  0.29  207H :  0.28  401H :  0.28  491H :  0.28  240H :  0.28  210H :  0.27  468H :  0.26  440H :  0.26
  674H :  0.26  398H :  0.26  750H :  0.25  471H :  0.25  297H :  0.25  518H :  0.25  537H :  0.25  671H :  0.25  251H :  0.25  419H :  0.24  254H :  0.24  720H :  0.23
  462H :  0.23  543H :  0.23  213H :  0.23  215H :  0.23  492H :  0.23  345H :  0.23  341H :  0.23  147H :  0.23  702H :  0.23  287H :  0.23  533H :  0.23   21H :  0.22
  422H :  0.22  563H :  0.22  377H :  0.22  170H :  0.22  476H :  0.21  521H :  0.21  270H :  0.21  558H :  0.21  689H :  0.21   32H :  0.21  744H :  0.20  528H :  0.20
  123H :  0.20  690H :  0.20  191H :  0.20  247O :  0.20   41H :  0.20  136O :  0.20  309H :  0.19  246H :  0.19   33H :  0.19  113H :  0.18  572H :  0.18   29H :  0.18
  711H :  0.18    6H :  0.18  530H :  0.18  435H :  0.17  178O :  0.17  630H :  0.16  560H :  0.16  494H :  0.16  152H :  0.16  245H :  0.15  695H :  0.15  632H :  0.15
   77H :  0.15  456H :  0.15  510H :  0.15   17H :  0.15  552H :  0.15  362H :  0.15  447H :  0.15   39H :  0.14   11H :  0.14  306H :  0.14   72H :  0.14  348H :  0.14
  233H :  0.14  243H :  0.13  414H :  0.13  499O :  0.13  627H :  0.13  546H :  0.13  596H :  0.13  672H :  0.13    2H :  0.13  531H :  0.13  161H :  0.13  582H :  0.13
  257H :  0.13  369H :  0.13  222H :  0.12  443H :  0.12  756H :  0.12  164H :  0.12  696H :  0.12   30H :  0.12  483H :  0.12   56H :  0.12  465H :  0.11  638H :  0.11
  315H :  0.11  159H :  0.11  495H :  0.11  119H :  0.11   89H :  0.11  111H :  0.11  284H :  0.10  680H :  0.10   44H :  0.10  664O :  0.10  423H :  0.10  363H :  0.10
  746H :  0.10  726H :  0.10  542H :  0.10    9H :  0.10  731H :  0.10  285H :  0.10  567H :  0.10    3H :  0.10  569H :  0.10   42H :  0.10  728H :  0.10  677H :  0.09
  578H :  0.09  168H :  0.09  704H :  0.09  668H :  0.09  407H :  0.08  417H :  0.08   75H :  0.08  374H :  0.08  639H :  0.08  360H :  0.08  647H :  0.08  524H :  0.08
  383H :  0.08  438H :  0.08  305H :  0.08   27H :  0.07  687H :  0.07  470H :  0.07  339H :  0.07   80H :  0.07  507H :  0.07  378H :  0.07
    8 LP   *******   0.00  -6.70223   1.78705 -10.28918  133O : 16.24   55O : 12.58  583O : 11.44   10O : 11.28  388O : 11.05   13O : 11.01   88O : 10.50  124O : 10.43  646O : 10.30  217O : 10.13  589O :  9.87  163O :  9.62
   73O :  9.49  619O :  9.17   61O :  8.77  358O :  8.73   76O :  8.71  442O :  8.35  598O :  8.21  256O :  8.21  166O :  8.05   97O :  7.63   94O :  7.56  742O :  7.55
  445O :  7.53  535O :  7.45   58O :  7.33    1O :  7.06  670O :  6.93  151O :  6.67   82O :  6.63   49O :  6.52  238O :  6.39  115O :  6.28   25O :  6.19  586O :  6.18
  685O :  5.99  667O :  5.97  745O :  5.91  478O :  5.86  295O :  5.83  169O :  5.71  253O :  5.64  373O :  5.61  103O :  5.52  364O :  5.24   31O :  5.24  607O :  5.15
  112O :  5.04  181O :  4.92  139O :  4.91    7O :  4.90  715O :  4.87  205O :  4.86  439O :  4.81  421O :  4.79  688O :  4.78  538O :  4.75  325O :  4.69  286O :  4.68
  211O :  4.64   19O :  4.63  610O :  4.62  340O :  4.57  334O :  4.55  592O :  4.50  361O :  4.44  301O :  4.43  451O :  4.42  703O :  4.41  130O :  4.38  400O :  4.37
   91O :  4.32  274O :  4.29  466O :  4.28  328O :  4.28  472O :  4.27  109O :  4.27  463O :  4.24  721O :  4.11  304O :  4.06  157O :  4.06  184O :  4.03  121O :  4.00
  229O :  3.97  214O :  3.95   22O :  3.95  550O :  3.94  523O :  3.92  100O :  3.88  346O :  3.87  712O :  3.85  220O :  3.79  754O :  3.74  394O :  3.74  403O :  3.67
  529O :  3.66  322O :  3.66  700O :  3.54  718O :  3.49  292O :  3.46  193O :  3.45  391O :  3.31  526O :  3.31  556O :  3.27  622O :  3.23  637O :  3.16  520O :  3.15
  613O :  3.10  571O :  3.05  244O :  2.99  235O :  2.98  415O :  2.97  307O :  2.94  355O :  2.87  559O :  2.87   67O :  2.86  493O :  2.86  706O :  2.85  148O :  2.84
  190O :  2.82  106O :  2.79  628O :  2.76  367O :  2.74  223O :  2.74  553O :  2.70  154O :  2.70  172O :  2.66  175O :  2.65  280O :  2.64  313O :  2.61  310O :  2.61
  196O :  2.60   28O :  2.57  319O :  2.56  484O :  2.51  376O :  2.46   46O :  2.46   37O :  2.41  418O :  2.41  448O :  2.40  202O :  2.40  265O :  2.36  490O :  2.34
   64O :  2.34  424O :  2.33  226O :  2.32  199O :  2.30   43O :  2.23  469O :  2.22  406O :  2.16   70O :  2.14  574O :  2.13  562O :  2.07  508O :  2.07  337O :  2.05
  289O :  2.04  694O :  2.02   85O :  1.99  595O :  1.98  655O :  1.98  739O :  1.96  724O :  1.94  349O :  1.93  631O :  1.87  511O :  1.84  604O :  1.82  682O :  1.82
  697O :  1.71  412O :  1.70  475O :  1.63  343O :  1.62  379O :  1.59  733O :  1.58  568O :  1.58  208O :  1.50   62H :  1.50  748O :  1.48  104H :  1.47    4O :  1.47
  268O :  1.47  277O :  1.44  283O :  1.43   50H :  1.42  460O :  1.41  262O :  1.41  370O :  1.39  649O :  1.38  544O :  1.36  397O :  1.32  436O :  1.28  430O :  1.24
  481O :  1.24   40O :  1.23   16O :  1.23  580O :  1.22  502O :  1.21  514O :  1.21  709O :  1.13  743H :  1.08  541O :  1.07  673O :  1.07  232O :  1.06  118O :  1.02
  487O :  1.02  643O :  1.01  117H :  1.01  187O :  1.00  532O :  1.00  634O :  1.00  736O :  1.00  457O :  0.97  389H :  0.97  727O :  0.94  591H :  0.93   87H :  0.92
  352O :  0.91  241O :  0.87  259O :  0.86  298O :  0.85  612H :  0.85  145O :  0.84  517O :  0.84   24H :  0.83  433O :  0.82  444H :  0.81   34O :  0.81  658O :  0.81
  276H :  0.80  171H :  0.80  625O :  0.80  329H :  0.78  331O :  0.78  608H :  0.75  385O :  0.73   51H :  0.72  271O :  0.70   79O :  0.69  640O :  0.69  209H :  0.68
  221H :  0.68  382O :  0.68  601O :  0.68  577O :  0.67  160O :  0.66  195H :  0.65  656H :  0.64  717H :  0.63  629H :  0.63   57H :  0.61  652O :  0.61  661O :  0.61
  565O :  0.60  219H :  0.59  496O :  0.58  730O :  0.58  142O :  0.56  155H :  0.56  134H :  0.55   15H :  0.54  404H :  0.54  585H :  0.53  201H :  0.52   95H :  0.52
   78H :  0.51  312H :  0.50  264H :  0.50  255H :  0.50  547O :  0.50  354H :  0.49  449H :  0.48  594H :  0.48  141H :  0.48  366H :  0.48  505O :  0.48  427O :  0.47
  250O :  0.47  691O :  0.47   93H :  0.47  372H :  0.46  679O :  0.46  474H :  0.45   52O :  0.45  127O :  0.44  321H :  0.43  324H :  0.43  402H :  0.43  564H :  0.42
  409O :  0.42  616O :  0.42  107H :  0.41  114H :  0.41  437H :  0.41   74H :  0.41  135H :  0.41  479H :  0.41  624H :  0.40  626H :  0.40  588H :  0.40  405H :  0.40
  747H :  0.39  480H :  0.39  350H :  0.39  751O :  0.39  452H :  0.39   99H :  0.38  323H :  0.38  131H :  0.37  183H :  0.37  485H :  0.36  177H :  0.36  110H :  0.36
  186H :  0.36  316O :  0.35  158H :  0.35  676O :  0.35  605H :  0.35   26H :  0.34  216H :  0.34  203H :  0.34  126H :  0.33  347H :  0.33  654H :  0.33   96H :  0.33
  708H :  0.33   98H :  0.33  258H :  0.33  413H :  0.32  686H :  0.32  393H :  0.32  650H :  0.32  156H :  0.31  194H :  0.31  206H :  0.31  489H :  0.31  723H :  0.31
  185H :  0.31  296H :  0.31  303H :  0.31  635H :  0.30  621H :  0.30  294H :  0.29  540H :  0.29    5H :  0.29   84H :  0.28  522H :  0.27  375H :  0.27   47H :  0.27
  614H :  0.27  453H :  0.27   66H :  0.27  575H :  0.26  609H :  0.26  491H :  0.26  401H :  0.26  207H :  0.26  240H :  0.25  210H :  0.25  468H :  0.24  440H :  0.24
  674H :  0.24  398H :  0.24  750H :  0.23  471H :  0.23  297H :  0.23  518H :  0.23  537H :  0.23  671H :  0.23  251H :  0.23  419H :  0.22  254H :  0.22  213H :  0.21
  720H :  0.21  462H :  0.21  543H :  0.21  215H :  0.21  492H :  0.21  341H :  0.21  147H :  0.21  345H :  0.21  702H :  0.21  287H :  0.21  533H :  0.20   21H :  0.20
  422H :  0.20  563H :  0.20  377H :  0.20  170H :  0.20  476H :  0.19  521H :  0.19  270H :  0.19  558H :  0.19  689H :  0.19   32H :  0.19  744H :  0.18  528H :  0.18
  123H :  0.18  690H :  0.18  191H :  0.18   41H :  0.18  136O :  0.18  309H :  0.17  246H :  0.17  247O :  0.17   33H :  0.17  113H :  0.17  572H :  0.17   29H :  0.16
  711H :  0.16    6H :  0.16  530H :  0.16  435H :  0.16  178O :  0.15  630H :  0.15  560H :  0.15  494H :  0.14  152H :  0.14  245H :  0.14  695H :  0.14  632H :  0.14
   77H :  0.14  456H :  0.14  510H :  0.14   17H :  0.13  552H :  0.13  362H :  0.13  447H :  0.13   39H :  0.13  306H :  0.13  348H :  0.13   72H :  0.12  233H :  0.12
  243H :  0.12  414H :  0.12  499O :  0.12  627H :  0.12  546H :  0.12  596H :  0.12  672H :  0.12    2H :  0.12  531H :  0.12  161H :  0.12  582H :  0.12  257H :  0.11
  369H :  0.11  222H :  0.11  443H :  0.11  756H :  0.11  164H :  0.11  696H :  0.11   30H :  0.11  483H :  0.11   75H :  0.11   56H :  0.11  465H :  0.10  638H :  0.10
  315H :  0.10  159H :  0.10  495H :  0.10  119H :  0.10   89H :  0.10  111H :  0.10  284H :  0.10  680H :  0.10  664O :  0.09  363H :  0.09  423H :  0.09   44H :  0.09
  746H :  0.09  726H :  0.09  542H :  0.09    9H :  0.09  731H :  0.09  285H :  0.09  567H :  0.09   42H :  0.09    3H :  0.09  569H :  0.09  728H :  0.09  677H :  0.08
  578H :  0.08  168H :  0.08  704H :  0.08  668H :  0.08  407H :  0.08  417H :  0.08   11H :  0.07   80H :  0.07  374H :  0.07  639H :  0.07  360H :  0.07  647H :  0.07
  524H :  0.07  383H :  0.07  438H :  0.07
    9 LP   *******   0.00  24.89517 -40.82100  20.00243  133O : 15.86   55O : 12.19  583O : 11.06  388O : 10.70   13O : 10.56   88O : 10.15  124O : 10.09  358O : 10.08  646O :  9.96  217O :  9.79  589O :  9.54   10O :  9.32
  163O :  9.29   73O :  9.18  619O :  8.87   61O :  8.47   76O :  8.42  442O :  8.08  598O :  7.94  256O :  7.94  166O :  7.78   94O :  7.38   97O :  7.37  742O :  7.30
  445O :  7.28  535O :  7.20   58O :  7.09    1O :  6.83  670O :  6.70  151O :  6.45   82O :  6.41   49O :  6.30  238O :  6.18  115O :  6.07  586O :  5.98   25O :  5.98
  685O :  5.79  667O :  5.77  745O :  5.71  478O :  5.66  295O :  5.63  169O :  5.53  253O :  5.45  373O :  5.42  103O :  5.34  364O :  5.07   31O :  5.07  607O :  4.98
  112O :  4.78  181O :  4.78  139O :  4.74    7O :  4.74  715O :  4.71  205O :  4.70  439O :  4.65  421O :  4.63  688O :  4.62  538O :  4.59  286O :  4.53  325O :  4.53
  211O :  4.49   19O :  4.48  610O :  4.46  340O :  4.41  334O :  4.40  592O :  4.35  361O :  4.29  301O :  4.28  451O :  4.27  703O :  4.26  130O :  4.24  400O :  4.22
   91O :  4.18  274O :  4.15  328O :  4.14  472O :  4.13  466O :  4.13  109O :  4.12  463O :  4.10  721O :  3.97  304O :  3.93  157O :  3.92  184O :  3.89  121O :  3.89
  229O :  3.83   22O :  3.82  214O :  3.82  550O :  3.81  523O :  3.79  100O :  3.75  712O :  3.72  346O :  3.72  220O :  3.67  754O :  3.62  394O :  3.62  403O :  3.54
  322O :  3.54  529O :  3.54  700O :  3.43  718O :  3.38  292O :  3.35  193O :  3.34  391O :  3.20  526O :  3.20  556O :  3.16  622O :  3.13  637O :  3.05  520O :  3.05
  613O :  3.00  571O :  2.95  244O :  2.89  235O :  2.88  415O :  2.87  307O :  2.84  355O :  2.78  559O :  2.78   67O :  2.76  493O :  2.76  706O :  2.75  148O :  2.75
  190O :  2.73  106O :  2.69  628O :  2.67  367O :  2.65  223O :  2.65  553O :  2.61  154O :  2.61  280O :  2.58  172O :  2.58  175O :  2.57  313O :  2.52  196O :  2.51
   28O :  2.49  319O :  2.47  310O :  2.44  484O :  2.43  376O :  2.38   46O :  2.37   37O :  2.34  418O :  2.33  448O :  2.32  202O :  2.32  265O :  2.29  490O :  2.26
   64O :  2.26  424O :  2.25  226O :  2.24  199O :  2.23   43O :  2.16  469O :  2.14  406O :  2.08   70O :  2.07  574O :  2.06  562O :  2.00  508O :  2.00  337O :  1.99
  289O :  1.97  694O :  1.95   85O :  1.93  595O :  1.91  655O :  1.91  739O :  1.89  724O :  1.87  349O :  1.85  631O :  1.80  511O :  1.78  604O :  1.76  682O :  1.76
  697O :  1.66  412O :  1.64  475O :  1.58  343O :  1.57  379O :  1.53  733O :  1.53  568O :  1.53  208O :  1.46   62H :  1.45  748O :  1.43  268O :  1.43  104H :  1.42
    4O :  1.42  277O :  1.39  283O :  1.38   50H :  1.37  460O :  1.36  262O :  1.36  370O :  1.35  649O :  1.33  544O :  1.32  397O :  1.28  436O :  1.24  430O :  1.20
  481O :  1.20   40O :  1.19   16O :  1.19  580O :  1.18  502O :  1.17  514O :  1.17  709O :  1.10  743H :  1.04  541O :  1.04  673O :  1.04  232O :  1.02  118O :  0.98
  487O :  0.98  643O :  0.98  117H :  0.97  187O :  0.97  532O :  0.97  634O :  0.97  736O :  0.97  389H :  0.94  457O :  0.94  727O :  0.91  591H :  0.90   87H :  0.89
  352O :  0.88  241O :  0.84  259O :  0.83  298O :  0.82  612H :  0.82  145O :  0.81  517O :  0.81   24H :  0.80  433O :  0.79  444H :  0.79   34O :  0.78  658O :  0.78
  276H :  0.78  171H :  0.77  625O :  0.77  329H :  0.76  608H :  0.72  385O :  0.71   51H :  0.69  271O :  0.67  661O :  0.67  640O :  0.67  221H :  0.66  382O :  0.65
  601O :  0.65  209H :  0.65  577O :  0.65  160O :  0.64   79O :  0.64  331O :  0.63  195H :  0.63  656H :  0.62  717H :  0.61  629H :  0.61  652O :  0.59  565O :  0.58
  219H :  0.57  496O :  0.56  730O :  0.56  155H :  0.54  142O :  0.53   15H :  0.53  134H :  0.53  404H :  0.52   57H :  0.52  585H :  0.52   95H :  0.51  201H :  0.51
   78H :  0.49  255H :  0.48  264H :  0.48  547O :  0.48  354H :  0.48  449H :  0.47  594H :  0.47  312H :  0.47  141H :  0.46  366H :  0.46  505O :  0.46  427O :  0.46
  250O :  0.46  691O :  0.45   93H :  0.45  372H :  0.45  679O :  0.44  474H :  0.44   52O :  0.43  127O :  0.42  321H :  0.42  324H :  0.42  402H :  0.42  564H :  0.40
  409O :  0.40  616O :  0.40  107H :  0.40  437H :  0.40   74H :  0.39  114H :  0.39  479H :  0.39  624H :  0.39  626H :  0.39  588H :  0.39  405H :  0.39  135H :  0.38
  747H :  0.38  480H :  0.38  751O :  0.38  452H :  0.37  350H :  0.37   99H :  0.37  323H :  0.37  131H :  0.36  183H :  0.35  485H :  0.35  177H :  0.35  110H :  0.35
  186H :  0.35  316O :  0.34  158H :  0.34  676O :  0.34  605H :  0.34   26H :  0.33   96H :  0.33  216H :  0.33  203H :  0.33  126H :  0.32  654H :  0.32  347H :  0.32
  708H :  0.32   98H :  0.32  258H :  0.31  413H :  0.31  686H :  0.31  393H :  0.31  650H :  0.31  156H :  0.30  194H :  0.30  206H :  0.30  489H :  0.30  723H :  0.30
  185H :  0.30  296H :  0.30  303H :  0.30  635H :  0.29  621H :  0.29  294H :  0.28  540H :  0.28    5H :  0.28   84H :  0.27  522H :  0.26  375H :  0.26   47H :  0.26
  614H :  0.26  453H :  0.26   66H :  0.26  575H :  0.25  609H :  0.25  207H :  0.25  401H :  0.25  491H :  0.25  240H :  0.25  210H :  0.23  468H :  0.23  440H :  0.23
  674H :  0.23  398H :  0.23  750H :  0.22  471H :  0.22  297H :  0.22  518H :  0.22  537H :  0.22  671H :  0.22  251H :  0.22  419H :  0.21  254H :  0.21  213H :  0.21
  720H :  0.20  462H :  0.20  543H :  0.20  215H :  0.20  492H :  0.20  345H :  0.20  341H :  0.20  147H :  0.20  702H :  0.20  287H :  0.20  533H :  0.20   21H :  0.20
  422H :  0.19  563H :  0.19  377H :  0.19  170H :  0.19  476H :  0.18  521H :  0.18  270H :  0.18  558H :  0.18  689H :  0.18  123H :  0.18   32H :  0.18  744H :  0.18
  528H :  0.17  690H :  0.17  191H :  0.17  247O :  0.17   41H :  0.17  136O :  0.17  309H :  0.17  246H :  0.17   33H :  0.17  113H :  0.16  572H :  0.16   29H :  0.16
  711H :  0.16    6H :  0.16  530H :  0.15  435H :  0.15  178O :  0.15  630H :  0.14  560H :  0.14  494H :  0.14  152H :  0.14  245H :  0.14  695H :  0.13  632H :  0.13
   77H :  0.13  456H :  0.13  333H :  0.13  510H :  0.13   17H :  0.13  552H :  0.13  362H :  0.13  447H :  0.13   39H :  0.13   11H :  0.12  306H :  0.12   72H :  0.12
  348H :  0.12  233H :  0.12  243H :  0.12  414H :  0.12  499O :  0.12  627H :  0.12  546H :  0.12  596H :  0.12  672H :  0.11    2H :  0.11  531H :  0.11  161H :  0.11
  582H :  0.11  257H :  0.11  369H :  0.11  222H :  0.11  443H :  0.11  756H :  0.11  164H :  0.11  696H :  0.11   30H :  0.11  483H :  0.11   75H :  0.10   56H :  0.10
  465H :  0.10  638H :  0.10  315H :  0.10  159H :  0.10  495H :  0.10  119H :  0.10   89H :  0.09  111H :  0.09  284H :  0.09  680H :  0.09  664O :  0.09   44H :  0.09
  363H :  0.09  423H :  0.09  746H :  0.09  726H :  0.09  542H :  0.09    9H :  0.09  731H :  0.09  285H :  0.09  567H :  0.09    3H :  0.08  569H :  0.08   42H :  0.08
  728H :  0.08  677H :  0.08  578H :  0.08  168H :  0.08  704H :  0.08  668H :  0.08  407H :  0.07  417H :  0.07  374H :  0.07  639H :  0.07
[...]
   370   8 o    1.849 --   371 h    0.866   372 h    0.816
   371   1 h    0.897 --   370 o    0.866
   372   1 h    0.874 --   370 o    0.816
   373   8 o    1.868 --   375 h    0.877   374 h    0.847
   374   1 h    0.888 --   373 o    0.847
   375   1 h    0.897 --   373 o    0.877
   376   8 o    1.839 --   378 h    0.834   377 h    0.802
   377   1 h    0.874 --   376 o    0.802
   378   1 h    0.893 --   376 o    0.834
   379   8 o    1.865 --   381 h    0.821   380 h    0.801
   380   1 h    0.875 --   379 o    0.801
   381   1 h    0.886 --   379 o    0.821
   382   8 o    1.866 --   383 h    0.829   384 h    0.797
   383   1 h    0.881 --   382 o    0.829
   384   1 h    0.877 --   382 o    0.797
   385   8 o    1.840 --   387 h    0.882   386 h    0.810
   386   1 h    0.883 --   385 o    0.810
   387   1 h    0.907 --   385 o    0.882
   388   8 o    1.855 --   390 h    0.850   389 h    0.811
   389   1 h    0.876 --   388 o    0.811
   390   1 h    0.887 --   388 o    0.850
   391   8 o    1.839 --   393 h    0.890   392 h    0.799
   392   1 h    0.872 --   391 o    0.799
   393   1 h    0.908 --   391 o    0.890
   394   8 o    1.841 --   396 h    0.911   395 h    0.811
   395   1 h    0.881 --   394 o    0.811
   396   1 h    0.917 --   394 o    0.911
   397   8 o    1.861 --   398 h    0.864   399 h    0.853
   398   1 h    0.894 --   397 o    0.864
   399   1 h    0.893 --   397 o    0.853
   400   8 o    1.862 --   402 h    0.869   401 h    0.813
   401   1 h    0.885 --   400 o    0.813
   402   1 h    0.898 --   400 o    0.869
   403   8 o    1.860 --   405 h    0.828   404 h    0.809
   404   1 h    0.888 --   403 o    0.809
   405   1 h    0.880 --   403 o    0.828
   406   8 o    1.891 --   407 h    0.839   408 h    0.805
   407   1 h    0.889 --   406 o    0.839
   408   1 h    0.869 --   406 o    0.805
   409   8 o    1.821 --   410 h    0.848   411 h    0.791
   410   1 h    0.892 --   409 o    0.848
   411   1 h    0.872 --   409 o    0.791
   412   8 o    1.873 --   413 h    0.811   414 h    0.809
   413   1 h    0.877 --   412 o    0.811
   414   1 h    0.875 --   412 o    0.809
   415   8 o    1.850 --   417 h    0.917   416 h    0.770
   416   1 h    0.871 --   415 o    0.770
   417   1 h    0.921 --   415 o    0.917
   418   8 o    1.879 --   420 h    0.884   419 h    0.791
   419   1 h    0.879 --   418 o    0.791
   420   1 h    0.898 --   418 o    0.884
   421   8 o    1.838 --   423 h    0.829   422 h    0.826
   422   1 h    0.882 --   421 o    0.826
   423   1 h    0.890 --   421 o    0.829
   424   8 o    1.852 --   425 h    0.917   426 h    0.812
   425   1 h    0.921 --   424 o    0.917
   426   1 h    0.877 --   424 o    0.812
   427   8 o    1.874 --   428 h    0.813   429 h    0.801
   428   1 h    0.882 --   427 o    0.813
   429   1 h    0.879 --   427 o    0.801
   430   8 o    1.835 --   431 h    0.879   432 h    0.836
   431   1 h    0.898 --   430 o    0.879
   432   1 h    0.885 --   430 o    0.836
   433   8 o    1.860 --   434 h    0.865   435 h    0.814
   434   1 h    0.898 --   433 o    0.865
   435   1 h    0.887 --   433 o    0.814
   436   8 o    1.850 --   437 h    0.853   438 h    0.815
   437   1 h    0.892 --   436 o    0.853
   438   1 h    0.886 --   436 o    0.815
   439   8 o    1.844 --   441 h    0.861   440 h    0.842
   440   1 h    0.895 --   439 o    0.842
   441   1 h    0.896 --   439 o    0.861
   442   8 o    1.872 --   444 h    0.827   443 h    0.789
   443   1 h    0.875 --   442 o    0.789
   444   1 h    0.887 --   442 o    0.827
   445   8 o    1.885 --   446 h    0.816   447 h    0.794
   446   1 h    0.891 --   445 o    0.816
   447   1 h    0.882 --   445 o    0.794
   448   8 o    1.862 --   449 h    0.844   450 h    0.843
   449   1 h    0.888 --   448 o    0.844
   450   1 h    0.888 --   448 o    0.843
   451   8 o    1.864 --   452 h    0.840   453 h    0.824
   452   1 h    0.886 --   451 o    0.840
   453   1 h    0.876 --   451 o    0.824
   454   8 o    1.869 --   455 h    0.832   456 h    0.826
   455   1 h    0.887 --   454 o    0.832
   456   1 h    0.877 --   454 o    0.826
   457   8 o    1.856 --   458 h    0.829   459 h    0.805
   458   1 h    0.892 --   457 o    0.829
   459   1 h    0.875 --   457 o    0.805
   460   8 o    1.857 --   462 h    0.829   461 h    0.765
   461   1 h    0.870 --   460 o    0.765
   462   1 h    0.885 --   460 o    0.829
   463   8 o    1.843 --   464 h    0.915   465 h    0.813
   464   1 h    0.920 --   463 o    0.915
   465   1 h    0.870 --   463 o    0.813
   466   8 o    1.874 --   467 h    0.860   468 h    0.848
   467   1 h    0.890 --   466 o    0.860
   468   1 h    0.887 --   466 o    0.848
   469   8 o    1.844 --   471 h    0.864   470 h    0.767
   470   1 h    0.871 --   469 o    0.767
   471   1 h    0.902 --   469 o    0.864
   472   8 o    1.864 --   474 h    0.886   473 h    0.804
   473   1 h    0.884 --   472 o    0.804
   474   1 h    0.900 --   472 o    0.886
   475   8 o    1.839 --   476 h    0.811   477 h    0.805
   476   1 h    0.881 --   475 o    0.811
   477   1 h    0.882 --   475 o    0.805
   478   8 o    1.892 --   479 h    0.843   480 h    0.814
   479   1 h    0.888 --   478 o    0.843
   480   1 h    0.889 --   478 o    0.814
   481   8 o    1.847 --   483 h    0.871   482 h    0.855
   482   1 h    0.890 --   481 o    0.855
   483   1 h    0.895 --   481 o    0.871
   484   8 o    1.820 --   485 h    0.897   486 h    0.824
   485   1 h    0.909 --   484 o    0.897
   486   1 h    0.890 --   484 o    0.824
   487   8 o    1.866 --   489 h    0.851   488 h    0.832
   488   1 h    0.886 --   487 o    0.832
   489   1 h    0.891 --   487 o    0.851
   490   8 o    1.816 --   492 h    0.847   491 h    0.824
   491   1 h    0.888 --   490 o    0.824
   492   1 h    0.894 --   490 o    0.847
   493   8 o    1.840 --   495 h    0.870   494 h    0.770
   494   1 h    0.875 --   493 o    0.770
   495   1 h    0.901 --   493 o    0.870
   496   8 o    1.872 --   497 h    0.915   498 h    0.823
   497   1 h    0.917 --   496 o    0.915
   498   1 h    0.878 --   496 o    0.823
   499   8 o    1.873 --   501 h    0.864   500 h    0.820
   500   1 h    0.882 --   499 o    0.820
   501   1 h    0.892 --   499 o    0.864
   502   8 o    1.864 --   504 h    0.851   503 h    0.844
   503   1 h    0.893 --   502 o    0.844
   504   1 h    0.893 --   502 o    0.851
   505   8 o    1.837 --   507 h    0.886   506 h    0.860
   506   1 h    0.893 --   505 o    0.860
   507   1 h    0.904 --   505 o    0.886
   508   8 o    1.856 --   509 h    0.837   510 h    0.798
   509   1 h    0.888 --   508 o    0.837
   510   1 h    0.874 --   508 o    0.798
   511   8 o    1.868 --   512 h    0.913   513 h    0.826
   512   1 h    0.917 --   511 o    0.913
   513   1 h    0.878 --   511 o    0.826
   514   8 o    1.858 --   515 h    0.850   516 h    0.838
   515   1 h    0.890 --   514 o    0.850
   516   1 h    0.890 --   514 o    0.838
   517   8 o    1.846 --   519 h    0.888   518 h    0.791
   518   1 h    0.877 --   517 o    0.791
   519   1 h    0.906 --   517 o    0.888
   520   8 o    1.821 --   521 h    0.849   522 h    0.841
   521   1 h    0.898 --   520 o    0.849
   522   1 h    0.893 --   520 o    0.841
   523   8 o    1.844 --   525 h    0.873   524 h    0.837
   524   1 h    0.890 --   523 o    0.837
   525   1 h    0.902 --   523 o    0.873
   526   8 o    1.828 --   527 h    0.851   528 h    0.832
   527   1 h    0.889 --   526 o    0.851
   528   1 h    0.886 --   526 o    0.832
   529   8 o    1.876 --   531 h    0.904   530 h    0.795
   530   1 h    0.867 --   529 o    0.795
   531   1 h    0.911 --   529 o    0.904
   532   8 o    1.823 --   533 h    0.851   534 h    0.823
   533   1 h    0.897 --   532 o    0.851
   534   1 h    0.877 --   532 o    0.823
   535   8 o    1.809 --   537 h    0.877   536 h    0.815
   536   1 h    0.886 --   535 o    0.815
   537   1 h    0.903 --   535 o    0.877
   538   8 o    1.810 --   539 h    0.865   540 h    0.822
   539   1 h    0.897 --   538 o    0.865
   540   1 h    0.886 --   538 o    0.822
   541   8 o    1.832 --   543 h    0.869   542 h    0.842
   542   1 h    0.888 --   541 o    0.842
   543   1 h    0.895 --   541 o    0.869
   544   8 o    1.844 --   546 h    0.916   545 h    0.785
   545   1 h    0.882 --   544 o    0.785
   546   1 h    0.922 --   544 o    0.916
   547   8 o    1.860 --   548 h    0.837   549 h    0.812
   548   1 h    0.896 --   547 o    0.837
   549   1 h    0.877 --   547 o    0.812
   550   8 o    1.861 --   552 h    0.878   551 h    0.815
   551   1 h    0.879 --   550 o    0.815
   552   1 h    0.901 --   550 o    0.878
   553   8 o    1.846 --   555 h    0.871   554 h    0.856
   554   1 h    0.889 --   553 o    0.856
   555   1 h    0.897 --   553 o    0.871
   556   8 o    1.861 --   558 h    0.829   557 h    0.818
   557   1 h    0.886 --   556 o    0.818
   558   1 h    0.892 --   556 o    0.829
   559   8 o    1.830 --   560 h    0.840   561 h    0.827
   560   1 h    0.888 --   559 o    0.840
   561   1 h    0.889 --   559 o    0.827
   562   8 o    1.852 --   563 h    0.832   564 h    0.819
   563   1 h    0.891 --   562 o    0.832
   564   1 h    0.877 --   562 o    0.819
   565   8 o    1.871 --   567 h    0.840   566 h    0.822
   566   1 h    0.879 --   565 o    0.822
   567   1 h    0.888 --   565 o    0.840
   568   8 o    1.854 --   570 h    0.860   569 h    0.856
   569   1 h    0.894 --   568 o    0.856
   570   1 h    0.889 --   568 o    0.860
   571   8 o    1.832 --   572 h    0.827   573 h    0.804
   572   1 h    0.892 --   571 o    0.827
   573   1 h    0.877 --   571 o    0.804
   574   8 o    1.845 --   576 h    0.844   575 h    0.797
   575   1 h    0.881 --   574 o    0.797
   576   1 h    0.896 --   574 o    0.844
   577   8 o    1.838 --   578 h    0.885   579 h    0.828
   578   1 h    0.904 --   577 o    0.885
   579   1 h    0.887 --   577 o    0.828
   580   8 o    1.846 --   582 h    0.851   581 h    0.808
   581   1 h    0.877 --   580 o    0.808
   582   1 h    0.895 --   580 o    0.851
   583   8 o    1.830 --   584 h    0.891   585 h    0.806
   584   1 h    0.906 --   583 o    0.891
   585   1 h    0.875 --   583 o    0.806
   586   8 o    1.830 --   587 h    0.869   588 h    0.846
   587   1 h    0.900 --   586 o    0.869
   588   1 h    0.886 --   586 o    0.846
   589   8 o    1.811 --   591 h    0.842   590 h    0.816
   590   1 h    0.883 --   589 o    0.816
   591   1 h    0.901 --   589 o    0.842
   592   8 o    1.847 --   594 h    0.866   593 h    0.851
   593   1 h    0.893 --   592 o    0.851
   594   1 h    0.892 --   592 o    0.866
   595   8 o    1.830 --   596 h    0.883   597 h    0.851
   596   1 h    0.905 --   595 o    0.883
   597   1 h    0.894 --   595 o    0.851
   598   8 o    1.846 --   600 h    0.857   599 h    0.816
   599   1 h    0.883 --   598 o    0.816
   600   1 h    0.897 --   598 o    0.857
   601   8 o    1.837 --   603 h    0.870   602 h    0.816
   602   1 h    0.886 --   601 o    0.816
   603   1 h    0.899 --   601 o    0.870
   604   8 o    1.880 --   606 h    0.891   605 h    0.804
   605   1 h    0.878 --   604 o    0.804
   606   1 h    0.903 --   604 o    0.891
   607   8 o    1.866 --   608 h    0.856   609 h    0.813
   608   1 h    0.893 --   607 o    0.856
   609   1 h    0.883 --   607 o    0.813
   610   8 o    1.851 --   611 h    0.883   612 h    0.832
   611   1 h    0.901 --   610 o    0.883
   612   1 h    0.875 --   610 o    0.832
   613   8 o    1.823 --   614 h    0.884   615 h    0.810
   614   1 h    0.904 --   613 o    0.884
   615   1 h    0.876 --   613 o    0.810
   616   8 o    1.844 --   617 h    0.912   618 h    0.819
   617   1 h    0.917 --   616 o    0.912
   618   1 h    0.874 --   616 o    0.819
   619   8 o    1.845 --   620 h    0.833   621 h    0.800
   620   1 h    0.891 --   619 o    0.833
   621   1 h    0.884 --   619 o    0.800
   622   8 o    1.852 --   624 h    0.851   623 h    0.844
   623   1 h    0.894 --   622 o    0.844
   624   1 h    0.898 --   622 o    0.851
   625   8 o    1.828 --   627 h    0.844   626 h    0.827
   626   1 h    0.881 --   625 o    0.827
   627   1 h    0.893 --   625 o    0.844
   628   8 o    1.849 --   629 h    0.821   630 h    0.809
   629   1 h    0.881 --   628 o    0.821
   630   1 h    0.879 --   628 o    0.809
   631   8 o    1.903 --   632 h    0.826   633 h    0.787
   632   1 h    0.880 --   631 o    0.826
   633   1 h    0.866 --   631 o    0.787
   634   8 o    1.852 --   636 h    0.855   635 h    0.832
   635   1 h    0.893 --   634 o    0.832
   636   1 h    0.894 --   634 o    0.855
   637   8 o    1.846 --   638 h    0.850   639 h    0.800
   638   1 h    0.894 --   637 o    0.850
   639   1 h    0.878 --   637 o    0.800
   640   8 o    1.853 --   642 h    0.823   641 h    0.803
   641   1 h    0.881 --   640 o    0.803
   642   1 h    0.891 --   640 o    0.823
   643   8 o    1.862 --   645 h    0.884   644 h    0.863
   644   1 h    0.894 --   643 o    0.863
   645   1 h    0.903 --   643 o    0.884
   646   8 o    1.830 --   648 h    0.873   647 h    0.794
   647   1 h    0.882 --   646 o    0.794
   648   1 h    0.904 --   646 o    0.873
   649   8 o    1.854 --   650 h    0.909   651 h    0.758
   650   1 h    0.918 --   649 o    0.909
   651   1 h    0.873 --   649 o    0.758   238 o    0.112
   652   8 o    1.884 --   653 h    0.852   654 h    0.837
   653   1 h    0.881 --   652 o    0.852
   654   1 h    0.881 --   652 o    0.837
   655   8 o    1.853 --   656 h    0.849   657 h    0.804
   656   1 h    0.883 --   655 o    0.849
   657   1 h    0.877 --   655 o    0.804
   658   8 o    1.844 --   660 h    0.919   659 h    0.805
   659   1 h    0.881 --   658 o    0.805
   660   1 h    0.924 --   658 o    0.919
   661   8 o    1.869 --   662 h    0.830   663 h    0.813
   662   1 h    0.877 --   661 o    0.830
   663   1 h    0.882 --   661 o    0.813
   664   8 o    1.832 --   665 h    0.879   666 h    0.817
   665   1 h    0.904 --   664 o    0.879
   666   1 h    0.884 --   664 o    0.817
   667   8 o    1.809 --   668 h    0.863   669 h    0.799
   668   1 h    0.902 --   667 o    0.863
   669   1 h    0.877 --   667 o    0.799
   670   8 o    1.890 --   671 h    0.825   672 h    0.799
   671   1 h    0.885 --   670 o    0.825
   672   1 h    0.873 --   670 o    0.799
   673   8 o    1.842 --   674 h    0.891   675 h    0.757
   674   1 h    0.909 --   673 o    0.891
   675   1 h    0.869 --   673 o    0.757   724 o    0.105
   676   8 o    1.851 --   678 h    0.863   677 h    0.809
   677   1 h    0.885 --   676 o    0.809
   678   1 h    0.895 --   676 o    0.863
   679   8 o    1.856 --   680 h    0.849   681 h    0.817
   680   1 h    0.896 --   679 o    0.849
   681   1 h    0.888 --   679 o    0.817
   682   8 o    1.842 --   684 h    0.831   683 h    0.804
   683   1 h    0.878 --   682 o    0.804
   684   1 h    0.885 --   682 o    0.831
   685   8 o    1.857 --   687 h    0.879   686 h    0.802
   686   1 h    0.871 --   685 o    0.802
   687   1 h    0.903 --   685 o    0.879
   688   8 o    1.811 --   689 h    0.846   690 h    0.837
   689   1 h    0.895 --   688 o    0.846
   690   1 h    0.897 --   688 o    0.837
   691   8 o    1.827 --   692 h    0.858   693 h    0.833
   692   1 h    0.899 --   691 o    0.858
   693   1 h    0.887 --   691 o    0.833
   694   8 o    1.842 --   696 h    0.865   695 h    0.852
   695   1 h    0.895 --   694 o    0.852
   696   1 h    0.896 --   694 o    0.865
   697   8 o    1.840 --   699 h    0.857   698 h    0.825
   698   1 h    0.878 --   697 o    0.825
   699   1 h    0.896 --   697 o    0.857
   700   8 o    1.804 --   701 h    0.873   702 h    0.785
   701   1 h    0.905 --   700 o    0.873
   702   1 h    0.877 --   700 o    0.785
   703   8 o    1.835 --   704 h    0.821   705 h    0.796
   704   1 h    0.886 --   703 o    0.821
   705   1 h    0.871 --   703 o    0.796
   706   8 o    1.845 --   708 h    0.850   707 h    0.839
   707   1 h    0.883 --   706 o    0.839
   708   1 h    0.888 --   706 o    0.850
   709   8 o    1.842 --   711 h    0.873   710 h    0.809
   710   1 h    0.888 --   709 o    0.809
   711   1 h    0.903 --   709 o    0.873
   712   8 o    1.853 --   713 h    0.859   714 h    0.808
   713   1 h    0.895 --   712 o    0.859
   714   1 h    0.865 --   712 o    0.808
   715   8 o    1.829 --   717 h    0.840   716 h    0.817
   716   1 h    0.888 --   715 o    0.817
   717   1 h    0.895 --   715 o    0.840
   718   8 o    1.858 --   719 h    0.899   720 h    0.821
   719   1 h    0.910 --   718 o    0.899
   720   1 h    0.884 --   718 o    0.821
   721   8 o    1.840 --   723 h    0.828   722 h    0.823
   722   1 h    0.884 --   721 o    0.823
   723   1 h    0.886 --   721 o    0.828
   724   8 o    1.909 --   726 h    0.834   725 h    0.783   675 h    0.105
   725   1 h    0.866 --   724 o    0.783
   726   1 h    0.886 --   724 o    0.834
   727   8 o    1.841 --   729 h    0.918   728 h    0.827
   728   1 h    0.890 --   727 o    0.827
   729   1 h    0.921 --   727 o    0.918
   730   8 o    1.838 --   731 h    0.850   732 h    0.838
   731   1 h    0.899 --   730 o    0.850
   732   1 h    0.893 --   730 o    0.838
   733   8 o    1.812 --   735 h    0.880   734 h    0.831
   734   1 h    0.887 --   733 o    0.831
   735   1 h    0.902 --   733 o    0.880
   736   8 o    1.834 --   738 h    0.912   737 h    0.824
   737   1 h    0.886 --   736 o    0.824
   738   1 h    0.916 --   736 o    0.912
   739   8 o    1.867 --   740 h    0.819   741 h    0.794
   740   1 h    0.892 --   739 o    0.819
   741   1 h    0.874 --   739 o    0.794
   742   8 o    1.866 --   743 h    0.872   744 h    0.839
   743   1 h    0.895 --   742 o    0.872
   744   1 h    0.876 --   742 o    0.839
   745   8 o    1.889 --   746 h    0.823   747 h    0.807
   746   1 h    0.882 --   745 o    0.823
   747   1 h    0.869 --   745 o    0.807
   748   8 o    1.847 --   749 h    0.811   750 h    0.805
   749   1 h    0.886 --   748 o    0.811
   750   1 h    0.870 --   748 o    0.805
   751   8 o    1.849 --   753 h    0.868   752 h    0.849
   752   1 h    0.875 --   751 o    0.849
   753   1 h    0.885 --   751 o    0.868
   754   8 o    1.788 --   755 h    0.868   756 h    0.855
   755   1 h    0.895 --   754 o    0.868
   756   1 h    0.892 --   754 o    0.855
 ---------------------------------------------------------------------------

Topologies differ in total number of bonds
Writing topology from bond orders to xtbtopo.mol

molecular dipole:
                 x           y           z       tot (Debye)
 q only:        0.533       2.062      -1.950
   full:        0.797       2.253      -3.481      10.732
molecular quadrupole (traceless):
                xx          xy          yy          xz          yz          zz
 q only:      134.330       6.353     -75.844      56.855      17.538     -58.486
  q+dip:      197.277      40.107    -113.577      72.532      44.427     -83.701
   full:      199.678      42.852    -114.640      73.375      46.956     -85.039


           -------------------------------------------------
          | TOTAL ENERGY            -1283.314888219749 Eh   |
          | GRADIENT NORM               0.104090845373 Eh/α |
          | HOMO-LUMO GAP               5.828649138069 eV   |
           -------------------------------------------------

------------------------------------------------------------------------
 * finished run on 2022/11/24 at 12:22:35.673     
------------------------------------------------------------------------
 total:
 * wall-time:     0 d,  0 h,  0 min, 54.838 sec
 *  cpu-time:     0 d,  0 h,  1 min,  9.654 sec
 * ratio c/w:     1.270 speedup
 SCF:
 * wall-time:     0 d,  0 h,  0 min, 53.842 sec
 *  cpu-time:     0 d,  0 h,  1 min,  7.959 sec
 * ratio c/w:     1.262 speedup

