756
 energy: -1283.306861850676 gnorm: 0.028081708113 xtb: 6.5.1 (579679a)
o            5.64699093928882       -7.44736028295567       -0.32696905436501
h            4.89836727204384       -7.84921054857314       -0.79897200447354
h            5.24291028317820       -7.01681270180053        0.44552447836540
o           -1.22915453426276        3.70040956868685        6.81519652340615
h           -1.48683138185611        3.41445883261628        5.89302556866263
h           -0.90286242473506        4.59663481483789        6.73318783631445
o           -0.07119571209454       -1.88101511258514       -2.43633088096442
h            0.57280956705640       -1.48632957700267       -1.82003927964208
h           -0.56178070267946       -2.53667903985442       -1.90672099699988
o           -5.80450761227485        2.27092098991061        0.33946801830495
h           -4.84772646844209        2.29636884604990        0.53886651100541
h           -5.95657317206686        2.95701910665619       -0.33515596190544
o           -3.16666158950622        2.15385500897148        0.99192628317212
h           -2.82291231579839        2.91040786818073        1.50167596867878
h           -2.70106606390289        2.21770861354777        0.14646654381126
o           -3.68080214810603       -5.25844603813682       -0.16167974269995
h           -4.48750366376253       -5.14540226932460       -0.69029906355611
h           -3.63215280711940       -4.45245101051454        0.39674281749139
o           -0.76548161688062       -4.59233239453684       -3.81608968265464
h           -0.86955970172506       -5.42850998095898       -4.29609294902118
h            0.11691830635266       -4.62493906071148       -3.38068616175012
o           -0.69159320233587       -5.25914182107217        0.67086895155859
h           -1.00491644766695       -5.58716507603908        1.53839452337249
h           -0.84596641421364       -5.94496527124346        0.00981386588955
o           -1.59108571888369       -3.22156488241267       -0.73384201381644
h           -1.43004250432469       -4.01831236059256       -0.19353165744452
h           -2.53939702810208       -3.18495611990911       -0.98712398211761
o            1.16963329008480        2.46173426940762       -4.90222332318589
h            1.28753266334649        2.94515747965693       -5.73312851309714
h            0.83239695457242        1.58807900456251       -5.17252672490797
o           -3.71507232032636       -0.98608401511424       -3.53858290510065
h           -4.40127579226251       -0.50838248663359       -4.05873457404233
h           -2.98882667860531       -0.34785370732705       -3.40529650606673
o           -1.20315058137521        3.05793917899329       -3.79353512534673
h           -0.34969033215685        2.90218610264361       -4.23579484971545
h           -1.88884654315817        2.66762116980603       -4.34776006742736
o           -3.96222523489635       -2.89986141895915       -1.73567890486871
h           -3.96318344380737       -3.68631320959495       -2.32252073302343
h           -3.94503339639143       -2.12862936771218       -2.33321896533054
o           -4.29647841828549        1.93560501672044       -2.75487901441043
h           -3.80120131173547        2.09291000172598       -3.56958556982424
h           -4.17412738013681        2.71950165449251       -2.18905264630602
o           -1.58685937557608        2.65298995106339       -1.18235463500446
h           -1.40581240437293        2.74320883409294       -2.13916804283422
h           -0.75581649407735        2.81653809548992       -0.69312249489438
o           -1.33540384350503        0.23239886233896       -3.42849290571475
h           -1.04240211278904        0.31911998319287       -4.35189667414362
h           -0.93771182510160       -0.60242331590915       -3.09811173106628
o           -1.47462787068825       -0.65386271073655        3.24130207248168
h           -0.97188798523113        0.16319696625930        3.34944292864836
h           -2.41470214697091       -0.39007453011005        3.21399893581452
o           -2.70586973345730       -2.08898086419051        7.60784257396697
h           -3.56085468573419       -1.63671869075009        7.47290684738584
h           -2.92931162132706       -3.00340499755274        7.79299558758860
o           -1.41038943324834       -6.29591939228319        3.00231686225408
h           -2.38076018281995       -6.27829666951818        3.06251893406851
h           -1.09244127114645       -5.65889344748456        3.66222293512984
o           -2.64405954669203        0.50489146315773        5.60608660978365
h           -2.92870137948356        0.83239592787285        6.47725730625887
h           -3.08113757624136       -0.34804963640914        5.42626810316685
o           -3.82689520925184       -3.04523309527239        1.26413579881731
h           -3.29094528677594       -3.27052848297018        2.07118110104190
h           -3.65482497501601       -2.12776898519176        1.01037827126007
o            4.00172533913182        1.26065019184063        2.38516878461122
h            3.80306989806234        1.36996192079896        3.31927352584749
h            4.00865449748890        2.15205420583887        1.97262217628585
o            1.07677807759984       -3.49503393134102       -0.32535576421451
h            1.91937896362549       -3.53980239168761        0.17821689586561
h            0.46929462746043       -4.04040987674263        0.20072420617733
o           -1.61334641221852        5.34916294392042       -2.13889559065965
h           -0.95209735036731        4.77025484422966       -2.54935218547853
h           -1.72693289778035        6.11720342096389       -2.72444289093431
o           -1.31113219365724        0.04319697739237        8.60186420694423
h           -1.99416715988721        0.72797562286033        8.56061876697094
h           -1.77359177855161       -0.76969511858981        8.33656162185842
o           -3.95968360553196        0.34774499423719        3.01184310457007
h           -3.90724357259761        1.32082121695827        2.94175726007258
h           -4.71789500448734        0.05869400435435        2.45646334609645
o           -8.05619081177004        1.29568736118986       -1.26887388447763
h           -7.22097334755945        0.80710076551931       -1.41877332417019
h           -7.89100624429538        1.94829139494301       -0.57192555683860
o            2.88717466583622        2.17608336710959       -0.71571753799808
h            3.44947975326757        2.69510524595618       -0.10779759689882
h            3.38160203736482        1.35788162141982       -0.89250704029599
o           -1.88707389702265       -2.40028258310873       -4.77475569371213
h           -1.50843932615132       -3.16147825818726       -4.29785651935742
h           -2.68083898157969       -2.11156178759526       -4.28269328166405
o            2.86096248946810       -2.57464201443224       -2.31956272309799
h            2.18182492207654       -2.78371446783517       -1.66367891774871
h            2.71309319468702       -1.64214907354646       -2.57099440697093
o           -3.86406725340300       -4.99034167441069       -3.35307541021146
h           -3.44641035195199       -4.91571335133434       -4.22527541149157
h           -4.72673274436743       -5.38326555545623       -3.53981834268581
o           -5.72301292193557       -0.07482424665818       -1.67612771649394
h           -5.22647833230265        0.59164975310831       -2.18030723931731
h           -5.16759368346586       -0.26802289003372       -0.90762962749298
o            1.55973820209212        2.63056147844411        4.62171299471092
h            1.45319717917673        3.08345933502579        5.47008392930178
h            2.28007762176089        3.12120100962391        4.16473175200865
o            4.97711975033743       -4.00362893875514        3.05961833933756
h            5.16863265296965       -4.28362238797799        3.98125634593062
h            4.40499467221736       -3.21939626801368        3.12305808695183
o            1.60549758524685        0.07965384330983        1.93099271464796
h            2.47437351893475        0.51736966229981        1.94150032827319
h            0.93769394570333        0.75183816284668        2.15273207587586
o            3.64720656122290        3.87731278947454        3.67531304301516
h            3.53566616297110        4.84033294422820        3.75040515044819
h            4.54694705834785        3.69602367189365        3.99245703609161
o           -3.58047326941411        4.41793688541659       -3.87442312424218
h           -2.95334746149735        4.65007510997975       -3.17113527839154
h           -3.08362035901071        4.55822919220113       -4.69608611581080
o           -6.45781548786289        4.26031176174063       -1.43312682683844
h           -7.28685975644635        4.70971128044685       -1.19187846782104
h           -6.61606349258107        3.78592431725311       -2.26634527763499
o            1.35081780647485       -1.39938777976896        4.07187729372293
h            0.86877498529780       -0.78176226847037        4.65524016540066
h            1.55807003594681       -0.89230030321493        3.25221552236910
o           -2.43064694199196       -3.68892457735227        3.30767983562299
h           -1.50696709248806       -3.48180678476811        3.04100672236420
h           -2.71933230160860       -3.01541120083924        3.94601757089999
o            0.04346854096728       -3.15994611142945        2.56034869635821
h            0.42924140007639       -2.50840481917775        3.17722013022704
h            0.64936927675352       -3.91563435551870        2.60624064430089
o           -0.17438225612147        1.90768422191077        2.72468524381181
h            0.01692025403016        2.49129589976463        1.96441323444772
h            0.42475993419217        2.19920104926460        3.44410926996590
o            0.76759013668520       -1.75424323604662       -7.93443825306622
h            1.38165093591455       -2.49989086676772       -7.79952457468321
h            1.30366135444988       -0.95698160921400       -7.78320119299731
o            2.92942888381611       -3.21944862220920        5.08988974407491
h            3.72767479295703       -2.82614698089846        5.45898256533179
h            2.37770458110351       -2.48139225018379        4.73519415168285
o           -6.93604699859385        2.48445987249925        2.82657008055908
h           -7.59195558074089        3.14314706728786        3.09601189396115
h           -6.78168310941516        2.55923428826195        1.86950902465223
o           -7.32817299961362        5.52799386762894        1.58420745722204
h           -7.09263000256668        5.62160779174376        2.53034973614148
h           -7.06370639865028        6.38198333089846        1.16313127988823
o           -7.97905202502692       -2.65577568410503        2.08626369414238
h           -8.40500987020762       -3.34291059495451        2.63079396782248
h           -8.63631924134773       -1.97303569904760        1.84627076770861
o            1.28672870202098       -7.24395071002763        4.00702218043998
h            0.46655560761435       -6.93710983729510        4.40899826774606
h            1.02447041765264       -7.71642408039305        3.20153394117106
o            5.48270192903112       -4.83259336484606        5.51091679641341
h            5.39772533951488       -4.08795628893135        6.12694651285966
h            4.73234016574714       -5.43336689440820        5.69061163274172
o            0.79242444268096        1.39058681858558       -2.26795211848586
h            0.88093042996977        2.34939361623036       -2.35970663007352
h           -0.05730520258366        1.14041098149598       -2.68027476673178
o            4.02306654665156       -5.31160112210550       -2.39249515543111
h            4.48878407354386       -5.06768204033560       -1.57070351767464
h            3.08079106027300       -5.06503891288082       -2.30489416085881
o           -8.30824005848597        5.32494082046737       -3.68725301780729
h           -7.37458646740733        5.23225333696699       -4.00887342596833
h           -8.78893251098856        5.75718280096551       -4.39145217787409
o            6.66282231984274        1.67946020158474        2.72263163340212
h            7.30886463680505        0.97435059620284        2.53241704164999
h            5.79895739288996        1.32097650614392        2.43904439921249
o            1.29150239987829        3.08240367672377       -7.55838490015523
h            1.57481224779370        2.16759374559725       -7.74206499271400
h            0.31684948420357        3.06195405172069       -7.59779976079857
o           -8.37671009253336       -1.51553337129328       -1.22141248518094
h           -8.83798763153763       -1.19890914886889       -0.42938876386279
h           -7.45629626372663       -1.67523589327678       -0.91186030880009
o           -2.01736221843507        2.90746222095414        4.47194760430608
h           -2.44697866187661        2.07978874194344        4.74011996912577
h           -1.40227676410107        2.65944444656467        3.76147904172077
o            3.26344541982700       -3.71582283595692        0.98510559090456
h            4.02357595330444       -4.21844622802479        0.63133865032618
h            2.90660080973386       -4.18846187780664        1.75875219722834
o           -2.67426459458936       -7.57583669473611        0.79278970424718
h           -3.05085750145037       -6.71797879522562        0.51182648561429
h           -3.41666372441183       -8.08787075923122        1.11529877522560
o            2.45101285560219       -0.20533819854924       -3.58920004830452
h            1.90981501521279        0.45359040071702       -3.09448996190257
h            1.82750622234936       -0.72259412685966       -4.14374231195581
o            2.33844244144615        0.52700550810612       -7.61385322160898
h            2.80111025612147        0.69297503340757       -6.75126665163742
h            3.04178944849193        0.43761195849959       -8.25943320021410
o           -0.99787558091983       -2.27661043968269        5.44285511482776
h           -1.75071387547415       -2.18422882905376        6.04926657246698
h           -1.15228470709445       -1.67485210961229        4.68962891111006
o            0.26411044149651       -5.65771309309408       -6.66516329702582
h           -0.26968368417956       -4.85119856201984       -6.81273393653477
h           -0.33322563588440       -6.33219061291775       -6.32473091060992
o            1.66448908347381       -0.67468240820509       -0.73070661730696
h            1.62426930200508        0.25351191958000       -0.98563168345577
h            2.44751491102658       -0.78131691851196       -0.15144442774928
o           -1.70776030465907       -6.04348071940364       -1.72974433191928
h           -2.47853177114898       -5.68642856983011       -1.24670477983427
h           -1.50455872231172       -5.38991465393949       -2.42095212689135
o            3.29658297145268       -6.38902516114499        5.82947510425863
h            2.70861356890279       -6.84071527713862        5.21140461960118
h            2.71791078094007       -5.91336013207600        6.44038399748033
o           -4.22115052777406       -2.55687083728098       -7.46609323561785
h           -4.63494944898285       -2.95989361968971       -6.66595151045241
h           -3.44599140339077       -3.08948605926673       -7.66934121666121
o           -6.10485598590915       -4.81335613783080       -1.34118289386885
h           -6.38498351031977       -4.52351612132152       -0.45612132448247
h           -6.12472434606612       -3.99454275179805       -1.88591837183011
o           -2.91326267981597       -0.49613160707048       -6.47212380333555
h           -2.36964101415141       -0.98028945475159       -5.83279591905038
h           -3.51983643403987       -1.16878267366369       -6.84832567743241
o          -10.11615083115321        5.46951241365465        1.60792892282119
h           -9.19538059007952        5.74483761221087        1.46036081221203
h          -10.44477527426437        5.26760108168763        0.72049708995449
o            1.54605431906162       -4.50363087206639        6.92989767416446
h            2.08484929157357       -3.99285516935451        6.27908947034443
h            1.18614253175296       -3.83378245231284        7.52249074468515
o           -3.19790479530773        1.92818479000858        7.83385162219812
h           -2.62610221345792        2.67762976767722        7.61477762002325
h           -4.11169334822930        2.20406624581304        7.59604472136149
o            4.60762666541792        0.32574253077844       -1.57854121154733
h            4.86193762152354        0.40136415676284       -2.50351343893139
h            4.81928644598074       -0.59573963972907       -1.31718370829580
o            4.26574887763649        3.50538136688114        1.07445921151501
h            5.19926252592789        3.76276727290162        1.11477781957432
h            3.71743413670750        4.24409063264598        1.40769070559857
o           -5.52321533667234        0.31326975503601       -4.88640226935407
h           -5.70304348068832       -0.01895991374104       -5.77923805441943
h           -6.32849308826116        0.14408697863226       -4.36399352432162
o            4.40122988426671       -6.41051793865112        1.98654426529400
h            4.62627948238740       -5.51711851783817        2.32675629143040
h            4.40360387274660       -6.99509982411502        2.74394638632489
o           -1.44554208768674        2.76424265614161       -7.44736223745582
h           -1.95099695589249        2.46926980910857       -6.66262231046145
h           -1.41873710827356        1.99595252862135       -8.03265687815364
o            4.71832130534782       -1.75043668969989       -4.59769092093972
h            4.64417784282669       -1.94473633437287       -5.55277446353006
h            3.91070485407633       -1.29830841624671       -4.33439765136716
o           -8.80385066850446       -4.87489311392163        3.40275275160285
h           -8.68598160574027       -5.53106459314382        2.67593196533475
h           -9.74767259733937       -4.76079631420717        3.53228676238506
o           -9.64740749994170       -0.80895824994749        1.12448932217297
h          -10.57859378634891       -0.94417703820196        1.38083731208993
h           -9.45192288447860        0.08692711543531        1.47396992394941
o           -8.42314028712604       -4.00611631052439       -0.16702435620421
h           -8.46615786453469       -3.27485814596811       -0.81346772642875
h           -8.03747489420653       -3.57597986293135        0.63503956338278
o           -8.48995989482626        5.99474205662546       -1.00922489026713
h           -8.10636097471577        6.85219166737392       -0.81200287856485
h           -8.61068698352586        5.94140364567385       -1.96985422464257
o           -4.97079196592454        6.50241100242558       -1.33336694219438
h           -4.92752323633896        6.97581443910436       -2.19949273603752
h           -5.52513950159371        5.70265275772461       -1.45966236437676
o           -3.77803919788482        4.02261824769334       -1.00409957044284
h           -2.84961035662170        3.70275611486898       -1.03428764994164
h           -3.77105883113213        4.91452870534420       -1.36497421506150
o            0.34742480926693        5.81045568022319        5.22323597600342
h            0.98518277209770        5.34102654667551        5.79309889183324
h            0.80435517347430        6.57748251846047        4.85017827561490
o            0.47921623013964        4.60331157271810        2.73471139958177
h            1.26554086268683        4.96496310086548        2.29809415768979
h            0.46264671197717        4.95099049616155        3.63645683232021
o            0.73211318137695        5.25412802483760       -5.76188853772870
h            1.05267391553607        4.97441078688854       -6.62108243331562
h            1.50943196935954        5.44892611586464       -5.21329668452552
o            3.85457909968358        3.68335310286936       -6.36698894728920
h            3.60038744616687        4.35946794914140       -5.69818264033938
h            3.12010297222581        3.61074817770564       -6.98482847756796
o            6.23653109549308        2.22855544534099       -0.66425974087178
h            5.62145022045810        1.48098227239893       -0.79635776221608
h            6.92806195793457        1.91760562169020       -0.06397064796481
o            3.08523429956128        5.27970562256420       -4.39224381050038
h            3.83023898064160        5.83682343707685       -4.10043651707380
h            3.17813304454226        4.44800073442774       -3.86038726354447
o           -2.09316130230272        7.13658590608878       -4.18024884686857
h           -2.14531096076437        6.53690538692486       -4.93938473373849
h           -1.17474237371084        7.43079083619296       -4.13873407842044
o           -6.00915236468874       -4.62935235600244        1.45920431901943
h           -5.35637120205186       -3.90853986027712        1.37274668964056
h           -6.20399852461149       -4.68392203683951        2.40502821536843
o            0.75741071832961       -7.69041706780551       -2.69142535559726
h            1.62866188169737       -7.98575783630502       -2.35514222279692
h            0.09686875161276       -8.04299572469465       -2.05798003936688
o            7.86072937790476       -3.18571774543847       -0.59678656863175
h            7.72474767032075       -2.32164310790496       -1.03997310821415
h            8.31128725230310       -3.78513422462617       -1.21456014091672
o            2.10556588955195       -4.85086363255109        3.08926564798725
h            2.44848716833681       -4.36686611255506        3.85906204506737
h            1.84826286472360       -5.73692813494469        3.39825749141974
o            5.46046092899444        8.15376991231724       -1.52439393297142
h            5.44192564271425        7.58370098730654       -2.31754359788493
h            6.25493877748508        7.85227013588935       -1.05457102575976
o           -5.08482362274480       -0.82215322932314        7.31540593839789
h           -5.83385274605244       -1.40928680945071        7.11603274899529
h           -5.37834328361333       -0.20454514732268        7.98721700726957
o           -7.95712848106082       -2.20714079052791       -5.65194240552940
h           -8.56740318384170       -2.84473109587441       -5.25362015258431
h           -7.89449324447236       -1.50243546160863       -4.95937544178386
o           -4.78782631409949        7.59977644231519       -3.70588035537933
h           -5.18358627908183        6.92719301541554       -4.27898007700885
h           -3.83422277527190        7.59503260305499       -3.88289768525626
o           -5.88652172386583        5.24169814109044       -4.73711037430464
h           -5.10968642623831        4.90836580491632       -4.22678236675133
h           -5.87321126310048        4.67740765194393       -5.52178941980434
o            3.18620927989306        0.59643413356440        5.00222988190770
h            2.99926693313689       -0.02618535537044        5.74477825451637
h            2.40439801782685        1.18503210605600        4.91829596839478
o           -6.40890899170035       -2.61397648598268       -2.87580922049090
h           -6.14844880526521       -1.74418295377962       -2.52985719698733
h           -5.91649743808493       -2.75983780285015       -3.70145394659023
o            2.38698041414282       -3.86240516915752       -7.36102759466531
h            2.58634991054626       -3.85600004395165       -6.40546976421954
h            1.87181907263809       -4.66102984266312       -7.50681503203978
o            1.36348637239988       -5.05799735673380       -2.37185338044647
h            1.18891638279609       -4.54880165537561       -1.53918839459883
h            1.07549387421906       -5.97492427226397       -2.22792249849995
o           -4.72612017912429        4.78444183291374        1.35727048167637
h           -5.68672172070249        4.86604865234212        1.24921456110163
h           -4.36632510210509        4.49121868901806        0.49280197727914
o           -7.84985043181402       -0.37897655703990       -3.72478707292507
h           -8.54135480995795        0.24735325005145       -4.00707783233506
h           -8.06594403646534       -0.68158401306470       -2.82407638069030
o          -10.77204226790146        3.96657898449256       -0.68712237135093
h          -10.43033362760434        3.68308905809404       -1.56097012157753
h          -11.39692704902665        3.28258355345166       -0.40553308587609
o            4.18094521350437        7.70877858560215        0.88450001453873
h            4.93157466206317        7.35274366423378        1.39358970770696
h            4.54621905261513        7.90843235337910        0.00282045113816
o           -6.77712794963785        2.66417338262560       -3.59839631125161
h           -5.89643276144634        2.28109656766682       -3.42847314221647
h           -7.01843834674980        2.40715283027145       -4.49179878426399
o            1.98536619090376        4.28814954675806        6.75050899510754
h            2.92227999467922        4.58863289448023        6.66073581813669
h            1.87163779705506        3.98015253493292        7.64995649525966
o            3.76358547102560        1.10547202383763       -5.46910135169288
h            3.75820700882434        2.07803752870577       -5.47522501252459
h            3.30255184929907        0.81873364144011       -4.65345349316651
o           -2.78866408657575       -5.90697262376846        5.94983321679183
h           -3.17881406877917       -6.27902450175062        5.14914543697723
h           -1.91087207121471       -5.56130073873898        5.69351073627297
o            5.44407815851429        4.76985219426727       -1.11645070021920
h            5.73160557143829        3.86467856554657       -0.89494276316981
h            6.04640831733221        5.37820393652617       -0.65420094940493
o           -6.13270771892553       -2.29158777239310       -0.08871785356922
h           -5.27119729045379       -2.42869654807245       -0.50799877256913
h           -6.03258926411399       -1.62912886815403        0.61229540989301
o            8.40990237335374        4.93419645971970        4.14773504598520
h            8.99103908783800        5.02815515570251        4.90166181883815
h            8.78659068680602        4.20194783105562        3.59339441251568
o           -7.87409755636452        0.00110624899755        3.57236265646691
h           -8.41341334312843        0.75431017071710        3.27427879182217
h           -7.19749515213739        0.35863406512683        4.17901570678301
o           -4.45942297446759        2.98018635740730        3.32343230986154
h           -5.40958844031447        2.72005373814125        3.29106516266486
h           -4.36763025588418        3.64495986613112        2.61357849921983
o           -8.43340911657290        3.32254597824386        0.46676518859481
h           -9.25473033997332        3.62947484266780        0.03172514105664
h           -8.00118343097359        4.12000617845815        0.81184848557891
o           -5.65259952186855        0.64246042789447        5.04153932116092
h           -5.43938120485029        0.00995094367697        5.74461403953148
h           -4.95364389221544        0.53826332376143        4.36091067630778
o            0.58962463479611       -1.93914499769167        7.56299991172721
h            0.09819135228988       -2.00619146747123        6.71366117912628
h            0.10615721475105       -1.30615857721857        8.10187325243183
o           -0.40399371221866       -4.89349902889572        5.14340358410996
h            0.29359515136112       -4.91525340777708        5.82965048044234
h           -0.65182928692506       -3.94776785333770        5.09346694794320
o           -1.94132313308991        5.08369144125028       -5.98051986494496
h           -0.98905792593803        5.10580379629877       -5.76570912427452
h           -2.00058733689113        4.51799421043398       -6.75614751638434
o            2.84357529578118        5.32806523387791       -1.24181539738799
h            3.77545470452445        5.03613776626204       -1.19962931060200
h            2.84955590472645        6.22464527289563       -1.63304730299045
o            6.16775622607378        2.70514029182497       -3.30304910665280
h            6.29023333471061        1.81339098675915       -3.67977537110130
h            6.39830386298413        2.61609602558623       -2.35761214916783
o            1.47863939971631        8.15915461361782        0.20275086818941
h            2.30103615891662        8.14901220485854        0.70700509720600
h            1.13885784873999        7.24121339918157        0.18949349081943
o            4.43349975817304        5.20688088562110        6.36331090483085
h            4.25142131916585        5.84032967885161        5.64958682874819
h            5.09439881985683        4.59902767581551        6.01761159950363
o            6.17112919866063        3.45955477653256        4.62314169377838
h            6.40941138095382        2.72428107284913        4.01405037498837
h            6.88612763662549        4.11118735217593        4.50806005955550
o            5.40765984479340       -4.58906185104036       -0.19235654315358
h            5.62354467986385       -3.68641829898511       -0.50885123999021
h            6.20648866568045       -4.95363223321644        0.22342364877122
o            7.04916146169942       -2.80952275944081        1.93692600469773
h            7.24364507065615       -3.17833276382384        1.06199249637145