      -----------------------------------------------------------      
     |                   =====================                   |     
     |                           x T B                           |     
     |                   =====================                   |     
     |                         S. Grimme                         |     
     |          Mulliken Center for Theoretical Chemistry        |     
     |                    University of Bonn                     |     
      -----------------------------------------------------------      

   * xtb version 6.5.1 (579679a) compiled by 'ehlert@majestix' on 2022-07-11

   xtb is free software: you can redistribute it and/or modify it under
   the terms of the GNU Lesser General Public License as published by
   the Free Software Foundation, either version 3 of the License, or
   (at your option) any later version.
   
   xtb is distributed in the hope that it will be useful,
   but WITHOUT ANY WARRANTY; without even the implied warranty of
   MERCHANTABILITY or FITNESS FOR A PARTICULAR PURPOSE.  See the
   GNU Lesser General Public License for more details.
   
   Cite this work as:
   * C. Bannwarth, E. Caldeweyher, S. Ehlert, A. Hansen, P. Pracht,
     J. Seibert, S. Spicher, S. Grimme, WIREs Comput. Mol. Sci., 2020, 11,
     e01493. DOI: 10.1002/wcms.1493
   
   for GFN2-xTB:
   * C. Bannwarth, S. Ehlert and S. Grimme., J. Chem. Theory Comput., 2019,
     15, 1652-1671. DOI: 10.1021/acs.jctc.8b01176
   for GFN1-xTB:
   * S. Grimme, C. Bannwarth, P. Shushkov, J. Chem. Theory Comput., 2017,
     13, 1989-2009. DOI: 10.1021/acs.jctc.7b00118
   for GFN0-xTB:
   * P. Pracht, E. Caldeweyher, S. Ehlert, S. Grimme, ChemRxiv, 2019, preprint.
     DOI: 10.26434/chemrxiv.8326202.v1
   for GFN-FF:
   * S. Spicher and S. Grimme, Angew. Chem. Int. Ed., 2020, 59, 15665-15673.
     DOI: 10.1002/anie.202004239
   
   for ALPB and GBSA implicit solvation:
   * S. Ehlert, M. Stahn, S. Spicher, S. Grimme, J. Chem. Theory Comput.,
     2021, 17, 4250-4261. DOI: 10.1021/acs.jctc.1c00471
   
   for DFT-D4:
   * E. Caldeweyher, C. Bannwarth and S. Grimme, J. Chem. Phys., 2017,
     147, 034112. DOI: 10.1063/1.4993215
   * E. Caldeweyher, S. Ehlert, A. Hansen, H. Neugebauer, S. Spicher,
     C. Bannwarth and S. Grimme, J. Chem. Phys., 2019, 150, 154122.
     DOI: 10.1063/1.5090222
   * E. Caldeweyher, J.-M. Mewes, S. Ehlert and S. Grimme, Phys. Chem. Chem. Phys.
     2020, 22, 8499-8512. DOI: 10.1039/D0CP00502A
   
   for sTDA-xTB:
   * S. Grimme and C. Bannwarth, J. Chem. Phys., 2016, 145, 054103.
     DOI: 10.1063/1.4959605
   
   in the mass-spec context:
   * V. Asgeirsson, C. Bauer and S. Grimme, Chem. Sci., 2017, 8, 4879.
     DOI: 10.1039/c7sc00601b
   * J. Koopman and S. Grimme, ACS Omega 2019, 4, 12, 15120-15133.
     DOI: 10.1021/acsomega.9b02011
   
   for metadynamics refer to:
   * S. Grimme, J. Chem. Theory Comput., 2019, 155, 2847-2862
     DOI: 10.1021/acs.jctc.9b00143
   
   for SPH calculations refer to:
   * S. Spicher and S. Grimme, J. Chem. Theory Comput., 2021, 17, 1701-1714
     DOI: 10.1021/acs.jctc.0c01306
   
   with help from (in alphabetical order)
   P. Atkinson, C. Bannwarth, F. Bohle, G. Brandenburg, E. Caldeweyher
   M. Checinski, S. Dohm, S. Ehlert, S. Ehrlich, I. Gerasimov, C. Hölzer
   A. Katbashev, J. Koopman, C. Lavigne, S. Lehtola, F. März, M. Müller,
   F. Musil, H. Neugebauer, J. Pisarek, C. Plett, P. Pracht, F. Pultar,
   J. Seibert, P. Shushkov, S. Spicher, M. Stahn, M. Steiner, T. Strunk,
   J. Stückrath, T. Rose, and J. Unsleber
   
 * started run on 2022/11/17 at 06:54:59.737     

           -------------------------------------------------
          |                Calculation Setup                |
           -------------------------------------------------

          program call               : xtb solvent_cluster.coord --gfn2 --sp --lmo --chrg 0
          hostname                   : cn0363
          coordinate file            : solvent_cluster.coord
          omp threads                :                     2

   ID    Z sym.   atoms
    1    8 o      1, 4, 7, 10, 13, 16, 19, 22, 25, 28, 31, 34, 37, 40, 43,
                  46, 49, 52, 55, 58, 61, 64, 67, 70, 73, 76, 79, 82, 85, 88,
                  91, 94, 97, 100, 103, 106, 109, 112, 115, 118, 121, 124,
                  127, 130, 133, 136, 139, 142, 145, 148, 151, 154, 157, 160,
                  163, 166, 169, 172, 175, 178, 181, 184, 187, 190, 193, 196,
                  199, 202, 205, 208, 211, 214, 217, 220, 223, 226, 229, 232,
                  235, 238, 241, 244, 247, 250, 253, 256, 259, 262, 265, 268,
                  271, 274, 277, 280, 283, 286, 289, 292, 295, 298, 301, 304,
                  307, 310, 313, 316, 319, 322, 325, 328, 331, 334, 337, 340,
                  343, 346, 349, 352, 355, 358, 361, 364, 367, 370, 373, 376,
                  379, 382, 385, 388, 391, 394, 397, 400, 403, 406, 409, 412,
                  415, 418, 421, 424, 427, 430, 433, 436, 439, 442, 445, 448,
                  451, 454, 457, 460, 463, 466, 469, 472, 475, 478, 481, 484,
                  487, 490, 493, 496, 499, 502, 505, 508, 511, 514, 517, 520,
                  523, 526, 529
    2    1 h      2, 3, 5, 6, 8, 9, 11, 12, 14, 15, 17, 18, 20, 21, 23, 24,
                  26, 27, 29, 30, 32, 33, 35, 36, 38, 39, 41, 42, 44, 45, 47,
                  48, 50, 51, 53, 54, 56, 57, 59, 60, 62, 63, 65, 66, 68, 69,
                  71, 72, 74, 75, 77, 78, 80, 81, 83, 84, 86, 87, 89, 90, 92,
                  93, 95, 96, 98, 99, 101, 102, 104, 105, 107, 108, 110, 111,
                  113, 114, 116, 117, 119, 120, 122, 123, 125, 126, 128, 129,
                  131, 132, 134, 135, 137, 138, 140, 141, 143, 144, 146, 147,
                  149, 150, 152, 153, 155, 156, 158, 159, 161, 162, 164, 165,
                  167, 168, 170, 171, 173, 174, 176, 177, 179, 180, 182, 183,
                  185, 186, 188, 189, 191, 192, 194, 195, 197, 198, 200, 201,
                  203, 204, 206, 207, 209, 210, 212, 213, 215, 216, 218, 219,
                  221, 222, 224, 225, 227, 228, 230, 231, 233, 234, 236, 237,
                  239, 240, 242, 243, 245, 246, 248, 249, 251, 252, 254, 255,
                  257, 258, 260, 261, 263, 264, 266, 267, 269, 270, 272, 273,
                  275, 276, 278, 279, 281, 282, 284, 285, 287, 288, 290, 291,
                  293, 294, 296, 297, 299, 300, 302, 303, 305, 306, 308, 309,
                  311, 312, 314, 315, 317, 318, 320, 321, 323, 324, 326, 327,
                  329, 330, 332, 333, 335, 336, 338, 339, 341, 342, 344, 345,
                  347, 348, 350, 351, 353, 354, 356, 357, 359, 360, 362, 363,
                  365, 366, 368, 369, 371, 372, 374, 375, 377, 378, 380, 381,
                  383, 384, 386, 387, 389, 390, 392, 393, 395, 396, 398, 399,
                  401, 402, 404, 405, 407, 408, 410, 411, 413, 414, 416, 417,
                  419, 420, 422, 423, 425, 426, 428, 429, 431, 432, 434, 435,
                  437, 438, 440, 441, 443, 444, 446, 447, 449, 450, 452, 453,
                  455, 456, 458, 459, 461, 462, 464, 465, 467, 468, 470, 471,
                  473, 474, 476, 477, 479, 480, 482, 483, 485, 486, 488, 489,
                  491, 492, 494, 495, 497, 498, 500, 501, 503, 504, 506, 507,
                  509, 510, 512, 513, 515, 516, 518, 519, 521, 522, 524, 525,
                  527, 528, 530, 531

molecular fragmentation (1/2 indicates fragments):
111222222222222222222222222222222222222222222222222222222222222222222222
222222222222222222222222222222222222222222222222222222222222222222222222
222222222222222222222222222222222222222222222222222222222222222222222222
222222222222222222222222222222222222222222222222222222222222222222222222
222222222222222222222222222222222222222222222222222222222222222222222222
222222222222222222222222222222222222222222222222222222222222222222222222
222222222222222222222222222222222222222222222222222222222222222222222222
222222222222222222222222222
# atoms in fragment 1/2:     3   528
 fragment masses (1/2) :       18.02     3170.69
CMA distance (Bohr)    :   8.154
constraining FC (au)   :  0.0500

           -------------------------------------------------
          |                 G F N 2 - x T B                 |
           -------------------------------------------------

        Reference                      10.1021/acs.jctc.8b01176
      * Hamiltonian:
        H0-scaling (s, p, d)           1.850000    2.230000    2.230000
        zeta-weighting                 0.500000
      * Dispersion:
        s8                             2.700000
        a1                             0.520000
        a2                             5.000000
        s9                             5.000000
      * Repulsion:
        kExp                           1.500000    1.000000
        rExp                           1.000000
      * Coulomb:
        alpha                          2.000000
        third order                    shell-resolved
        anisotropic                    true
        a3                             3.000000
        a5                             4.000000
        cn-shift                       1.200000
        cn-exp                         4.000000
        max-rad                        5.000000


          ...................................................
          :                      SETUP                      :
          :.................................................:
          :  # basis functions                1062          :
          :  # atomic orbitals                1062          :
          :  # shells                          708          :
          :  # electrons                      1416          :
          :  max. iterations                   250          :
          :  Hamiltonian                  GFN2-xTB          :
          :  restarted?                      false          :
          :  GBSA solvation                  false          :
          :  PC potential                    false          :
          :  electronic temp.          300.0000000     K    :
          :  accuracy                    1.0000000          :
          :  -> integral cutoff          0.2500000E+02      :
          :  -> integral neglect         0.1000000E-07      :
          :  -> SCF convergence          0.1000000E-05 Eh   :
          :  -> wf. convergence          0.1000000E-03 e    :
          :  Broyden damping             0.4000000          :
          ...................................................

 iter      E             dE          RMSdq      gap      omega  full diag
   1   -906.5332670 -0.906533E+03  0.406E+00    8.66       0.0  T
   2   -906.5943503 -0.610833E-01  0.241E+00    7.46       1.0  T
   3   -906.6173993 -0.230490E-01  0.219E-01    5.73       1.0  T
   4   -906.6216214 -0.422216E-02  0.475E-02    6.26       1.0  T
   5   -906.6217041 -0.826808E-04  0.318E-02    6.17       1.0  T
   6   -906.6217365 -0.323965E-04  0.453E-03    6.21       1.0  T
   7   -906.6217385 -0.195721E-05  0.759E-04    6.21       5.7  T
   8   -906.6217385 -0.196402E-07  0.407E-04    6.21      10.7  T
   9   -906.6217385 -0.115534E-07  0.670E-05    6.21      64.7  T

   *** convergence criteria satisfied after 9 iterations ***

         #    Occupation            Energy/Eh            Energy/eV
      -------------------------------------------------------------
         1        2.0000           -0.7021297             -19.1059
       ...           ...                  ...                  ...
       702        2.0000           -0.3594915              -9.7823
       703        2.0000           -0.3579298              -9.7398
       704        2.0000           -0.3551735              -9.6648
       705        2.0000           -0.3448028              -9.3826
       706        2.0000           -0.3265596              -8.8861
       707        2.0000           -0.3143318              -8.5534
       708        2.0000           -0.3137753              -8.5383 (HOMO)
       709                         -0.0856299              -2.3301 (LUMO)
       710                         -0.0662994              -1.8041
       711                         -0.0558656              -1.5202
       712                         -0.0539741              -1.4687
       713                         -0.0432177              -1.1760
       ...                                ...                  ...
      1062                          0.5014558              13.6453
      -------------------------------------------------------------
                  HL-Gap            0.2281454 Eh            6.2082 eV
             Fermi-level           -0.1997026 Eh           -5.4342 eV
 
 localization/xTB-IFF output generation
 averaging CT terms over            2  occ. levels
 averaging CT terms over            1  virt. levels
 dipole moment from electron density (au)
     X       Y       Z   
  -6.0711   1.4836   1.5439  total (Debye):   16.363
cpu  time for init local    0.42 s
wall time for init local    0.21 s
 doing rotations ...
 initialization of trafo matrix to unity

 converged in     16 iterations, threshold :   0.99994424D-06
 doing transformations ...
 lmo centers(Z=2) and atoms on file <lmocent.coord>
 LMO Fii/eV  ncent    charge center   contributions...
    1 LP   *******   0.00  -6.78290 -15.77243  -3.37671  298O :  6.99  166O :  5.53  346O :  4.06  121O :  3.86  220O :  3.76  244O :  3.16  430O :  2.96   19O :  2.94  172O :  2.93  325O :  2.92  118O :  2.87  238O :  2.81
   31O :  2.75  217O :  2.69  250O :  2.48  103O :  2.30  400O :  2.28   58O :  2.19  484O :  2.18  133O :  2.17  151O :  2.17   16O :  2.15  307O :  2.15   25O :  2.04
  478O :  1.98   22O :  1.98  424O :  1.96  310O :  1.91  181O :  1.89   64O :  1.84  205O :  1.84  196O :  1.83   28O :  1.78   13O :  1.75  517O :  1.70  337O :  1.70
  451O :  1.63  262O :  1.58  397O :  1.56  493O :  1.54  355O :  1.51    7O :  1.48   97O :  1.48  142O :  1.46  229O :  1.41  136O :  1.40  439O :  1.40   10O :  1.39
  292O :  1.39  448O :  1.38  259O :  1.37  112O :  1.37   43O :  1.35   88O :  1.35  496O :  1.32   73O :  1.32  364O :  1.30  514O :  1.30  211O :  1.26  523O :  1.26
  436O :  1.25  445O :  1.25  106O :  1.25   91O :  1.22  232O :  1.21  367O :  1.19  490O :  1.18  526O :  1.14  178O :  1.12   49O :  1.10  343O :  1.09  265O :  1.07
  409O :  1.06  349O :  1.06  286O :  1.06   76O :  1.05  370O :  1.03  502O :  0.99    1O :  0.99  124O :  0.99  316O :  0.98  373O :  0.97  463O :  0.96   94O :  0.96
  160O :  0.92   40O :  0.92  427O :  0.92  442O :  0.92  460O :  0.90  253O :  0.90  454O :  0.88  505O :  0.86  340O :  0.82  304O :  0.82  301O :  0.81  193O :  0.80
  154O :  0.79  499O :  0.77  187O :  0.76  256O :  0.75  529O :  0.71   70O :  0.70  163O :  0.69  241O :  0.69  277O :  0.69  487O :  0.68  274O :  0.68  208O :  0.67
  457O :  0.66   52O :  0.66  169O :  0.65  226O :  0.64  406O :  0.64  433O :  0.64  319O :  0.63  190O :  0.63    4O :  0.62  115O :  0.61  283O :  0.61   82O :  0.61
  334O :  0.61  415O :  0.58  328O :  0.57  475O :  0.56  511O :  0.55  235O :  0.54  289O :  0.51  247O :  0.51  358O :  0.51  148O :  0.50  214O :  0.50   32H :  0.50
  391O :  0.49   85O :  0.49  206H :  0.48  109O :  0.48  295O :  0.47   55O :  0.47  100O :  0.47  412O :  0.46  379O :  0.45   46O :  0.44  175O :  0.44  184O :  0.44
  322O :  0.42  130O :  0.41  352O :  0.41  376O :  0.41  119H :  0.41  421O :  0.40  271O :  0.40  157O :  0.40  173H :  0.38  268O :  0.37  403O :  0.36   79O :  0.34
  469O :  0.33  472O :  0.31  105H :  0.31  385O :  0.30  198H :  0.30  357H :  0.30  481O :  0.30   98H :  0.30  294H :  0.29  280O :  0.28   17H :  0.28  466O :  0.27
  361O :  0.27  382O :  0.27   26H :  0.27   37O :  0.27  219H :  0.26  441H :  0.24  312H :  0.24  388O :  0.24  134H :  0.23  240H :  0.23  199O :  0.23  127O :  0.23
  313O :  0.22  501H :  0.22  342H :  0.22  331O :  0.21  291H :  0.20  455H :  0.20  432H :  0.19   14H :  0.19  143H :  0.19  348H :  0.18   75H :  0.18   67O :  0.18
  525H :  0.18   61O :  0.18  465H :  0.17  418O :  0.16  116H :  0.16  108H :  0.16  145O :  0.16  180H :  0.16  437H :  0.15   34O :  0.15  339H :  0.14  233H :  0.14
  251H :  0.14  152H :  0.14   77H :  0.14  380H :  0.14  290H :  0.14  264H :  0.13  156H :  0.13  228H :  0.13  194H :  0.13  375H :  0.13  231H :  0.13   90H :  0.13
  113H :  0.13   60H :  0.13  344H :  0.12  248H :  0.12  230H :  0.12   27H :  0.12  386H :  0.12  318H :  0.12   66H :  0.11  139O :  0.11  440H :  0.11   59H :  0.11
  126H :  0.11  137H :  0.11  394O :  0.11  202O :  0.10  518H :  0.10  276H :  0.10  227H :  0.10   20H :  0.10  431H :  0.10  285H :  0.10   12H :  0.09  305H :  0.09
   72H :  0.09  413H :  0.09  471H :  0.09  110H :  0.09  495H :  0.09  333H :  0.09  345H :  0.09  197H :  0.08  101H :  0.08  245H :  0.08    9H :  0.08  483H :  0.08
  223O :  0.08   18H :  0.08  150H :  0.08  107H :  0.08  524H :  0.08  449H :  0.08  239H :  0.08   24H :  0.08  317H :  0.08  508O :  0.08  353H :  0.08   95H :  0.08
  114H :  0.07   15H :  0.07  369H :  0.07
    2 LP   *******   0.00  16.35913   2.24244  -4.30253  166O :  7.91  346O :  3.80  298O :  3.65  121O :  3.61  220O :  3.52  244O :  2.95  430O :  2.78   19O :  2.76  172O :  2.75  325O :  2.73  118O :  2.68  238O :  2.63
   31O :  2.57  217O :  2.52  250O :  2.32  103O :  2.15  400O :  2.14   58O :  2.05  484O :  2.04  133O :  2.03  151O :  2.03  307O :  2.01   16O :  2.01   25O :  1.91
  478O :  1.86   22O :  1.85  424O :  1.84  310O :  1.80  181O :  1.77   64O :  1.73  205O :  1.72  196O :  1.71   28O :  1.66   13O :  1.64  517O :  1.59  337O :  1.59
  451O :  1.53  262O :  1.48  397O :  1.46  493O :  1.45  355O :  1.42    7O :  1.39   97O :  1.39  142O :  1.37  229O :  1.32  136O :  1.31  439O :  1.31   10O :  1.31
  292O :  1.30  448O :  1.30  112O :  1.28  259O :  1.28   43O :  1.27   88O :  1.27  496O :  1.24   73O :  1.23  364O :  1.21  514O :  1.20  211O :  1.18  523O :  1.18
  436O :  1.17  445O :  1.17  106O :  1.17   91O :  1.15  232O :  1.13  367O :  1.12  490O :  1.11  526O :  1.07  178O :  1.05   49O :  1.03  343O :  1.02  265O :  1.00
  409O :  1.00  349O :  0.99  286O :  0.99   76O :  0.99  370O :  0.96  502O :  0.93    1O :  0.93  124O :  0.92  316O :  0.92  373O :  0.91  463O :  0.90   94O :  0.89
  160O :  0.86   40O :  0.86  427O :  0.86  442O :  0.86  460O :  0.85  253O :  0.84  454O :  0.82  505O :  0.81  340O :  0.77  304O :  0.77  301O :  0.75  154O :  0.74
  193O :  0.74  499O :  0.72  187O :  0.71  256O :  0.70   70O :  0.67  529O :  0.66  163O :  0.65  241O :  0.65  277O :  0.64  487O :  0.64  274O :  0.63  208O :  0.62
  457O :  0.62   52O :  0.61  169O :  0.60  226O :  0.60  406O :  0.60  433O :  0.60  319O :  0.59  190O :  0.59    4O :  0.58  115O :  0.58  283O :  0.57   82O :  0.57
  334O :  0.57  415O :  0.54  328O :  0.54  475O :  0.52  511O :  0.51  235O :  0.51  289O :  0.48  247O :  0.47  358O :  0.47  148O :  0.47  214O :  0.47   32H :  0.47
  391O :  0.46   85O :  0.45  206H :  0.45  100O :  0.45  109O :  0.44  295O :  0.44   55O :  0.44  412O :  0.43  379O :  0.42   46O :  0.41  175O :  0.41  184O :  0.41
  322O :  0.40  130O :  0.39  352O :  0.39  376O :  0.38  119H :  0.38  421O :  0.38  271O :  0.37  157O :  0.37  173H :  0.36  268O :  0.35  403O :  0.33   79O :  0.31
  469O :  0.31  472O :  0.29  105H :  0.29  385O :  0.28  198H :  0.28  481O :  0.28   98H :  0.28  294H :  0.27  357H :  0.27  280O :  0.26   17H :  0.26  466O :  0.26
  361O :  0.25  382O :  0.25   26H :  0.25   37O :  0.25  264H :  0.25  219H :  0.24  312H :  0.22  441H :  0.22  388O :  0.22  240H :  0.22  134H :  0.22  199O :  0.21
  127O :  0.21  313O :  0.21  501H :  0.20  342H :  0.20  331O :  0.20  291H :  0.19  455H :  0.19  432H :  0.18   14H :  0.18  143H :  0.18  348H :  0.17   75H :  0.17
   67O :  0.17  525H :  0.17   61O :  0.16  465H :  0.16  418O :  0.15  116H :  0.15  108H :  0.15  145O :  0.15  180H :  0.15  437H :  0.14   34O :  0.14  339H :  0.13
  233H :  0.13  251H :  0.13  152H :  0.13   77H :  0.13  380H :  0.13  290H :  0.13  156H :  0.12  375H :  0.12   90H :  0.12  231H :  0.12  113H :  0.12   60H :  0.12
  344H :  0.12  248H :  0.12  139O :  0.12  194H :  0.12  230H :  0.11   27H :  0.11  386H :  0.11  318H :  0.11   66H :  0.11  440H :  0.10   59H :  0.10  126H :  0.10
  137H :  0.10  394O :  0.10  202O :  0.10  518H :  0.10  276H :  0.09  227H :  0.09   20H :  0.09  431H :  0.09  228H :  0.09  285H :  0.09   12H :  0.09  305H :  0.09
   72H :  0.09  413H :  0.09  471H :  0.09  110H :  0.08  495H :  0.08  333H :  0.08  197H :  0.08  345H :  0.08  245H :  0.08    9H :  0.08  483H :  0.08  223O :  0.08
   18H :  0.08  101H :  0.08  150H :  0.08  107H :  0.08  524H :  0.07  239H :  0.07  449H :  0.07   24H :  0.07  317H :  0.07  508O :  0.07  353H :  0.07   95H :  0.07
  114H :  0.07
    3 LP   *******   0.00  -4.67561   9.62180  -1.47395  346O :  6.45  166O :  4.71  298O :  3.32  121O :  3.29  220O :  3.20  244O :  2.69  430O :  2.53   19O :  2.51  172O :  2.50  118O :  2.44  325O :  2.43  238O :  2.39
   31O :  2.34  217O :  2.29  250O :  2.11  103O :  1.96  400O :  1.95   58O :  1.87  484O :  1.86  133O :  1.85  151O :  1.85  307O :  1.83   16O :  1.83   25O :  1.74
  478O :  1.69   22O :  1.69  424O :  1.67  310O :  1.64  181O :  1.61   64O :  1.57  205O :  1.57  196O :  1.56   28O :  1.51   13O :  1.50  517O :  1.45  337O :  1.45
  451O :  1.39  262O :  1.34  397O :  1.33  493O :  1.32  355O :  1.30   97O :  1.26    7O :  1.26  142O :  1.24  229O :  1.20  439O :  1.19   10O :  1.19  292O :  1.19
  136O :  1.19  448O :  1.18  259O :  1.17  112O :  1.17   43O :  1.15   88O :  1.15  496O :  1.13   73O :  1.12  364O :  1.11  514O :  1.10  211O :  1.08  523O :  1.07
  436O :  1.06  445O :  1.06  106O :  1.06   91O :  1.04  232O :  1.03  367O :  1.02  490O :  1.01  526O :  0.97  178O :  0.96   49O :  0.94  343O :  0.93  265O :  0.91
  409O :  0.91  349O :  0.90  286O :  0.90   76O :  0.90  370O :  0.88  502O :  0.85    1O :  0.85  124O :  0.84  316O :  0.83  373O :  0.83  463O :  0.82   94O :  0.81
   40O :  0.79  160O :  0.78  427O :  0.78  442O :  0.78  460O :  0.77  253O :  0.76  454O :  0.75  505O :  0.74  340O :  0.70  304O :  0.70  301O :  0.69  193O :  0.68
  154O :  0.68  499O :  0.65  187O :  0.64  256O :  0.64  529O :  0.60   70O :  0.60  163O :  0.59  241O :  0.59  277O :  0.59  487O :  0.58  274O :  0.58  208O :  0.57
  457O :  0.56   52O :  0.56  169O :  0.55  226O :  0.54  406O :  0.54  433O :  0.54  319O :  0.54  190O :  0.53    4O :  0.53  115O :  0.52  283O :  0.52   82O :  0.52
  334O :  0.52  415O :  0.50  328O :  0.49  475O :  0.47  511O :  0.47  235O :  0.46  289O :  0.44  247O :  0.43  358O :  0.43  148O :  0.43  214O :  0.43   32H :  0.43
  391O :  0.41   85O :  0.41  206H :  0.41  100O :  0.41  109O :  0.41  295O :  0.40   55O :  0.40  412O :  0.40  379O :  0.39   46O :  0.38  175O :  0.37  184O :  0.37
  322O :  0.36  130O :  0.35  352O :  0.35  376O :  0.35  119H :  0.35  421O :  0.34  271O :  0.34  157O :  0.34  173H :  0.33  268O :  0.32  403O :  0.30   79O :  0.29
  469O :  0.29  472O :  0.26  105H :  0.26  385O :  0.26  198H :  0.26  481O :  0.25   98H :  0.25  294H :  0.25  357H :  0.25  280O :  0.24   17H :  0.24  466O :  0.23
  361O :  0.23  382O :  0.23   26H :  0.23   37O :  0.23  219H :  0.22  441H :  0.21  312H :  0.20  388O :  0.20  134H :  0.20  240H :  0.20  199O :  0.19  127O :  0.19
  313O :  0.19  501H :  0.19  342H :  0.18  331O :  0.18  291H :  0.17  455H :  0.17  432H :  0.16   14H :  0.16  143H :  0.16   75H :  0.15   67O :  0.15  525H :  0.15
   61O :  0.15  465H :  0.14  418O :  0.14  116H :  0.14  108H :  0.14  145O :  0.14  180H :  0.13  348H :  0.13  437H :  0.13   34O :  0.12  339H :  0.12  233H :  0.12
  251H :  0.12  152H :  0.12   77H :  0.12  380H :  0.12  290H :  0.12  264H :  0.11  156H :  0.11  228H :  0.11  194H :  0.11  375H :  0.11  231H :  0.11   90H :  0.11
  113H :  0.11   60H :  0.11  344H :  0.11  248H :  0.11  139O :  0.11  230H :  0.10   27H :  0.10  386H :  0.10  318H :  0.10   66H :  0.10  440H :  0.09   59H :  0.09
  126H :  0.09  137H :  0.09  394O :  0.09  518H :  0.09  202O :  0.09  276H :  0.09  227H :  0.09   20H :  0.08  431H :  0.08  285H :  0.08   12H :  0.08  305H :  0.08
   72H :  0.08  413H :  0.08  471H :  0.08  110H :  0.08  495H :  0.08  333H :  0.07  197H :  0.07  345H :  0.07  245H :  0.07    9H :  0.07
    4 LP   *******   0.00  13.94411   2.61940  -2.50904  166O :  6.24  346O :  2.90  298O :  2.79  121O :  2.76  220O :  2.69  244O :  2.26  430O :  2.12   19O :  2.11  172O :  2.10  325O :  2.08  118O :  2.05  238O :  2.01
   31O :  1.96  217O :  1.92  250O :  1.77  103O :  1.65  400O :  1.63   58O :  1.57  484O :  1.56  133O :  1.55  151O :  1.55  307O :  1.54   16O :  1.54   25O :  1.46
  478O :  1.42   22O :  1.41  424O :  1.40  310O :  1.37  181O :  1.35   64O :  1.32  205O :  1.32  196O :  1.31   28O :  1.27   13O :  1.25  517O :  1.22  337O :  1.21
  451O :  1.17  262O :  1.13  397O :  1.11  493O :  1.10  355O :  1.09    7O :  1.06   97O :  1.06  142O :  1.04  229O :  1.01  136O :  1.00  439O :  1.00   10O :  1.00
  292O :  1.00  448O :  0.99  259O :  0.98  112O :  0.98   43O :  0.97   88O :  0.97  514O :  0.95  496O :  0.94   73O :  0.94  364O :  0.93  211O :  0.90  523O :  0.90
  436O :  0.89  445O :  0.89  106O :  0.89   91O :  0.87  232O :  0.86  367O :  0.85  490O :  0.84  526O :  0.81  178O :  0.80   49O :  0.79  343O :  0.78  265O :  0.76
  409O :  0.76  349O :  0.76  286O :  0.76   76O :  0.75  370O :  0.73  502O :  0.71    1O :  0.71  124O :  0.70  316O :  0.70  373O :  0.69  463O :  0.69   94O :  0.68
  160O :  0.66   40O :  0.66  427O :  0.66  442O :  0.66  460O :  0.65  253O :  0.64  454O :  0.63  505O :  0.62  340O :  0.59  304O :  0.59  301O :  0.58  154O :  0.57
  193O :  0.57  499O :  0.55  187O :  0.54  256O :  0.53  529O :  0.51  163O :  0.50  241O :  0.49   70O :  0.49  277O :  0.49  487O :  0.49  274O :  0.48  208O :  0.48
  457O :  0.47   52O :  0.47  169O :  0.46  226O :  0.46  406O :  0.46  433O :  0.45  319O :  0.45  190O :  0.45  115O :  0.45    4O :  0.44  283O :  0.44   82O :  0.43
  334O :  0.43  415O :  0.42  328O :  0.41  475O :  0.40  511O :  0.39  235O :  0.39  289O :  0.37  247O :  0.36  358O :  0.36  148O :  0.36  214O :  0.36   32H :  0.36
   85O :  0.35  206H :  0.34  391O :  0.34  100O :  0.34  109O :  0.34  295O :  0.34   55O :  0.34  412O :  0.33  379O :  0.32   46O :  0.31  175O :  0.31  184O :  0.31
  322O :  0.30  130O :  0.29  352O :  0.29  376O :  0.29  119H :  0.29  421O :  0.29  271O :  0.29  157O :  0.28  173H :  0.27  268O :  0.27  403O :  0.26   79O :  0.24
  469O :  0.24  472O :  0.22  105H :  0.22  385O :  0.22  198H :  0.21  481O :  0.21   98H :  0.21  294H :  0.21  357H :  0.21  280O :  0.20   17H :  0.20  466O :  0.20
  382O :  0.19  361O :  0.19   26H :  0.19   37O :  0.19  219H :  0.18  441H :  0.17  312H :  0.17  388O :  0.17  134H :  0.17  240H :  0.17  199O :  0.16  127O :  0.16
  313O :  0.16  501H :  0.16  342H :  0.15  331O :  0.15  291H :  0.15  455H :  0.14  432H :  0.14  228H :  0.14   14H :  0.13  143H :  0.13  348H :  0.13   75H :  0.13
   67O :  0.13  525H :  0.13   61O :  0.13  465H :  0.12  264H :  0.12  418O :  0.12  116H :  0.12  108H :  0.12  145O :  0.11  180H :  0.11  437H :  0.10   34O :  0.10
  339H :  0.10  233H :  0.10  251H :  0.10  152H :  0.10   77H :  0.10  380H :  0.10  290H :  0.10  156H :  0.09  375H :  0.09  231H :  0.09   90H :  0.09  113H :  0.09
   60H :  0.09  344H :  0.09  248H :  0.09  139O :  0.09  230H :  0.09   27H :  0.09  386H :  0.09  318H :  0.08  194H :  0.08   66H :  0.08  440H :  0.08   59H :  0.08
  126H :  0.08  137H :  0.08  394O :  0.08  202O :  0.07  518H :  0.07  276H :  0.07  227H :  0.07   20H :  0.07  431H :  0.07
    5 LP   *******   0.01   9.47953   6.87355  -9.25442  430O :  4.34  166O :  3.81  346O :  2.79  298O :  2.69  121O :  2.66  220O :  2.59  244O :  2.17   19O :  2.03  172O :  2.03  325O :  2.01  118O :  1.98  238O :  1.93
   31O :  1.89  217O :  1.85  250O :  1.71  103O :  1.59  400O :  1.57   58O :  1.51  484O :  1.50  151O :  1.50  133O :  1.50  307O :  1.48   16O :  1.48   25O :  1.41
  478O :  1.37   22O :  1.36  424O :  1.35  310O :  1.32  181O :  1.30   64O :  1.27  205O :  1.27  196O :  1.26   28O :  1.22   13O :  1.21  517O :  1.17  337O :  1.17
  451O :  1.13  262O :  1.09  397O :  1.07  493O :  1.06  355O :  1.05    7O :  1.02   97O :  1.02  142O :  1.01  229O :  0.97  136O :  0.97  439O :  0.96   10O :  0.96
  292O :  0.96  448O :  0.95  259O :  0.95  112O :  0.94   43O :  0.93   88O :  0.93  496O :  0.91   73O :  0.91  364O :  0.89  514O :  0.89  211O :  0.87  523O :  0.87
  436O :  0.86  445O :  0.86  106O :  0.86   91O :  0.84  232O :  0.83  367O :  0.82  490O :  0.81  526O :  0.78  178O :  0.77   49O :  0.76  343O :  0.75  265O :  0.74
  409O :  0.73  286O :  0.73   76O :  0.73  349O :  0.73  370O :  0.71  502O :  0.68    1O :  0.68  124O :  0.68  316O :  0.67  373O :  0.67  463O :  0.66   94O :  0.66
  160O :  0.64   40O :  0.63  427O :  0.63  442O :  0.63  253O :  0.62  460O :  0.61  454O :  0.60  505O :  0.59  340O :  0.57  304O :  0.56  301O :  0.56  193O :  0.55
  154O :  0.55  499O :  0.53  187O :  0.52  256O :  0.51  529O :  0.49   70O :  0.48  163O :  0.48  241O :  0.48  277O :  0.47  487O :  0.47  274O :  0.46  208O :  0.46
  457O :  0.45   52O :  0.45  169O :  0.45  226O :  0.44  406O :  0.44  433O :  0.44  319O :  0.43  190O :  0.43    4O :  0.43  115O :  0.42  283O :  0.42   82O :  0.42
  334O :  0.42  415O :  0.40  328O :  0.39  475O :  0.38  511O :  0.38  235O :  0.37  289O :  0.35  247O :  0.35  148O :  0.35  358O :  0.35  214O :  0.35   32H :  0.34
  391O :  0.33   85O :  0.33  206H :  0.33  100O :  0.33  109O :  0.33  295O :  0.33   55O :  0.32  412O :  0.32   46O :  0.30  175O :  0.30  184O :  0.30  379O :  0.30
  322O :  0.29  130O :  0.28  352O :  0.28  376O :  0.28  119H :  0.28  421O :  0.28  271O :  0.28  157O :  0.27  173H :  0.26  268O :  0.26  403O :  0.25   79O :  0.23
  469O :  0.23  472O :  0.21  105H :  0.21  385O :  0.21  198H :  0.21  481O :  0.21   98H :  0.20  294H :  0.20  357H :  0.20  280O :  0.19   17H :  0.19  466O :  0.19
  361O :  0.19  382O :  0.19   26H :  0.18   37O :  0.18  219H :  0.18  441H :  0.17  312H :  0.17  388O :  0.16  240H :  0.16  134H :  0.16  199O :  0.16  127O :  0.16
  313O :  0.15  501H :  0.15  342H :  0.15  331O :  0.15  291H :  0.14  455H :  0.14  245H :  0.13   14H :  0.13  143H :  0.13  348H :  0.12   75H :  0.12   67O :  0.12
  525H :  0.12   61O :  0.12  465H :  0.12  418O :  0.11  116H :  0.11  108H :  0.11  145O :  0.11  432H :  0.11  180H :  0.11  437H :  0.10   34O :  0.10  339H :  0.10
  233H :  0.10  251H :  0.10  152H :  0.09  380H :  0.09   77H :  0.09  290H :  0.09  264H :  0.09  156H :  0.09  228H :  0.09  194H :  0.09  375H :  0.09  231H :  0.09
   90H :  0.09  113H :  0.09   60H :  0.09  344H :  0.09  248H :  0.08  139O :  0.08  230H :  0.08   27H :  0.08  386H :  0.08  318H :  0.08   66H :  0.08  440H :  0.08
   59H :  0.08  126H :  0.08  137H :  0.07  394O :  0.07  202O :  0.07  518H :  0.07
    6 LP   *******   0.01   2.11170  -1.37720 -12.22740  220O :  4.58  166O :  3.68  346O :  2.70  298O :  2.59  121O :  2.56  244O :  2.10  430O :  1.97   19O :  1.96  325O :  1.94  172O :  1.93  118O :  1.91  238O :  1.86
   31O :  1.83  217O :  1.78  250O :  1.65  103O :  1.53  400O :  1.52   58O :  1.46  484O :  1.45  133O :  1.44  151O :  1.44  307O :  1.43   16O :  1.43   25O :  1.36
  478O :  1.32   22O :  1.32  424O :  1.31  310O :  1.28  181O :  1.26  205O :  1.22   64O :  1.22  196O :  1.21   28O :  1.18   13O :  1.17  517O :  1.13  337O :  1.13
  451O :  1.09  262O :  1.05  397O :  1.03  493O :  1.03  355O :  1.01    7O :  0.99   97O :  0.99  142O :  0.97  229O :  0.94  136O :  0.93  439O :  0.93   10O :  0.93
  292O :  0.93  448O :  0.92   43O :  0.91  259O :  0.91  112O :  0.91   88O :  0.90  496O :  0.88   73O :  0.87  364O :  0.86  514O :  0.86  211O :  0.84  523O :  0.83
  436O :  0.83  445O :  0.83  106O :  0.83   91O :  0.81  232O :  0.80  367O :  0.79  490O :  0.78  526O :  0.76  178O :  0.75   49O :  0.73  343O :  0.72  265O :  0.71
  409O :  0.71  349O :  0.71  286O :  0.70   76O :  0.70  370O :  0.68  502O :  0.66    1O :  0.66  124O :  0.65  316O :  0.65  373O :  0.64  463O :  0.64   94O :  0.64
  160O :  0.61   40O :  0.61  427O :  0.61  442O :  0.61  460O :  0.60  253O :  0.60  454O :  0.58  505O :  0.57  340O :  0.55  304O :  0.54  301O :  0.54  193O :  0.53
  154O :  0.53  499O :  0.51  187O :  0.50  256O :  0.50  529O :  0.47   70O :  0.47  163O :  0.46  241O :  0.46  277O :  0.46  487O :  0.45  274O :  0.45  208O :  0.44
  457O :  0.44   52O :  0.44  169O :  0.43  406O :  0.43  226O :  0.42  433O :  0.42  319O :  0.42  190O :  0.42    4O :  0.41  115O :  0.41   82O :  0.40  283O :  0.40
  334O :  0.40  415O :  0.39  328O :  0.38  475O :  0.37  511O :  0.37  235O :  0.36  289O :  0.34  358O :  0.34  247O :  0.34  214O :  0.33  148O :  0.33   32H :  0.33
  391O :  0.32   85O :  0.32  206H :  0.32  100O :  0.32  109O :  0.32  295O :  0.31   55O :  0.31  412O :  0.31  379O :  0.30   46O :  0.29  175O :  0.29  184O :  0.29
  322O :  0.28  130O :  0.27  352O :  0.27  376O :  0.27  119H :  0.27  421O :  0.27  271O :  0.27  157O :  0.26  173H :  0.26  268O :  0.25  403O :  0.24   79O :  0.22
  469O :  0.22  472O :  0.21  105H :  0.20  385O :  0.20  198H :  0.20  481O :  0.20   98H :  0.20  294H :  0.19  357H :  0.19  280O :  0.19   17H :  0.18  466O :  0.18
  361O :  0.18  382O :  0.18   26H :  0.18   37O :  0.18  219H :  0.17  441H :  0.16  312H :  0.16  388O :  0.16  134H :  0.15  240H :  0.15  199O :  0.15  127O :  0.15
  313O :  0.15  501H :  0.14  342H :  0.14  331O :  0.14  291H :  0.14  455H :  0.13  432H :  0.13   14H :  0.13  143H :  0.12  348H :  0.12   75H :  0.12   67O :  0.12
  525H :  0.12   61O :  0.12  465H :  0.11  418O :  0.11  116H :  0.11  108H :  0.11  145O :  0.11  180H :  0.10  437H :  0.10   34O :  0.10  339H :  0.10  233H :  0.09
  251H :  0.09  152H :  0.09   77H :  0.09  380H :  0.09  290H :  0.09  264H :  0.09  156H :  0.09  228H :  0.09  194H :  0.09  375H :  0.09  231H :  0.08   90H :  0.08
  113H :  0.08   60H :  0.08  344H :  0.08  248H :  0.08  139O :  0.08  230H :  0.08   27H :  0.08  386H :  0.08  318H :  0.08  440H :  0.07   59H :  0.07  126H :  0.07
  137H :  0.07  394O :  0.07
    7 LP   *******   0.01 -13.75980   1.66122  -2.91207  250O :  3.97  166O :  3.48  346O :  2.55  298O :  2.45  121O :  2.43  220O :  2.36  244O :  1.98  430O :  1.86   19O :  1.85  172O :  1.85  325O :  1.83  118O :  1.80
  238O :  1.77   31O :  1.73  217O :  1.69  103O :  1.45  400O :  1.44   58O :  1.38  484O :  1.37  133O :  1.37  151O :  1.37  307O :  1.35   16O :  1.35   25O :  1.28
  478O :  1.25   22O :  1.24  424O :  1.23  310O :  1.21  181O :  1.19   64O :  1.16  205O :  1.16  196O :  1.15   28O :  1.12   13O :  1.10  517O :  1.07  337O :  1.07
  451O :  1.03  262O :  0.99  397O :  0.98  493O :  0.97  355O :  0.96    7O :  0.93   97O :  0.93  142O :  0.92  229O :  0.89  136O :  0.88  439O :  0.88   10O :  0.88
  292O :  0.88  448O :  0.87  259O :  0.86  112O :  0.85   43O :  0.85   88O :  0.85  496O :  0.83   73O :  0.82  364O :  0.82  514O :  0.82  211O :  0.79  523O :  0.79
  436O :  0.79  445O :  0.79  106O :  0.78   91O :  0.77  232O :  0.76  367O :  0.75  490O :  0.74  526O :  0.72  178O :  0.71   49O :  0.69  343O :  0.69  265O :  0.67
  409O :  0.67  349O :  0.67  286O :  0.67   76O :  0.66  370O :  0.65  502O :  0.62    1O :  0.62  124O :  0.62  316O :  0.62  373O :  0.61  463O :  0.61   94O :  0.60
  160O :  0.58   40O :  0.58  427O :  0.58  442O :  0.58  460O :  0.57  253O :  0.56  454O :  0.55  505O :  0.54  340O :  0.52  304O :  0.52  301O :  0.51  193O :  0.50
  154O :  0.50  499O :  0.48  187O :  0.48  256O :  0.47  529O :  0.45   70O :  0.44  163O :  0.44  241O :  0.44  277O :  0.43  487O :  0.43  274O :  0.42  208O :  0.42
  457O :  0.41   52O :  0.41  433O :  0.41  169O :  0.41  226O :  0.40  406O :  0.40  319O :  0.40  190O :  0.39    4O :  0.39  115O :  0.38  283O :  0.38   82O :  0.38
  334O :  0.38  415O :  0.37  328O :  0.36  475O :  0.35  511O :  0.35  235O :  0.34  289O :  0.32  247O :  0.32  358O :  0.32  148O :  0.32  214O :  0.32   32H :  0.31
  391O :  0.31   85O :  0.31  206H :  0.30  100O :  0.30  109O :  0.30  295O :  0.30   55O :  0.30  412O :  0.29  379O :  0.29   46O :  0.28  175O :  0.28  184O :  0.27
  322O :  0.27  130O :  0.26  352O :  0.26  376O :  0.26  119H :  0.26  421O :  0.25  271O :  0.25  157O :  0.24  173H :  0.24  268O :  0.24  403O :  0.22   79O :  0.21
  469O :  0.21  472O :  0.20  105H :  0.19  385O :  0.19  198H :  0.19  481O :  0.19   98H :  0.19  294H :  0.18  357H :  0.18   17H :  0.18  280O :  0.17  466O :  0.17
  361O :  0.17  382O :  0.17   26H :  0.17   37O :  0.17  219H :  0.16  441H :  0.15  312H :  0.15  388O :  0.15  134H :  0.15  240H :  0.15  199O :  0.14  127O :  0.14
  313O :  0.14  501H :  0.14  342H :  0.14  331O :  0.13  291H :  0.13  455H :  0.13  432H :  0.12   14H :  0.12  143H :  0.12   75H :  0.11  348H :  0.11   67O :  0.11
  525H :  0.11   61O :  0.11  465H :  0.11  418O :  0.10  116H :  0.10  108H :  0.10  145O :  0.10  180H :  0.10  437H :  0.09   34O :  0.09  339H :  0.09  233H :  0.09
  152H :  0.09   77H :  0.09  380H :  0.09  290H :  0.09  264H :  0.08  156H :  0.08  228H :  0.08  194H :  0.08  375H :  0.08  231H :  0.08   90H :  0.08   60H :  0.08
  113H :  0.08  344H :  0.08  248H :  0.08  139O :  0.08  230H :  0.08   27H :  0.08  386H :  0.08  318H :  0.07   66H :  0.07  251H :  0.07
    8 LP   *******   0.01   5.83176  -6.83713   1.86867  121O :  3.99  166O :  3.33  346O :  2.45  298O :  2.35  220O :  2.27  244O :  1.90  430O :  1.79   19O :  1.78  172O :  1.77  325O :  1.76  118O :  1.73  238O :  1.69
   31O :  1.66  217O :  1.62  250O :  1.49  103O :  1.39  400O :  1.38   58O :  1.33  484O :  1.31  133O :  1.31  151O :  1.31   16O :  1.31  307O :  1.30   25O :  1.23
  478O :  1.20   22O :  1.19  424O :  1.18  310O :  1.16  181O :  1.14   64O :  1.11  205O :  1.11  196O :  1.10   28O :  1.07   13O :  1.06  517O :  1.03  337O :  1.02
  451O :  0.99  262O :  0.95  397O :  0.94  493O :  0.93  355O :  0.92    7O :  0.89   97O :  0.89  142O :  0.88  229O :  0.85   10O :  0.85  136O :  0.84  439O :  0.84
  292O :  0.84  448O :  0.83  112O :  0.83  259O :  0.83   43O :  0.82   88O :  0.82  496O :  0.80   73O :  0.79  364O :  0.78  514O :  0.78  211O :  0.76  523O :  0.76
  436O :  0.75  445O :  0.75  106O :  0.75   91O :  0.74  232O :  0.73  367O :  0.72  490O :  0.71  526O :  0.69  178O :  0.68   49O :  0.66  343O :  0.66  265O :  0.64
  409O :  0.64  349O :  0.64  286O :  0.64   76O :  0.64  370O :  0.62  502O :  0.60    1O :  0.60  124O :  0.59  316O :  0.59  373O :  0.58  463O :  0.58   94O :  0.58
  160O :  0.56   40O :  0.56  427O :  0.55  442O :  0.55  460O :  0.54  253O :  0.54  454O :  0.53  505O :  0.52  340O :  0.50  304O :  0.49  301O :  0.49  193O :  0.48
  154O :  0.48  499O :  0.46  187O :  0.46  256O :  0.45  529O :  0.43   70O :  0.42  163O :  0.42  241O :  0.42  277O :  0.41  487O :  0.41  274O :  0.40  208O :  0.40
  457O :  0.40   52O :  0.40  169O :  0.39  226O :  0.39  406O :  0.38  433O :  0.38  319O :  0.38  190O :  0.38    4O :  0.37  115O :  0.37  283O :  0.37   82O :  0.37
  334O :  0.37  415O :  0.35  328O :  0.35  475O :  0.34  511O :  0.33  235O :  0.33  247O :  0.32  289O :  0.31  358O :  0.30  148O :  0.30  214O :  0.30   32H :  0.30
  391O :  0.29   85O :  0.29  206H :  0.29  100O :  0.29  109O :  0.29  295O :  0.28   55O :  0.28  412O :  0.28  379O :  0.27   46O :  0.26  175O :  0.26  184O :  0.26
  322O :  0.26  130O :  0.25  352O :  0.25  376O :  0.25  119H :  0.25  421O :  0.24  271O :  0.24  157O :  0.24  173H :  0.23  268O :  0.23  403O :  0.22   79O :  0.20
  469O :  0.20  472O :  0.19  105H :  0.19  385O :  0.18  198H :  0.18  481O :  0.18   98H :  0.18  357H :  0.17  280O :  0.17  294H :  0.17   17H :  0.17  466O :  0.16
  361O :  0.16  382O :  0.16   26H :  0.16   37O :  0.16  248H :  0.16  219H :  0.15  441H :  0.15  312H :  0.14  388O :  0.14  199O :  0.14  134H :  0.14  240H :  0.14
  127O :  0.14  313O :  0.14  501H :  0.13  342H :  0.13  331O :  0.13  291H :  0.12  455H :  0.12  432H :  0.12   14H :  0.11  143H :  0.11  348H :  0.11   75H :  0.11
   67O :  0.11  525H :  0.11   61O :  0.11  465H :  0.10  116H :  0.10  108H :  0.10  145O :  0.10  180H :  0.09  418O :  0.09   34O :  0.09  437H :  0.09  339H :  0.09
  233H :  0.08  251H :  0.08  152H :  0.08   77H :  0.08  380H :  0.08  290H :  0.08  264H :  0.08  156H :  0.08  228H :  0.08  194H :  0.08  375H :  0.08  231H :  0.08
   90H :  0.08  113H :  0.08  344H :  0.07  139O :  0.07   27H :  0.07  386H :  0.07  318H :  0.07
    9 LP   *******   0.01  11.41272   3.05265  -9.11309  244O :  3.64  166O :  3.17  346O :  2.33  298O :  2.23  121O :  2.21  220O :  2.15  430O :  1.73   19O :  1.69  172O :  1.68  325O :  1.67  118O :  1.64  238O :  1.61
   31O :  1.57  217O :  1.54  250O :  1.42  103O :  1.32  400O :  1.31   58O :  1.26  484O :  1.25  151O :  1.24  133O :  1.24  307O :  1.23   16O :  1.23   25O :  1.17
  478O :  1.14   22O :  1.13  424O :  1.12  310O :  1.10  181O :  1.08   64O :  1.06  205O :  1.06  196O :  1.05   28O :  1.02   13O :  1.01  517O :  0.97  337O :  0.97
  451O :  0.94  262O :  0.90  397O :  0.89  493O :  0.89  355O :  0.87    7O :  0.85   97O :  0.85  142O :  0.84  229O :  0.81  439O :  0.81  136O :  0.80   10O :  0.80
  292O :  0.80  448O :  0.79  259O :  0.79  112O :  0.79   43O :  0.78   88O :  0.78  496O :  0.76   73O :  0.75  364O :  0.74  514O :  0.74  211O :  0.72  523O :  0.72
  436O :  0.72  445O :  0.72  106O :  0.72   91O :  0.70  232O :  0.69  367O :  0.68  490O :  0.68  526O :  0.65  178O :  0.64   49O :  0.63  343O :  0.62  265O :  0.61
  409O :  0.61  286O :  0.61   76O :  0.60  349O :  0.60  370O :  0.59  502O :  0.57    1O :  0.57  124O :  0.56  316O :  0.56  373O :  0.56  463O :  0.55   94O :  0.55
  160O :  0.53   40O :  0.53  427O :  0.53  442O :  0.53  253O :  0.51  454O :  0.50  460O :  0.50  505O :  0.49  340O :  0.47  304O :  0.47  301O :  0.46  193O :  0.46
  154O :  0.46  499O :  0.44  187O :  0.43  256O :  0.43  529O :  0.41   70O :  0.40  163O :  0.40  241O :  0.40  277O :  0.39  487O :  0.39  274O :  0.39  208O :  0.38
  457O :  0.38   52O :  0.38  169O :  0.37  406O :  0.37  433O :  0.36  226O :  0.36  319O :  0.36  190O :  0.36    4O :  0.35  115O :  0.35  283O :  0.35   82O :  0.35
  334O :  0.35  415O :  0.33  328O :  0.33  475O :  0.32  511O :  0.32  235O :  0.31  289O :  0.29  247O :  0.29  148O :  0.29  214O :  0.29  358O :  0.29   32H :  0.29
  391O :  0.28   85O :  0.28  206H :  0.28  100O :  0.27  109O :  0.27  295O :  0.27   55O :  0.27  412O :  0.27  379O :  0.26   46O :  0.25  175O :  0.25  184O :  0.25
  322O :  0.24  130O :  0.24  352O :  0.24  376O :  0.24  119H :  0.23  421O :  0.23  271O :  0.23  157O :  0.23  173H :  0.22  268O :  0.21  403O :  0.20   79O :  0.19
  469O :  0.19  472O :  0.18  105H :  0.18  385O :  0.17  198H :  0.17  481O :  0.17   98H :  0.17  294H :  0.17  357H :  0.17  280O :  0.16   17H :  0.16  466O :  0.16
  361O :  0.16  382O :  0.16   26H :  0.15   37O :  0.15  441H :  0.15  219H :  0.15  312H :  0.14  388O :  0.13  134H :  0.13  240H :  0.13  199O :  0.13  127O :  0.13
  313O :  0.13  501H :  0.12  342H :  0.12  331O :  0.12  291H :  0.12  455H :  0.12  432H :  0.11   14H :  0.11  143H :  0.11  348H :  0.10   75H :  0.10   67O :  0.10
  525H :  0.10   61O :  0.10  465H :  0.10  145O :  0.09  418O :  0.09  116H :  0.09  108H :  0.09  180H :  0.09  437H :  0.08   34O :  0.08  339H :  0.08  233H :  0.08
  251H :  0.08  152H :  0.08   77H :  0.08  380H :  0.08  290H :  0.08  264H :  0.08  228H :  0.08  156H :  0.08  194H :  0.07  375H :  0.07  231H :  0.07   90H :  0.07
  113H :  0.07   60H :  0.07  344H :  0.07  248H :  0.07  139O :  0.07
   10 LP   *******   0.01  -0.76078   1.71044  -6.77725  118O :  3.42  166O :  3.11  346O :  2.29  298O :  2.20  121O :  2.17  220O :  2.11  244O :  1.78  430O :  1.67   19O :  1.66  172O :  1.65  325O :  1.64  238O :  1.58
   31O :  1.52  217O :  1.51  250O :  1.40  103O :  1.30  400O :  1.29   58O :  1.23  133O :  1.23  484O :  1.23  151O :  1.22  307O :  1.21   16O :  1.21   25O :  1.15
  478O :  1.12   22O :  1.11  424O :  1.11  310O :  1.08  181O :  1.07  205O :  1.04  196O :  1.03   64O :  1.03   28O :  1.00   13O :  0.99  517O :  0.96  337O :  0.95
  451O :  0.92  262O :  0.89  397O :  0.88  493O :  0.87  355O :  0.86   97O :  0.84    7O :  0.83  142O :  0.82  229O :  0.79  136O :  0.79  439O :  0.79   10O :  0.78
  292O :  0.78  448O :  0.78  259O :  0.77  112O :  0.77   43O :  0.77   88O :  0.76  496O :  0.74   73O :  0.74  364O :  0.73  514O :  0.73  211O :  0.71  523O :  0.71
  436O :  0.70  445O :  0.70  106O :  0.70   91O :  0.69  232O :  0.68  490O :  0.68  367O :  0.67  526O :  0.64  178O :  0.63  343O :  0.61   49O :  0.60  265O :  0.60
  409O :  0.60  349O :  0.60  286O :  0.60   76O :  0.59  370O :  0.58  502O :  0.56    1O :  0.56  124O :  0.55  316O :  0.55  373O :  0.55  463O :  0.54   94O :  0.54
  160O :  0.52   40O :  0.52  442O :  0.52  427O :  0.51  460O :  0.51  253O :  0.50  454O :  0.50  505O :  0.49  340O :  0.46  304O :  0.46  301O :  0.45  193O :  0.45
  154O :  0.45  499O :  0.43  187O :  0.43  256O :  0.42  529O :  0.40   70O :  0.40  163O :  0.39  241O :  0.39  277O :  0.39  487O :  0.38  274O :  0.38  208O :  0.38
  457O :  0.37   52O :  0.37  169O :  0.36  226O :  0.36  406O :  0.36  433O :  0.36  319O :  0.35  190O :  0.35    4O :  0.35  115O :  0.34  283O :  0.34   82O :  0.34
  334O :  0.34  415O :  0.33  328O :  0.32  475O :  0.31  511O :  0.31  235O :  0.31  289O :  0.29  247O :  0.29  358O :  0.28  214O :  0.28  148O :  0.28   32H :  0.28
  391O :  0.27   85O :  0.27  206H :  0.27  100O :  0.27  109O :  0.27  295O :  0.27   55O :  0.26  412O :  0.26  379O :  0.26   46O :  0.25  175O :  0.25  184O :  0.25
  322O :  0.24  130O :  0.23  352O :  0.23  376O :  0.23  421O :  0.23  271O :  0.23  157O :  0.22  173H :  0.22  268O :  0.21  119H :  0.20  403O :  0.20   79O :  0.19
  469O :  0.19  472O :  0.17  105H :  0.17  385O :  0.17  198H :  0.17  481O :  0.17   98H :  0.17  294H :  0.16  357H :  0.16  280O :  0.16   17H :  0.16  466O :  0.15
  361O :  0.15  134H :  0.15  382O :  0.15   26H :  0.15   37O :  0.15  219H :  0.14  441H :  0.14  312H :  0.14  388O :  0.13  240H :  0.13  199O :  0.13  127O :  0.13
  313O :  0.13  455H :  0.12  501H :  0.12  342H :  0.12  331O :  0.12  291H :  0.11  432H :  0.11   14H :  0.11  143H :  0.11  348H :  0.10   75H :  0.10   67O :  0.10
  525H :  0.10   61O :  0.10  465H :  0.10  418O :  0.09  116H :  0.09  108H :  0.09  145O :  0.09  180H :  0.09  437H :  0.08   34O :  0.08  339H :  0.08  233H :  0.08
  251H :  0.08  152H :  0.08  380H :  0.08   77H :  0.08  290H :  0.08  264H :  0.07  156H :  0.07  228H :  0.07  194H :  0.07  375H :  0.07  231H :  0.07   90H :  0.07
  113H :  0.07   60H :  0.07
   11 LP   *******   0.01   6.82993  -2.41139  -7.09083  217O :  3.28  166O :  3.03  346O :  2.22  298O :  2.13  121O :  2.11  220O :  2.02  244O :  1.73  430O :  1.62   19O :  1.61  172O :  1.61  325O :  1.60  118O :  1.57
   31O :  1.50  238O :  1.49  250O :  1.36  103O :  1.26  400O :  1.25   58O :  1.20  484O :  1.19  133O :  1.19  151O :  1.19  307O :  1.18   16O :  1.18   25O :  1.12
  478O :  1.09   22O :  1.08  424O :  1.07  310O :  1.05  181O :  1.04  205O :  1.01   64O :  1.00  196O :  1.00   28O :  0.97   13O :  0.96  517O :  0.93  337O :  0.93
  451O :  0.89  262O :  0.86  397O :  0.85  493O :  0.85  355O :  0.83    7O :  0.81   97O :  0.81  142O :  0.80  229O :  0.77  136O :  0.77  439O :  0.76   10O :  0.76
  292O :  0.76  448O :  0.76  259O :  0.75  112O :  0.75   43O :  0.74   88O :  0.74  496O :  0.72   73O :  0.72  364O :  0.71  514O :  0.71  523O :  0.69  211O :  0.69
  436O :  0.68  445O :  0.68  106O :  0.68   91O :  0.67  232O :  0.66  367O :  0.65  490O :  0.65  526O :  0.62  178O :  0.61   49O :  0.60  343O :  0.60  265O :  0.59
  409O :  0.58  349O :  0.58  286O :  0.58   76O :  0.58  370O :  0.56    1O :  0.54  502O :  0.54  124O :  0.54  316O :  0.54  373O :  0.53  463O :  0.53   94O :  0.52
  160O :  0.50   40O :  0.50  427O :  0.50  442O :  0.50  460O :  0.49  253O :  0.49  454O :  0.48  505O :  0.47  340O :  0.45  304O :  0.45  301O :  0.44  193O :  0.44
  154O :  0.43  499O :  0.42  187O :  0.41  256O :  0.41  529O :  0.39   70O :  0.38  163O :  0.38  241O :  0.38  277O :  0.38  487O :  0.37  274O :  0.37  208O :  0.36
  457O :  0.36  169O :  0.35   52O :  0.35  226O :  0.35  433O :  0.35  319O :  0.34  190O :  0.34    4O :  0.34  406O :  0.33  283O :  0.33  115O :  0.33   82O :  0.33
  334O :  0.33  415O :  0.32  328O :  0.31  475O :  0.31  511O :  0.30  235O :  0.30  289O :  0.28  247O :  0.28  148O :  0.28  214O :  0.28  358O :  0.28   32H :  0.27
  391O :  0.27   85O :  0.27  206H :  0.26  100O :  0.26  109O :  0.26  295O :  0.26   55O :  0.26  412O :  0.25  379O :  0.25   46O :  0.24  175O :  0.24  184O :  0.24
  322O :  0.23  130O :  0.23  376O :  0.22  352O :  0.22  119H :  0.22  421O :  0.22  271O :  0.22  157O :  0.22  173H :  0.21  268O :  0.20  403O :  0.20   79O :  0.18
  469O :  0.18  472O :  0.17  105H :  0.17  385O :  0.17  198H :  0.16  481O :  0.16   98H :  0.16  294H :  0.16  357H :  0.16  280O :  0.15   17H :  0.15  466O :  0.15
  361O :  0.15  382O :  0.15   26H :  0.15   37O :  0.15  441H :  0.13  312H :  0.13  388O :  0.13  134H :  0.13  127O :  0.12  313O :  0.12  199O :  0.12  501H :  0.12
  342H :  0.12  331O :  0.12  291H :  0.11  455H :  0.11  219H :  0.11  432H :  0.10   14H :  0.10  143H :  0.10  348H :  0.10   75H :  0.10   67O :  0.10  525H :  0.10
   61O :  0.10  465H :  0.09  418O :  0.09  116H :  0.09  108H :  0.09  145O :  0.09  180H :  0.08  437H :  0.08   34O :  0.08  339H :  0.08  233H :  0.08  251H :  0.08
  152H :  0.08   77H :  0.07  380H :  0.07  290H :  0.07  264H :  0.07  156H :  0.07  228H :  0.07  194H :  0.07  375H :  0.07
   12 LP   *******   0.01 -13.35399   1.86307   2.90424  151O :  3.29  166O :  2.98  346O :  2.18  298O :  2.10  121O :  2.08  220O :  2.02  244O :  1.70  430O :  1.60   19O :  1.59  172O :  1.58  325O :  1.57  118O :  1.54
  238O :  1.51   31O :  1.48  217O :  1.45  250O :  1.34  103O :  1.24  400O :  1.23   58O :  1.18  484O :  1.17  133O :  1.17  307O :  1.16   16O :  1.16   25O :  1.10
  478O :  1.07   22O :  1.07  424O :  1.06  310O :  1.03  181O :  1.02   64O :  0.99  205O :  0.99  196O :  0.98   28O :  0.96   13O :  0.95  517O :  0.92  337O :  0.91
  451O :  0.88  262O :  0.85  397O :  0.84  493O :  0.83  355O :  0.82    7O :  0.80   97O :  0.80  142O :  0.79  229O :  0.76  136O :  0.75  439O :  0.75   10O :  0.75
  292O :  0.75  112O :  0.75  448O :  0.75  259O :  0.74   43O :  0.73   88O :  0.73  496O :  0.71   73O :  0.71  364O :  0.70  514O :  0.70  211O :  0.68  523O :  0.68
  436O :  0.67  445O :  0.67  106O :  0.67   91O :  0.66  232O :  0.65  367O :  0.64  490O :  0.64  526O :  0.61  178O :  0.60   49O :  0.59  343O :  0.59  265O :  0.58
  409O :  0.57  349O :  0.57  286O :  0.57   76O :  0.57  370O :  0.55    1O :  0.53  502O :  0.53  124O :  0.53  316O :  0.53  373O :  0.52  463O :  0.52   94O :  0.51
  160O :  0.50   40O :  0.50  427O :  0.49  442O :  0.49  460O :  0.49  253O :  0.48  454O :  0.47  505O :  0.46  340O :  0.44  304O :  0.44  301O :  0.43  193O :  0.43
  154O :  0.43  499O :  0.41  187O :  0.41  256O :  0.40  529O :  0.38   70O :  0.38  163O :  0.37  241O :  0.37  277O :  0.37  487O :  0.37  274O :  0.36  208O :  0.36
  457O :  0.35   52O :  0.35  169O :  0.35  226O :  0.34  406O :  0.34  433O :  0.34  319O :  0.34  190O :  0.34    4O :  0.33  115O :  0.33  283O :  0.33   82O :  0.33
  334O :  0.33  415O :  0.31  328O :  0.31  475O :  0.30  511O :  0.30  235O :  0.29  289O :  0.28  247O :  0.27  358O :  0.27  148O :  0.27   32H :  0.27  214O :  0.26
  412O :  0.26  391O :  0.26   85O :  0.26  206H :  0.26  100O :  0.26  109O :  0.26  295O :  0.25   55O :  0.25  379O :  0.24   46O :  0.24  175O :  0.24  184O :  0.24
  322O :  0.23  130O :  0.22  352O :  0.22  376O :  0.22  119H :  0.22  421O :  0.22  271O :  0.22  157O :  0.22  173H :  0.21  268O :  0.20  403O :  0.19  469O :  0.18
   79O :  0.18  472O :  0.17  105H :  0.17  385O :  0.16  198H :  0.16  481O :  0.16   98H :  0.16  294H :  0.16  357H :  0.16  280O :  0.15   17H :  0.15  466O :  0.15
  361O :  0.15  382O :  0.15   26H :  0.14   37O :  0.14  219H :  0.14  441H :  0.13  312H :  0.13  388O :  0.13  134H :  0.12  240H :  0.12  199O :  0.12  127O :  0.12
  313O :  0.12  501H :  0.12  342H :  0.12  331O :  0.11  291H :  0.11  455H :  0.11  432H :  0.10   14H :  0.10   75H :  0.10  414H :  0.10  348H :  0.10   67O :  0.10
  525H :  0.09   61O :  0.09  465H :  0.09  418O :  0.09  116H :  0.09  108H :  0.09  145O :  0.09  180H :  0.08  143H :  0.08  437H :  0.08   34O :  0.08  339H :  0.08
  233H :  0.07  251H :  0.07   77H :  0.07  380H :  0.07  290H :  0.07  264H :  0.07  156H :  0.07  228H :  0.07
   13 LP   *******   0.01  -1.99178  -1.66331  -8.39627   31O :  3.19  166O :  2.86  346O :  2.10  298O :  2.02  121O :  2.00  220O :  1.95  244O :  1.63  430O :  1.54   19O :  1.53  172O :  1.52  325O :  1.51  118O :  1.48
  238O :  1.46  217O :  1.39  250O :  1.28  400O :  1.20  103O :  1.19   58O :  1.13  484O :  1.13  133O :  1.13  151O :  1.13  307O :  1.11   16O :  1.11   25O :  1.06
  478O :  1.03   22O :  1.03  424O :  1.02  310O :  0.99  181O :  0.98   64O :  0.97  205O :  0.95  196O :  0.95   28O :  0.92   13O :  0.91  517O :  0.88  337O :  0.88
  451O :  0.85  262O :  0.82  397O :  0.81  493O :  0.80  355O :  0.79   97O :  0.78    7O :  0.77  142O :  0.76  229O :  0.73  136O :  0.73  439O :  0.72   10O :  0.72
  292O :  0.72  448O :  0.72  259O :  0.71  112O :  0.71   88O :  0.70  496O :  0.68   73O :  0.68  364O :  0.67  514O :  0.67  211O :  0.65  523O :  0.65  436O :  0.65
  445O :  0.65  106O :  0.65   43O :  0.65   91O :  0.63  232O :  0.63  367O :  0.62  490O :  0.61  526O :  0.59  178O :  0.58  343O :  0.57   49O :  0.56  265O :  0.55
  409O :  0.55  349O :  0.55  286O :  0.55   76O :  0.55  370O :  0.53  502O :  0.51    1O :  0.51  124O :  0.51  316O :  0.51  373O :  0.50  463O :  0.50   94O :  0.49
  160O :  0.48   40O :  0.48  427O :  0.48  442O :  0.47  460O :  0.47  253O :  0.46  454O :  0.45  505O :  0.45  340O :  0.43  304O :  0.42  301O :  0.42  193O :  0.41
  154O :  0.41  499O :  0.40  187O :  0.39  256O :  0.39  529O :  0.37   70O :  0.36  163O :  0.36  241O :  0.36  277O :  0.36  487O :  0.35  274O :  0.35  208O :  0.35
  457O :  0.34  169O :  0.33  226O :  0.33  406O :  0.33  433O :  0.33   52O :  0.33  319O :  0.33  190O :  0.32    4O :  0.32  115O :  0.32  283O :  0.32   82O :  0.32
  334O :  0.31  415O :  0.30  328O :  0.30  475O :  0.29  511O :  0.28  235O :  0.28  289O :  0.26  247O :  0.26  148O :  0.26  358O :  0.26  214O :  0.26  391O :  0.25
   85O :  0.25  206H :  0.25  100O :  0.25  109O :  0.25  295O :  0.24   55O :  0.24  412O :  0.24  379O :  0.24  119H :  0.23   46O :  0.23  175O :  0.23  184O :  0.23
  322O :  0.22  130O :  0.21  352O :  0.21  376O :  0.21  421O :  0.21  271O :  0.21  157O :  0.21   32H :  0.20  173H :  0.20  268O :  0.19  403O :  0.18   79O :  0.17
  469O :  0.17  472O :  0.16  105H :  0.16  385O :  0.16  198H :  0.16   98H :  0.15  481O :  0.15  294H :  0.15  357H :  0.15  280O :  0.15   17H :  0.14  466O :  0.14
  361O :  0.14  382O :  0.14   26H :  0.14   37O :  0.14  219H :  0.13  441H :  0.12  312H :  0.12  388O :  0.12  240H :  0.12  134H :  0.12  199O :  0.12  127O :  0.12
  313O :  0.12  501H :  0.11  342H :  0.11  331O :  0.11  291H :  0.11  455H :  0.11  432H :  0.10   14H :  0.10  143H :  0.10  348H :  0.09   75H :  0.09   67O :  0.09
  525H :  0.09   61O :  0.09  465H :  0.09  418O :  0.08  116H :  0.08  108H :  0.08  145O :  0.08  180H :  0.08  437H :  0.08   34O :  0.08  339H :  0.07  344H :  0.07
  233H :  0.07  251H :  0.07  152H :  0.07   77H :  0.07  380H :  0.07  290H :  0.07
   14 LP   *******   0.01   9.18938   6.30732  -1.35143  484O :  2.85  166O :  2.85  346O :  2.09  298O :  2.00  121O :  1.98  220O :  1.93  244O :  1.62  430O :  1.52   19O :  1.51  172O :  1.51  325O :  1.50  118O :  1.47
  238O :  1.45   31O :  1.41  217O :  1.38  250O :  1.27  103O :  1.18  400O :  1.17   58O :  1.13  133O :  1.12  151O :  1.12  307O :  1.11   16O :  1.11   25O :  1.05
   22O :  1.02  478O :  1.01  310O :  0.99  424O :  0.98  181O :  0.97   64O :  0.95  205O :  0.95  196O :  0.94   28O :  0.92   13O :  0.90  517O :  0.87  337O :  0.87
  451O :  0.84  262O :  0.81  397O :  0.80  493O :  0.79  355O :  0.78   97O :  0.76    7O :  0.76  142O :  0.75  229O :  0.72  136O :  0.72  439O :  0.72   10O :  0.72
  292O :  0.72  448O :  0.71  259O :  0.71  112O :  0.70   43O :  0.70   88O :  0.70  496O :  0.68   73O :  0.68  364O :  0.67  514O :  0.67  211O :  0.65  523O :  0.65
  436O :  0.64  445O :  0.64  106O :  0.64   91O :  0.63  232O :  0.62  367O :  0.61  490O :  0.61  526O :  0.59  178O :  0.57   49O :  0.56  343O :  0.56  265O :  0.55
  409O :  0.55  349O :  0.55  286O :  0.54   76O :  0.54  370O :  0.53  502O :  0.51    1O :  0.51  124O :  0.51  316O :  0.50  373O :  0.50  463O :  0.50   94O :  0.49
  160O :  0.47   40O :  0.47  427O :  0.47  442O :  0.47  460O :  0.47  253O :  0.46  454O :  0.45  505O :  0.44  340O :  0.42  304O :  0.42  301O :  0.41  193O :  0.41
  154O :  0.41  499O :  0.39  187O :  0.39  256O :  0.38  529O :  0.36   70O :  0.36  163O :  0.36  241O :  0.36  115O :  0.35  277O :  0.35  487O :  0.35  274O :  0.35
  208O :  0.34  457O :  0.34   52O :  0.34  169O :  0.33  226O :  0.33  406O :  0.33  433O :  0.33  319O :  0.32  190O :  0.32    4O :  0.32  283O :  0.31   82O :  0.31
  334O :  0.31  415O :  0.30  328O :  0.29  475O :  0.29  511O :  0.28  235O :  0.28  289O :  0.26  247O :  0.26  358O :  0.26  148O :  0.26  214O :  0.26   32H :  0.26
  391O :  0.25   85O :  0.25  206H :  0.25  100O :  0.24  109O :  0.24  295O :  0.24   55O :  0.24  412O :  0.24  379O :  0.23   46O :  0.23  175O :  0.22  184O :  0.22
  322O :  0.22  130O :  0.21  352O :  0.21  376O :  0.21  119H :  0.21  421O :  0.21  271O :  0.21  157O :  0.20  173H :  0.20  116H :  0.19  268O :  0.19  403O :  0.18
  469O :  0.17   79O :  0.17  472O :  0.16  105H :  0.16  385O :  0.16  198H :  0.15  481O :  0.15   98H :  0.15  294H :  0.15  357H :  0.15  280O :  0.15   17H :  0.14
  466O :  0.14  361O :  0.14  382O :  0.14   26H :  0.14   37O :  0.14  219H :  0.13  441H :  0.12  312H :  0.12  388O :  0.12  134H :  0.12  240H :  0.12  199O :  0.12
  127O :  0.12  313O :  0.12  501H :  0.11  342H :  0.11  331O :  0.11  291H :  0.10  455H :  0.10  432H :  0.10   14H :  0.10  143H :  0.10  348H :  0.09   67O :  0.09
   75H :  0.09  180H :  0.09  525H :  0.09   61O :  0.09  465H :  0.09  418O :  0.08  108H :  0.08  145O :  0.08  437H :  0.08   34O :  0.08  339H :  0.07  233H :  0.07
   77H :  0.07  251H :  0.07  152H :  0.07  380H :  0.07
   15 LP   *******   0.01   5.16408  13.12752  -3.55304  478O :  2.94  166O :  2.77  346O :  2.04  298O :  1.96  121O :  1.94  220O :  1.88  244O :  1.58  430O :  1.49   19O :  1.48  172O :  1.47  325O :  1.46  118O :  1.44
  238O :  1.41   31O :  1.38  217O :  1.35  250O :  1.24  103O :  1.15  400O :  1.14   58O :  1.10  133O :  1.09  151O :  1.09  484O :  1.08  307O :  1.08   16O :  1.08
   25O :  1.02  424O :  1.00   22O :  0.99  310O :  0.96  181O :  0.95   64O :  0.92  205O :  0.92  196O :  0.92   28O :  0.89   13O :  0.88  517O :  0.85  337O :  0.85
  451O :  0.82  262O :  0.79  397O :  0.78  493O :  0.77  355O :  0.76    7O :  0.74   97O :  0.74  142O :  0.73  229O :  0.71  136O :  0.70  439O :  0.70   10O :  0.70
  292O :  0.70  448O :  0.69  259O :  0.69  112O :  0.69   43O :  0.68   88O :  0.68  496O :  0.66   73O :  0.66  364O :  0.65  514O :  0.65  211O :  0.63  523O :  0.63
  436O :  0.63  445O :  0.63  106O :  0.63   91O :  0.61  232O :  0.61  367O :  0.60  490O :  0.59  178O :  0.58  526O :  0.57   49O :  0.55  343O :  0.55  265O :  0.54
  409O :  0.53  286O :  0.53  349O :  0.53   76O :  0.53  370O :  0.52  502O :  0.50    1O :  0.50  124O :  0.49  316O :  0.49  373O :  0.49  463O :  0.48   94O :  0.48
  160O :  0.46   40O :  0.46  427O :  0.46  442O :  0.46  253O :  0.45  454O :  0.44  460O :  0.44  505O :  0.43  340O :  0.41  304O :  0.41  301O :  0.40  193O :  0.40
  154O :  0.40  499O :  0.38  187O :  0.38  529O :  0.36   70O :  0.35  163O :  0.35  241O :  0.35  277O :  0.35  487O :  0.34  274O :  0.34  208O :  0.33  256O :  0.33
  457O :  0.33   52O :  0.33  169O :  0.32  226O :  0.32  406O :  0.32  433O :  0.32  319O :  0.32  190O :  0.31    4O :  0.31  115O :  0.31  283O :  0.31   82O :  0.30
  334O :  0.30  415O :  0.29  328O :  0.29  475O :  0.28  511O :  0.28  235O :  0.27  289O :  0.26  247O :  0.25  358O :  0.25  148O :  0.25  214O :  0.25   32H :  0.25
  391O :  0.24   85O :  0.24  206H :  0.24  100O :  0.24  109O :  0.24  295O :  0.24   55O :  0.24  412O :  0.23  379O :  0.23   46O :  0.22  175O :  0.22  184O :  0.22
  322O :  0.21  130O :  0.21  352O :  0.21  376O :  0.21  119H :  0.20  421O :  0.20  271O :  0.20  157O :  0.20  173H :  0.19  268O :  0.19  403O :  0.18   79O :  0.17
  469O :  0.17  472O :  0.16  105H :  0.15  385O :  0.15  198H :  0.15  481O :  0.15   98H :  0.15  294H :  0.15  357H :  0.14  280O :  0.14   17H :  0.14  466O :  0.14
  361O :  0.14  382O :  0.14   26H :  0.13   37O :  0.13  219H :  0.13  441H :  0.12  312H :  0.12  388O :  0.12  240H :  0.12  134H :  0.12  199O :  0.11  127O :  0.11
  313O :  0.11  501H :  0.11  342H :  0.11  331O :  0.11  291H :  0.10  455H :  0.10  432H :  0.10   14H :  0.09  143H :  0.09  348H :  0.09   75H :  0.09   67O :  0.09
  525H :  0.09   61O :  0.09  465H :  0.09  116H :  0.08  418O :  0.08  108H :  0.08  145O :  0.08  180H :  0.08  437H :  0.07   34O :  0.07  339H :  0.07
   16 LP   *******   0.01   6.38428   4.16004 -12.05580  172O :  3.14  166O :  2.78  346O :  2.04  298O :  1.96  121O :  1.94  220O :  1.89  244O :  1.59  430O :  1.49   19O :  1.48  325O :  1.47  118O :  1.44  238O :  1.41
   31O :  1.38  217O :  1.35  250O :  1.25  103O :  1.16  400O :  1.15   58O :  1.10  484O :  1.10  133O :  1.09  151O :  1.09  307O :  1.08   16O :  1.08   25O :  1.03
  478O :  1.00   22O :  1.00  424O :  0.99  310O :  0.97  181O :  0.95   64O :  0.93  205O :  0.93  196O :  0.92   28O :  0.89   13O :  0.88  517O :  0.85  337O :  0.85
  451O :  0.82  262O :  0.79  397O :  0.78  493O :  0.78  355O :  0.76    7O :  0.75   97O :  0.75  142O :  0.73  229O :  0.71  136O :  0.70  439O :  0.70   10O :  0.70
  292O :  0.70  448O :  0.70  259O :  0.69  112O :  0.69   43O :  0.68   88O :  0.68  496O :  0.66   73O :  0.66  364O :  0.65  514O :  0.65  211O :  0.63  523O :  0.63
  436O :  0.63  445O :  0.63  106O :  0.63   91O :  0.62  232O :  0.61  367O :  0.60  490O :  0.59  526O :  0.57  178O :  0.56   49O :  0.55  343O :  0.55  265O :  0.54
  409O :  0.53  286O :  0.53   76O :  0.53  349O :  0.52  370O :  0.52  502O :  0.50    1O :  0.50  124O :  0.50  316O :  0.49  373O :  0.49  463O :  0.49   94O :  0.48
  160O :  0.46   40O :  0.46  442O :  0.46  427O :  0.46  460O :  0.45  253O :  0.45  454O :  0.44  505O :  0.43  340O :  0.42  304O :  0.41  301O :  0.41  193O :  0.40
  154O :  0.40  499O :  0.38  187O :  0.38  256O :  0.38  529O :  0.36   70O :  0.35  163O :  0.35  241O :  0.35  277O :  0.35  487O :  0.34  274O :  0.34  208O :  0.34
  457O :  0.33   52O :  0.33  169O :  0.32  226O :  0.32  406O :  0.32  433O :  0.32  319O :  0.32  190O :  0.32    4O :  0.31  115O :  0.31  283O :  0.31   82O :  0.31
  334O :  0.31  415O :  0.29  328O :  0.29  475O :  0.28  511O :  0.28  235O :  0.27  289O :  0.26  358O :  0.26  247O :  0.25  148O :  0.25  214O :  0.25   32H :  0.25
  391O :  0.24   85O :  0.24  206H :  0.24  100O :  0.24  109O :  0.24  295O :  0.24   55O :  0.24  412O :  0.23  379O :  0.23   46O :  0.22  175O :  0.22  184O :  0.22
  322O :  0.21  130O :  0.21  352O :  0.21  376O :  0.21  119H :  0.20  421O :  0.20  271O :  0.20  157O :  0.20  268O :  0.19  403O :  0.18  173H :  0.17   79O :  0.17
  469O :  0.17  472O :  0.16  105H :  0.15  385O :  0.15  198H :  0.15  481O :  0.15   98H :  0.15  294H :  0.15  357H :  0.14  280O :  0.14   17H :  0.14  466O :  0.14
  361O :  0.14  382O :  0.14   26H :  0.13   37O :  0.13  219H :  0.13  441H :  0.12  312H :  0.12  388O :  0.12  432H :  0.12  240H :  0.12  134H :  0.12  199O :  0.11
  127O :  0.11  313O :  0.11  501H :  0.11  342H :  0.11  331O :  0.11  291H :  0.10  455H :  0.10   14H :  0.09  143H :  0.09  348H :  0.09   75H :  0.09   67O :  0.09
  525H :  0.09   61O :  0.09  465H :  0.09  418O :  0.08  116H :  0.08  108H :  0.08  145O :  0.08  180H :  0.08  437H :  0.07   34O :  0.07  339H :  0.07
   17 LP   *******   0.01   8.56617  -5.86599   1.13297  121O :  3.45  166O :  2.70  346O :  1.98  298O :  1.91  220O :  1.84  244O :  1.54  430O :  1.45   19O :  1.44  172O :  1.44  325O :  1.43  118O :  1.40  238O :  1.37
   31O :  1.34  217O :  1.32  250O :  1.21  103O :  1.13  400O :  1.12   58O :  1.07  484O :  1.07  133O :  1.06  151O :  1.06  307O :  1.05   16O :  1.01   25O :  1.00
  478O :  0.97   22O :  0.97  424O :  0.96  310O :  0.94  181O :  0.93   64O :  0.90  205O :  0.90  196O :  0.89   28O :  0.87   13O :  0.86  517O :  0.83  337O :  0.83
  451O :  0.80  262O :  0.77  397O :  0.76  493O :  0.76  355O :  0.74    7O :  0.73   97O :  0.72  142O :  0.71  229O :  0.69  136O :  0.69  439O :  0.68  292O :  0.68
  448O :  0.68  259O :  0.67   10O :  0.67  112O :  0.67   43O :  0.66   88O :  0.66  496O :  0.65   73O :  0.64  364O :  0.63  514O :  0.63  211O :  0.62  523O :  0.61
  106O :  0.61  436O :  0.61  445O :  0.61   91O :  0.60  232O :  0.59  367O :  0.58  490O :  0.58  526O :  0.56  178O :  0.55   49O :  0.54  343O :  0.53  265O :  0.52
  409O :  0.52  349O :  0.52  286O :  0.52   76O :  0.51  370O :  0.50    1O :  0.49  502O :  0.49  124O :  0.48  316O :  0.48  373O :  0.47  463O :  0.47   94O :  0.47
  160O :  0.45   40O :  0.45  427O :  0.45  442O :  0.45  460O :  0.44  253O :  0.44  454O :  0.43  505O :  0.42  340O :  0.40  304O :  0.40  301O :  0.39  193O :  0.39
  154O :  0.39  499O :  0.37  187O :  0.37  256O :  0.36  529O :  0.35   70O :  0.34  241O :  0.34  163O :  0.34  277O :  0.34  487O :  0.33  208O :  0.33  274O :  0.32
  457O :  0.32   52O :  0.32  169O :  0.32  226O :  0.31  406O :  0.31  433O :  0.31  319O :  0.31  190O :  0.31    4O :  0.30  115O :  0.30  283O :  0.30   82O :  0.30
  334O :  0.30  415O :  0.29  328O :  0.28  475O :  0.27  511O :  0.27  235O :  0.26  247O :  0.26  289O :  0.25  358O :  0.25  148O :  0.25  214O :  0.25   32H :  0.24
  391O :  0.24   85O :  0.24  206H :  0.24  100O :  0.23  109O :  0.23  295O :  0.23   55O :  0.23  412O :  0.23  379O :  0.22   46O :  0.21  175O :  0.21  184O :  0.21
  322O :  0.21  130O :  0.20  352O :  0.20  376O :  0.20  119H :  0.20  421O :  0.20  271O :  0.19  157O :  0.19  173H :  0.19  268O :  0.18  403O :  0.17   79O :  0.16
  469O :  0.16  472O :  0.15  105H :  0.15  385O :  0.15  198H :  0.15  481O :  0.15   98H :  0.15  294H :  0.14  357H :  0.14  280O :  0.14   17H :  0.14  466O :  0.13
  361O :  0.13  382O :  0.13   26H :  0.13   37O :  0.13  219H :  0.13  441H :  0.12  312H :  0.12  388O :  0.12  134H :  0.11  240H :  0.11  199O :  0.11  127O :  0.11
  313O :  0.11  501H :  0.11  342H :  0.11  331O :  0.10  291H :  0.10  455H :  0.10  432H :  0.09   14H :  0.09  143H :  0.09  418O :  0.09  348H :  0.09   75H :  0.09
   67O :  0.09  525H :  0.09   61O :  0.09  465H :  0.08  248H :  0.08  116H :  0.08  108H :  0.08  145O :  0.08  180H :  0.08   34O :  0.07  437H :  0.07  339H :  0.07
   18 LP   *******   0.01 -18.71099 -17.81358  24.65428  166O :  2.70   58O :  2.66  346O :  1.98  298O :  1.90  121O :  1.89  220O :  1.84  244O :  1.54  430O :  1.45   19O :  1.44  172O :  1.43  325O :  1.42  118O :  1.40
  238O :  1.37   31O :  1.34  217O :  1.31  250O :  1.21  103O :  1.13  400O :  1.12  484O :  1.06  133O :  1.06  151O :  1.06   16O :  1.05  307O :  1.05   25O :  1.00
  478O :  0.97  424O :  0.96   22O :  0.96  310O :  0.94  181O :  0.92   64O :  0.90  205O :  0.90  196O :  0.89   28O :  0.87   13O :  0.86  517O :  0.83  337O :  0.83
  451O :  0.80  262O :  0.77  397O :  0.76  493O :  0.75  355O :  0.74    7O :  0.72   97O :  0.72  142O :  0.71   10O :  0.69  229O :  0.69  136O :  0.68  439O :  0.68
  292O :  0.68  448O :  0.68  259O :  0.67  112O :  0.67   43O :  0.66   88O :  0.66  496O :  0.65   73O :  0.64  364O :  0.63  514O :  0.63  211O :  0.62  523O :  0.61
  436O :  0.61  445O :  0.61  106O :  0.61   91O :  0.60  232O :  0.59  367O :  0.58  490O :  0.58  526O :  0.56  178O :  0.55   49O :  0.54  343O :  0.53  265O :  0.52
  409O :  0.52  349O :  0.52  286O :  0.52   76O :  0.51  370O :  0.50  502O :  0.49    1O :  0.48  124O :  0.48  316O :  0.48  373O :  0.47  463O :  0.47   94O :  0.47
  160O :  0.45   40O :  0.45  427O :  0.45  442O :  0.45  460O :  0.44  253O :  0.44  454O :  0.43  505O :  0.42  340O :  0.40  301O :  0.39  304O :  0.39  193O :  0.39
  154O :  0.39  187O :  0.37  499O :  0.37  256O :  0.36  529O :  0.35   70O :  0.34  163O :  0.34  241O :  0.34  277O :  0.34  274O :  0.33  487O :  0.33  208O :  0.33
  457O :  0.32   52O :  0.32  169O :  0.32  226O :  0.31  406O :  0.31  433O :  0.31  319O :  0.31  190O :  0.31    4O :  0.30  115O :  0.30  283O :  0.30   82O :  0.30
  334O :  0.30  415O :  0.28  328O :  0.28  475O :  0.27  511O :  0.27  235O :  0.26  289O :  0.25  358O :  0.25  247O :  0.25  148O :  0.25  214O :  0.25   32H :  0.24
  391O :  0.24   85O :  0.24  109O :  0.24  206H :  0.24  100O :  0.23  295O :  0.23   55O :  0.23  412O :  0.23  379O :  0.22   46O :  0.21  175O :  0.21  184O :  0.21
  322O :  0.21  130O :  0.20  352O :  0.20  376O :  0.20  119H :  0.20  421O :  0.20  271O :  0.20  157O :  0.19  173H :  0.19  268O :  0.18  403O :  0.17   79O :  0.16
  469O :  0.16  472O :  0.15  385O :  0.15  198H :  0.15  105H :  0.15  481O :  0.15   98H :  0.15  294H :  0.14  357H :  0.14  280O :  0.14   17H :  0.14  466O :  0.13
  361O :  0.13  382O :  0.13   26H :  0.13   37O :  0.13  219H :  0.13  441H :  0.12  312H :  0.12  388O :  0.11  134H :  0.11  240H :  0.11  199O :  0.11  127O :  0.11
  313O :  0.11  501H :  0.11  342H :  0.11  331O :  0.10  291H :  0.10  455H :  0.10  432H :  0.09  104H :  0.09   14H :  0.09  143H :  0.09  348H :  0.09   75H :  0.09
   67O :  0.09  525H :  0.09   61O :  0.09  465H :  0.08  418O :  0.08  116H :  0.08  108H :  0.08  145O :  0.08  180H :  0.08  437H :  0.07   34O :  0.07  339H :  0.07
   19 LP   *******   0.01  -6.74650   5.93606  -2.35681  181O :  2.92  166O :  2.69  346O :  1.97  298O :  1.90  121O :  1.88  220O :  1.83  244O :  1.53  430O :  1.44   19O :  1.43  172O :  1.43  325O :  1.42  118O :  1.39
  238O :  1.37   31O :  1.34  217O :  1.31  250O :  1.21  103O :  1.12  400O :  1.11   58O :  1.06  484O :  1.06  151O :  1.06  133O :  1.05  307O :  1.05   16O :  1.05
   25O :  0.99  478O :  0.96   22O :  0.96  424O :  0.95  310O :  0.93   64O :  0.90  205O :  0.90  196O :  0.89   28O :  0.86   13O :  0.85  517O :  0.83  337O :  0.82
  451O :  0.79  262O :  0.77  397O :  0.76  493O :  0.74  355O :  0.74    7O :  0.72   97O :  0.72  142O :  0.71  229O :  0.68  136O :  0.68  439O :  0.68   10O :  0.68
  292O :  0.68  448O :  0.67  259O :  0.67  112O :  0.67   43O :  0.66   88O :  0.66  496O :  0.64   73O :  0.64  364O :  0.63  514O :  0.63  211O :  0.61  523O :  0.61
  436O :  0.61  445O :  0.61  106O :  0.61   91O :  0.59  232O :  0.59  367O :  0.58  526O :  0.55  178O :  0.55   49O :  0.53  490O :  0.53  343O :  0.53  265O :  0.52
  409O :  0.52  349O :  0.52  286O :  0.51   76O :  0.51  370O :  0.50  502O :  0.48    1O :  0.48  124O :  0.48  316O :  0.48  373O :  0.47  463O :  0.47   94O :  0.46
   40O :  0.45  160O :  0.45  427O :  0.45  442O :  0.45  253O :  0.44  460O :  0.44  454O :  0.43  505O :  0.42  340O :  0.40  304O :  0.40  301O :  0.39  193O :  0.39
  154O :  0.39  499O :  0.37  187O :  0.37  256O :  0.36  529O :  0.34   70O :  0.34  163O :  0.34  241O :  0.34  277O :  0.33  487O :  0.33  274O :  0.33  208O :  0.32
  457O :  0.32   52O :  0.32  169O :  0.31  226O :  0.31  406O :  0.31  433O :  0.31  190O :  0.31  319O :  0.31    4O :  0.30  115O :  0.30  283O :  0.30   82O :  0.30
  334O :  0.30  415O :  0.28  328O :  0.28  475O :  0.27  511O :  0.27  235O :  0.26  289O :  0.25  247O :  0.25  358O :  0.25  148O :  0.25  214O :  0.24   32H :  0.24
  391O :  0.24   85O :  0.24  206H :  0.23  100O :  0.23  109O :  0.23  295O :  0.23   55O :  0.23  412O :  0.23  379O :  0.22   46O :  0.21  175O :  0.21  184O :  0.21
  157O :  0.21  322O :  0.21  130O :  0.20  352O :  0.20  376O :  0.20  119H :  0.20  421O :  0.20  271O :  0.19  173H :  0.19  268O :  0.18  403O :  0.17   79O :  0.16
  469O :  0.16  472O :  0.15  105H :  0.15  385O :  0.15  198H :  0.15   98H :  0.15  481O :  0.14  294H :  0.14  357H :  0.14  280O :  0.14   17H :  0.14  466O :  0.13
  361O :  0.13  382O :  0.13   37O :  0.13   26H :  0.13  219H :  0.12  441H :  0.12  312H :  0.12  388O :  0.11  240H :  0.11  134H :  0.11  199O :  0.11  127O :  0.11
  313O :  0.11  501H :  0.11  342H :  0.10  331O :  0.10  291H :  0.10  455H :  0.10  432H :  0.09   14H :  0.09  143H :  0.09   61O :  0.09  348H :  0.09   67O :  0.09
  525H :  0.09  465H :  0.08   75H :  0.08  418O :  0.08  116H :  0.08  108H :  0.08  145O :  0.08  180H :  0.08  437H :  0.07   34O :  0.07
   20 LP   *******   0.01 -40.15977  -5.44329  49.84223  166O :  2.56  205O :  2.46  346O :  1.88  298O :  1.81  121O :  1.79  220O :  1.74  244O :  1.46  430O :  1.37   19O :  1.36  172O :  1.36  325O :  1.35  118O :  1.33
  238O :  1.30   31O :  1.27  217O :  1.25  250O :  1.15  103O :  1.07  400O :  1.06  206H :  1.06   58O :  1.01  484O :  1.01  133O :  1.01  151O :  1.01  307O :  1.00
   16O :  1.00   25O :  0.95  478O :  0.92   22O :  0.92  424O :  0.91  310O :  0.89  181O :  0.88   64O :  0.85  196O :  0.85   28O :  0.82   13O :  0.81  517O :  0.79
  337O :  0.79  451O :  0.76  262O :  0.73  397O :  0.72  493O :  0.72  355O :  0.70    7O :  0.69   97O :  0.69  142O :  0.68  229O :  0.65  136O :  0.65  439O :  0.65
   10O :  0.65  292O :  0.65  448O :  0.64  259O :  0.64  112O :  0.64   43O :  0.63   88O :  0.63  496O :  0.61   73O :  0.61  364O :  0.60  514O :  0.60  211O :  0.58
  523O :  0.58  436O :  0.58  106O :  0.58  445O :  0.58   91O :  0.57  232O :  0.56  367O :  0.55  490O :  0.55  526O :  0.53  178O :  0.52   49O :  0.51  343O :  0.50
  265O :  0.50  409O :  0.49  349O :  0.49  286O :  0.49   76O :  0.49  370O :  0.48  502O :  0.46    1O :  0.46  124O :  0.46  316O :  0.45  463O :  0.45   94O :  0.44
  373O :  0.43  160O :  0.43   40O :  0.43  427O :  0.43  442O :  0.42  460O :  0.42  253O :  0.42  454O :  0.41  505O :  0.40  340O :  0.38  304O :  0.38  301O :  0.37
  193O :  0.37  154O :  0.37  499O :  0.35  187O :  0.35  256O :  0.35  529O :  0.33   70O :  0.33  163O :  0.32  241O :  0.32  277O :  0.32  487O :  0.32  274O :  0.31
  208O :  0.31  457O :  0.30   52O :  0.30  169O :  0.30  226O :  0.30  406O :  0.30  433O :  0.29  319O :  0.29  190O :  0.29    4O :  0.29  115O :  0.28  283O :  0.28
   82O :  0.28  334O :  0.28  415O :  0.27  328O :  0.27  475O :  0.26  511O :  0.25  235O :  0.25  289O :  0.24  247O :  0.23  358O :  0.23  148O :  0.23  214O :  0.23
   32H :  0.23  391O :  0.23   85O :  0.22  100O :  0.22  109O :  0.22  295O :  0.22   55O :  0.22  412O :  0.22  379O :  0.21   46O :  0.20  175O :  0.20  184O :  0.20
  322O :  0.20  130O :  0.19  352O :  0.19  376O :  0.19  119H :  0.19  421O :  0.19  271O :  0.19  157O :  0.18  173H :  0.18  268O :  0.17  403O :  0.17   79O :  0.16
  469O :  0.15  472O :  0.14  105H :  0.14  385O :  0.14  198H :  0.14  481O :  0.14   98H :  0.14  294H :  0.13  357H :  0.13  280O :  0.13   17H :  0.13  466O :  0.13
  361O :  0.13  382O :  0.13   26H :  0.12   37O :  0.12  219H :  0.12  441H :  0.11  312H :  0.11  388O :  0.11  240H :  0.11  134H :  0.11  199O :  0.11  127O :  0.10
  313O :  0.10  501H :  0.10  342H :  0.10  331O :  0.10  291H :  0.09  455H :  0.09  432H :  0.09   14H :  0.09  143H :  0.09  348H :  0.08   75H :  0.08   67O :  0.08
  525H :  0.08   61O :  0.08  465H :  0.08  156H :  0.08  418O :  0.08  116H :  0.08  108H :  0.08  145O :  0.07  180H :  0.07
   21 LP   *******   0.01 -27.76045  12.20889  26.67612  166O :  2.56   28O :  2.56  346O :  1.88  298O :  1.81  121O :  1.79  220O :  1.74  244O :  1.46  430O :  1.37   19O :  1.36  172O :  1.36  325O :  1.35  118O :  1.33
  238O :  1.30   31O :  1.27  217O :  1.25  250O :  1.15  103O :  1.07  400O :  1.06   58O :  1.02  484O :  1.01  133O :  1.01  151O :  1.01  307O :  1.00   16O :  1.00
   25O :  0.95  478O :  0.92   22O :  0.92  424O :  0.91  310O :  0.89  181O :  0.88   64O :  0.85  205O :  0.85  196O :  0.85   13O :  0.81  517O :  0.79  337O :  0.79
  451O :  0.76  262O :  0.73  397O :  0.72  493O :  0.72  355O :  0.70    7O :  0.70   97O :  0.69  142O :  0.68  229O :  0.65  136O :  0.65  439O :  0.65   10O :  0.65
  292O :  0.65  448O :  0.64  259O :  0.64  112O :  0.63   43O :  0.63   88O :  0.63  496O :  0.61   73O :  0.61  364O :  0.60  514O :  0.60  211O :  0.58  523O :  0.58
  436O :  0.58  445O :  0.58  106O :  0.58   91O :  0.57  232O :  0.56  367O :  0.55  490O :  0.55  526O :  0.53  178O :  0.52   49O :  0.51  343O :  0.50  265O :  0.50
  409O :  0.49  349O :  0.49  286O :  0.49   76O :  0.49  370O :  0.48  502O :  0.46    1O :  0.46  124O :  0.46  316O :  0.45  373O :  0.45  463O :  0.45   94O :  0.44
  160O :  0.43   40O :  0.43  427O :  0.43  442O :  0.42  460O :  0.42  253O :  0.41  454O :  0.41  505O :  0.40  340O :  0.38  304O :  0.38  301O :  0.37  193O :  0.37
  154O :  0.37  499O :  0.35  187O :  0.35  256O :  0.35  529O :  0.33   70O :  0.33  163O :  0.32  277O :  0.32  487O :  0.32  274O :  0.31  208O :  0.31  457O :  0.30
   52O :  0.30  241O :  0.30  169O :  0.30  226O :  0.30  406O :  0.29  433O :  0.29  319O :  0.29  190O :  0.29    4O :  0.29  115O :  0.28  283O :  0.28   82O :  0.28
  334O :  0.28  415O :  0.27  328O :  0.27  475O :  0.26  511O :  0.25  235O :  0.25  289O :  0.24  247O :  0.23  358O :  0.23  148O :  0.23  214O :  0.23   32H :  0.23
  391O :  0.22   85O :  0.22  206H :  0.22  100O :  0.22  295O :  0.22  109O :  0.22   55O :  0.22  412O :  0.22  379O :  0.21   46O :  0.20  175O :  0.20  184O :  0.20
  322O :  0.20  130O :  0.19  352O :  0.19  376O :  0.19  119H :  0.19  421O :  0.19  271O :  0.19  157O :  0.18  173H :  0.18  268O :  0.17  403O :  0.17   79O :  0.16
  469O :  0.15  472O :  0.14  105H :  0.14  385O :  0.14  481O :  0.14  198H :  0.14   98H :  0.14  294H :  0.13  357H :  0.13  280O :  0.13   17H :  0.13  466O :  0.13
  361O :  0.13  382O :  0.13   26H :  0.12   37O :  0.12  219H :  0.12  441H :  0.11  312H :  0.11  388O :  0.11  240H :  0.11  134H :  0.11    9H :  0.11  199O :  0.11
  127O :  0.10  313O :  0.10  501H :  0.10  342H :  0.10  331O :  0.10  291H :  0.09  455H :  0.09  432H :  0.09   14H :  0.09  143H :  0.09  348H :  0.08   75H :  0.08
   67O :  0.08  525H :  0.08   61O :  0.08  465H :  0.08  418O :  0.08  116H :  0.08  108H :  0.07  145O :  0.07  180H :  0.07
   22 LP   *******   0.01   6.61114  -1.84472  -7.25933  238O :  2.58  166O :  2.46  346O :  1.81  298O :  1.74  121O :  1.72  220O :  1.67  244O :  1.41  430O :  1.32   19O :  1.31  172O :  1.31  325O :  1.30  118O :  1.28
[...]
   144   1 h    0.879 --   142 o    0.808
   145   8 o    1.865 --   147 h    0.850   146 h    0.836
   146   1 h    0.891 --   145 o    0.836
   147   1 h    0.899 --   145 o    0.850
   148   8 o    1.838 --   149 h    0.920   150 h    0.800
   149   1 h    0.924 --   148 o    0.920
   150   1 h    0.876 --   148 o    0.800
   151   8 o    1.855 --   152 h    0.826   153 h    0.804
   152   1 h    0.892 --   151 o    0.826
   153   1 h    0.881 --   151 o    0.804
   154   8 o    1.839 --   156 h    0.899   155 h    0.821
   155   1 h    0.879 --   154 o    0.821
   156   1 h    0.909 --   154 o    0.899
   157   8 o    1.891 --   158 h    0.822   159 h    0.799
   158   1 h    0.891 --   157 o    0.822
   159   1 h    0.872 --   157 o    0.799
   160   8 o    1.847 --   162 h    0.835   161 h    0.814
   161   1 h    0.884 --   160 o    0.814
   162   1 h    0.878 --   160 o    0.835
   163   8 o    1.860 --   164 h    0.849   165 h    0.815
   164   1 h    0.893 --   163 o    0.849
   165   1 h    0.889 --   163 o    0.815
   166   8 o    1.858 --   168 h    0.821   167 h    0.815
   167   1 h    0.879 --   166 o    0.815
   168   1 h    0.889 --   166 o    0.821
   169   8 o    1.853 --   171 h    0.880   170 h    0.850
   170   1 h    0.888 --   169 o    0.850
   171   1 h    0.905 --   169 o    0.880
   172   8 o    1.855 --   173 h    0.849   174 h    0.796
   173   1 h    0.893 --   172 o    0.849
   174   1 h    0.871 --   172 o    0.796
   175   8 o    1.856 --   176 h    0.860   177 h    0.815
   176   1 h    0.900 --   175 o    0.860
   177   1 h    0.885 --   175 o    0.815
   178   8 o    1.870 --   179 h    0.870   180 h    0.794
   179   1 h    0.896 --   178 o    0.870
   180   1 h    0.866 --   178 o    0.794
   181   8 o    1.869 --   182 h    0.820   183 h    0.815
   182   1 h    0.886 --   181 o    0.820
   183   1 h    0.883 --   181 o    0.815
   184   8 o    1.841 --   186 h    0.857   185 h    0.848
   185   1 h    0.893 --   184 o    0.848
   186   1 h    0.897 --   184 o    0.857
   187   8 o    1.839 --   188 h    0.868   189 h    0.834
   188   1 h    0.897 --   187 o    0.868
   189   1 h    0.889 --   187 o    0.834
   190   8 o    1.862 --   192 h    0.840   191 h    0.821
   191   1 h    0.880 --   190 o    0.821
   192   1 h    0.895 --   190 o    0.840
   193   8 o    1.820 --   195 h    0.849   194 h    0.827
   194   1 h    0.889 --   193 o    0.827
   195   1 h    0.896 --   193 o    0.849
   196   8 o    1.828 --   197 h    0.868   198 h    0.838
   197   1 h    0.900 --   196 o    0.868
   198   1 h    0.892 --   196 o    0.838
   199   8 o    1.878 --   201 h    0.865   200 h    0.835
   200   1 h    0.870 --   199 o    0.835
   201   1 h    0.898 --   199 o    0.865
   202   8 o    1.830 --   203 h    0.831   204 h    0.828
   203   1 h    0.891 --   202 o    0.831
   204   1 h    0.890 --   202 o    0.828
   205   8 o    1.837 --   206 h    0.858   207 h    0.825
   206   1 h    0.895 --   205 o    0.858
   207   1 h    0.888 --   205 o    0.825
   208   8 o    1.854 --   210 h    0.869   209 h    0.810
   209   1 h    0.878 --   208 o    0.810
   210   1 h    0.898 --   208 o    0.869
   211   8 o    1.827 --   212 h    0.847   213 h    0.819
   212   1 h    0.899 --   211 o    0.847
   213   1 h    0.885 --   211 o    0.819
   214   8 o    1.855 --   215 h    0.843   216 h    0.794
   215   1 h    0.897 --   214 o    0.843
   216   1 h    0.878 --   214 o    0.794
   217   8 o    1.879 --   218 h    0.830   219 h    0.824
   218   1 h    0.885 --   217 o    0.830
   219   1 h    0.879 --   217 o    0.824
   220   8 o    1.874 --   222 h    0.917   221 h    0.785
   221   1 h    0.874 --   220 o    0.785
   222   1 h    0.923 --   220 o    0.917
   223   8 o    1.868 --   225 h    0.837   224 h    0.802
   224   1 h    0.875 --   223 o    0.802
   225   1 h    0.896 --   223 o    0.837
   226   8 o    1.851 --   228 h    0.852   227 h    0.772
   227   1 h    0.874 --   226 o    0.772
   228   1 h    0.889 --   226 o    0.852
   229   8 o    1.848 --   231 h    0.812   230 h    0.769
   230   1 h    0.871 --   229 o    0.769
   231   1 h    0.886 --   229 o    0.812
   232   8 o    1.851 --   234 h    0.874   233 h    0.851
   233   1 h    0.898 --   232 o    0.851
   234   1 h    0.898 --   232 o    0.874
   235   8 o    1.861 --   236 h    0.842   237 h    0.817
   236   1 h    0.895 --   235 o    0.842
   237   1 h    0.874 --   235 o    0.817
   238   8 o    1.863 --   240 h    0.822   239 h    0.810
   239   1 h    0.883 --   238 o    0.810
   240   1 h    0.883 --   238 o    0.822
   241   8 o    1.870 --   243 h    0.833   242 h    0.828
   242   1 h    0.888 --   241 o    0.828
   243   1 h    0.890 --   241 o    0.833
   244   8 o    1.872 --   245 h    0.831   246 h    0.822
   245   1 h    0.890 --   244 o    0.831
   246   1 h    0.876 --   244 o    0.822
   247   8 o    1.859 --   249 h    0.843   248 h    0.814
   248   1 h    0.881 --   247 o    0.814
   249   1 h    0.896 --   247 o    0.843
   250   8 o    1.872 --   251 h    0.838   252 h    0.795
   251   1 h    0.894 --   250 o    0.838
   252   1 h    0.875 --   250 o    0.795
   253   8 o    1.863 --   254 h    0.873   255 h    0.832
   254   1 h    0.897 --   253 o    0.873
   255   1 h    0.875 --   253 o    0.832
   256   8 o    1.858 --   258 h    0.918   257 h    0.770
   257   1 h    0.874 --   256 o    0.770
   258   1 h    0.923 --   256 o    0.918
   259   8 o    1.863 --   261 h    0.836   260 h    0.823
   260   1 h    0.888 --   259 o    0.823
   261   1 h    0.891 --   259 o    0.836
   262   8 o    1.861 --   263 h    0.838   264 h    0.817
   263   1 h    0.892 --   262 o    0.838
   264   1 h    0.887 --   262 o    0.817
   265   8 o    1.808 --   267 h    0.882   266 h    0.844
   266   1 h    0.891 --   265 o    0.844
   267   1 h    0.902 --   265 o    0.882
   268   8 o    1.884 --   269 h    0.845   270 h    0.814
   269   1 h    0.896 --   268 o    0.845
   270   1 h    0.884 --   268 o    0.814
   271   8 o    1.866 --   273 h    0.880   272 h    0.815
   272   1 h    0.886 --   271 o    0.815
   273   1 h    0.904 --   271 o    0.880
   274   8 o    1.862 --   275 h    0.827   276 h    0.805
   275   1 h    0.895 --   274 o    0.827
   276   1 h    0.880 --   274 o    0.805
   277   8 o    1.854 --   278 h    0.865   279 h    0.840
   278   1 h    0.896 --   277 o    0.865
   279   1 h    0.887 --   277 o    0.840
   280   8 o    1.843 --   282 h    0.858   281 h    0.831
   281   1 h    0.888 --   280 o    0.831
   282   1 h    0.898 --   280 o    0.858
   283   8 o    1.861 --   285 h    0.909   284 h    0.850
   284   1 h    0.884 --   283 o    0.850
   285   1 h    0.914 --   283 o    0.909
   286   8 o    1.858 --   287 h    0.828   288 h    0.817
   287   1 h    0.882 --   286 o    0.828
   288   1 h    0.886 --   286 o    0.817
   289   8 o    1.858 --   290 h    0.865   291 h    0.810
   290   1 h    0.903 --   289 o    0.865
   291   1 h    0.874 --   289 o    0.810
   292   8 o    1.850 --   294 h    0.854   293 h    0.845
   293   1 h    0.886 --   292 o    0.845
   294   1 h    0.893 --   292 o    0.854
   295   8 o    1.843 --   297 h    0.864   296 h    0.837
   296   1 h    0.885 --   295 o    0.837
   297   1 h    0.903 --   295 o    0.864
   298   8 o    1.844 --   299 h    0.886   300 h    0.843
   299   1 h    0.904 --   298 o    0.886
   300   1 h    0.891 --   298 o    0.843
   301   8 o    1.860 --   302 h    0.865   303 h    0.846
   302   1 h    0.897 --   301 o    0.865
   303   1 h    0.885 --   301 o    0.846
   304   8 o    1.855 --   306 h    0.844   305 h    0.833
   305   1 h    0.891 --   304 o    0.833
   306   1 h    0.889 --   304 o    0.844
   307   8 o    1.805 --   309 h    0.842   308 h    0.840
   308   1 h    0.899 --   307 o    0.840
   309   1 h    0.891 --   307 o    0.842
   310   8 o    1.822 --   312 h    0.853   311 h    0.816
   311   1 h    0.879 --   310 o    0.816
   312   1 h    0.893 --   310 o    0.853
   313   8 o    1.836 --   315 h    0.900   314 h    0.802
   314   1 h    0.878 --   313 o    0.802
   315   1 h    0.914 --   313 o    0.900
   316   8 o    1.848 --   317 h    0.913   318 h    0.802
   317   1 h    0.921 --   316 o    0.913
   318   1 h    0.878 --   316 o    0.802
   319   8 o    1.868 --   321 h    0.858   320 h    0.784
   320   1 h    0.873 --   319 o    0.784
   321   1 h    0.895 --   319 o    0.858
   322   8 o    1.843 --   324 h    0.824   323 h    0.789
   323   1 h    0.879 --   322 o    0.789
   324   1 h    0.890 --   322 o    0.824
   325   8 o    1.845 --   326 h    0.816   327 h    0.792
   326   1 h    0.885 --   325 o    0.816
   327   1 h    0.869 --   325 o    0.792
   328   8 o    1.853 --   330 h    0.913   329 h    0.796
   329   1 h    0.883 --   328 o    0.796
   330   1 h    0.921 --   328 o    0.913
   331   8 o    1.864 --   333 h    0.878   332 h    0.832
   332   1 h    0.888 --   331 o    0.832
   333   1 h    0.898 --   331 o    0.878
   334   8 o    1.859 --   335 h    0.859   336 h    0.852
   335   1 h    0.895 --   334 o    0.859
   336   1 h    0.890 --   334 o    0.852
   337   8 o    1.891 --   339 h    0.851   338 h    0.798
   338   1 h    0.873 --   337 o    0.798
   339   1 h    0.890 --   337 o    0.851
   340   8 o    1.831 --   342 h    0.886   341 h    0.805
   341   1 h    0.879 --   340 o    0.805
   342   1 h    0.907 --   340 o    0.886
   343   8 o    1.880 --   345 h    0.827   344 h    0.824
   344   1 h    0.883 --   343 o    0.824
   345   1 h    0.890 --   343 o    0.827
   346   8 o    1.871 --   347 h    0.858   348 h    0.819
   347   1 h    0.896 --   346 o    0.858
   348   1 h    0.884 --   346 o    0.819
   349   8 o    1.873 --   350 h    0.841   351 h    0.784
   350   1 h    0.889 --   349 o    0.841
   351   1 h    0.873 --   349 o    0.784
   352   8 o    1.858 --   353 h    0.867   354 h    0.854
   353   1 h    0.898 --   352 o    0.867
   354   1 h    0.894 --   352 o    0.854
   355   8 o    1.835 --   357 h    0.858   356 h    0.847
   356   1 h    0.896 --   355 o    0.847
   357   1 h    0.890 --   355 o    0.858
   358   8 o    1.812 --   359 h    0.876   360 h    0.825
   359   1 h    0.902 --   358 o    0.876
   360   1 h    0.888 --   358 o    0.825
   361   8 o    1.848 --   362 h    0.869   363 h    0.836
   362   1 h    0.900 --   361 o    0.869
   363   1 h    0.893 --   361 o    0.836
   364   8 o    1.847 --   365 h    0.903   366 h    0.779
   365   1 h    0.913 --   364 o    0.903
   366   1 h    0.873 --   364 o    0.779
   367   8 o    1.837 --   368 h    0.899   369 h    0.858
   368   1 h    0.910 --   367 o    0.899
   369   1 h    0.895 --   367 o    0.858
   370   8 o    1.849 --   372 h    0.902   371 h    0.770
   371   1 h    0.862 --   370 o    0.770
   372   1 h    0.910 --   370 o    0.902
   373   8 o    1.854 --   375 h    0.857   374 h    0.822
   374   1 h    0.880 --   373 o    0.822
   375   1 h    0.895 --   373 o    0.857
   376   8 o    1.868 --   377 h    0.914   378 h    0.784
   377   1 h    0.918 --   376 o    0.914
   378   1 h    0.868 --   376 o    0.784
   379   8 o    1.823 --   381 h    0.857   380 h    0.834
   380   1 h    0.889 --   379 o    0.834
   381   1 h    0.900 --   379 o    0.857
   382   8 o    1.853 --   384 h    0.889   383 h    0.850
   383   1 h    0.890 --   382 o    0.850
   384   1 h    0.904 --   382 o    0.889
   385   8 o    1.862 --   386 h    0.839   387 h    0.837
   386   1 h    0.885 --   385 o    0.839
   387   1 h    0.882 --   385 o    0.837
   388   8 o    1.866 --   390 h    0.857   389 h    0.802
   389   1 h    0.871 --   388 o    0.802
   390   1 h    0.897 --   388 o    0.857
   391   8 o    1.857 --   393 h    0.884   392 h    0.805
   392   1 h    0.882 --   391 o    0.805
   393   1 h    0.904 --   391 o    0.884
   394   8 o    1.844 --   395 h    0.839   396 h    0.823
   395   1 h    0.887 --   394 o    0.839
   396   1 h    0.878 --   394 o    0.823
   397   8 o    1.860 --   399 h    0.837   398 h    0.823
   398   1 h    0.893 --   397 o    0.823
   399   1 h    0.888 --   397 o    0.837
   400   8 o    1.856 --   402 h    0.832   401 h    0.823
   401   1 h    0.878 --   400 o    0.823
   402   1 h    0.894 --   400 o    0.832
   403   8 o    1.847 --   404 h    0.870   405 h    0.816
   404   1 h    0.904 --   403 o    0.870
   405   1 h    0.879 --   403 o    0.816
   406   8 o    1.882 --   407 h    0.849   408 h    0.833
   407   1 h    0.892 --   406 o    0.849
   408   1 h    0.893 --   406 o    0.833
   409   8 o    1.845 --   411 h    0.861   410 h    0.831
   410   1 h    0.891 --   409 o    0.831
   411   1 h    0.894 --   409 o    0.861
   412   8 o    1.821 --   413 h    0.807   414 h    0.801
   413   1 h    0.878 --   412 o    0.807
   414   1 h    0.879 --   412 o    0.801
   415   8 o    1.853 --   417 h    0.850   416 h    0.795
   416   1 h    0.873 --   415 o    0.795
   417   1 h    0.896 --   415 o    0.850
   418   8 o    1.871 --   419 h    0.879   420 h    0.819
   419   1 h    0.901 --   418 o    0.879
   420   1 h    0.882 --   418 o    0.819
   421   8 o    1.844 --   422 h    0.920   423 h    0.797
   422   1 h    0.925 --   421 o    0.920
   423   1 h    0.878 --   421 o    0.797
   424   8 o    1.865 --   425 h    0.873   426 h    0.826
   425   1 h    0.899 --   424 o    0.873
   426   1 h    0.884 --   424 o    0.826
   427   8 o    1.849 --   428 h    0.879   429 h    0.805
   428   1 h    0.906 --   427 o    0.879
   429   1 h    0.875 --   427 o    0.805
   430   8 o    1.838 --   432 h    0.898   431 h    0.813
   431   1 h    0.877 --   430 o    0.813
   432   1 h    0.911 --   430 o    0.898
   433   8 o    1.852 --   434 h    0.853   435 h    0.827
   434   1 h    0.900 --   433 o    0.853
   435   1 h    0.880 --   433 o    0.827
   436   8 o    1.849 --   438 h    0.892   437 h    0.827
   437   1 h    0.876 --   436 o    0.827
   438   1 h    0.908 --   436 o    0.892
   439   8 o    1.839 --   440 h    0.902   441 h    0.826
   440   1 h    0.912 --   439 o    0.902
   441   1 h    0.879 --   439 o    0.826
   442   8 o    1.840 --   444 h    0.914   443 h    0.822
   443   1 h    0.878 --   442 o    0.822
   444   1 h    0.922 --   442 o    0.914
   445   8 o    1.867 --   447 h    0.917   446 h    0.798
   446   1 h    0.880 --   445 o    0.798
   447   1 h    0.921 --   445 o    0.917
   448   8 o    1.826 --   449 h    0.846   450 h    0.817
   449   1 h    0.893 --   448 o    0.846
   450   1 h    0.882 --   448 o    0.817
   451   8 o    1.853 --   453 h    0.810   452 h    0.808
   452   1 h    0.877 --   451 o    0.808
   453   1 h    0.878 --   451 o    0.810
   454   8 o    1.800 --   456 h    0.829   455 h    0.813
   455   1 h    0.884 --   454 o    0.813
   456   1 h    0.891 --   454 o    0.829
   457   8 o    1.853 --   459 h    0.902   458 h    0.796
   458   1 h    0.882 --   457 o    0.796
   459   1 h    0.913 --   457 o    0.902
   460   8 o    1.868 --   461 h    0.884   462 h    0.829
   461   1 h    0.901 --   460 o    0.884
   462   1 h    0.881 --   460 o    0.829
   463   8 o    1.863 --   464 h    0.854   465 h    0.818
   464   1 h    0.895 --   463 o    0.854
   465   1 h    0.885 --   463 o    0.818
   466   8 o    1.872 --   468 h    0.828   467 h    0.807
   467   1 h    0.890 --   466 o    0.807
   468   1 h    0.891 --   466 o    0.828
   469   8 o    1.846 --   470 h    0.883   471 h    0.825
   470   1 h    0.904 --   469 o    0.883
   471   1 h    0.886 --   469 o    0.825
   472   8 o    1.828 --   474 h    0.885   473 h    0.864
   473   1 h    0.893 --   472 o    0.864
   474   1 h    0.902 --   472 o    0.885
   475   8 o    1.865 --   477 h    0.861   476 h    0.803
   476   1 h    0.871 --   475 o    0.803
   477   1 h    0.890 --   475 o    0.861
   478   8 o    1.880 --   480 h    0.828   479 h    0.827
   479   1 h    0.883 --   478 o    0.827
   480   1 h    0.881 --   478 o    0.828
   481   8 o    1.852 --   483 h    0.899   482 h    0.806
   482   1 h    0.875 --   481 o    0.806
   483   1 h    0.911 --   481 o    0.899
   484   8 o    1.874 --   486 h    0.838   485 h    0.832
   485   1 h    0.890 --   484 o    0.832
   486   1 h    0.877 --   484 o    0.838
   487   8 o    1.831 --   489 h    0.860   488 h    0.851
   488   1 h    0.893 --   487 o    0.851
   489   1 h    0.897 --   487 o    0.860
   490   8 o    1.847 --   491 h    0.808   492 h    0.805
   491   1 h    0.879 --   490 o    0.808
   492   1 h    0.883 --   490 o    0.805
   493   8 o    1.834 --   494 h    0.896   495 h    0.825
   494   1 h    0.909 --   493 o    0.896
   495   1 h    0.884 --   493 o    0.825
   496   8 o    1.838 --   498 h    0.860   497 h    0.792
   497   1 h    0.887 --   496 o    0.792
   498   1 h    0.894 --   496 o    0.860
   499   8 o    1.867 --   501 h    0.832   500 h    0.821
   500   1 h    0.873 --   499 o    0.821
   501   1 h    0.895 --   499 o    0.832
   502   8 o    1.826 --   503 h    0.861   504 h    0.850
   503   1 h    0.901 --   502 o    0.861
   504   1 h    0.893 --   502 o    0.850
   505   8 o    1.874 --   507 h    0.829   506 h    0.799
   506   1 h    0.870 --   505 o    0.799
   507   1 h    0.886 --   505 o    0.829
   508   8 o    1.859 --   509 h    0.910   510 h    0.771
   509   1 h    0.916 --   508 o    0.910
   510   1 h    0.874 --   508 o    0.771
   511   8 o    1.877 --   512 h    0.833   513 h    0.831
   512   1 h    0.887 --   511 o    0.833
   513   1 h    0.893 --   511 o    0.831
   514   8 o    1.867 --   516 h    0.909   515 h    0.831
   515   1 h    0.885 --   514 o    0.831
   516   1 h    0.914 --   514 o    0.909
   517   8 o    1.860 --   518 h    0.872   519 h    0.858
   518   1 h    0.898 --   517 o    0.872
   519   1 h    0.892 --   517 o    0.858
   520   8 o    1.867 --   522 h    0.817   521 h    0.776
   521   1 h    0.869 --   520 o    0.776
   522   1 h    0.883 --   520 o    0.817
   523   8 o    1.836 --   525 h    0.900   524 h    0.791
   524   1 h    0.874 --   523 o    0.791
   525   1 h    0.913 --   523 o    0.900
   526   8 o    1.850 --   528 h    0.884   527 h    0.830
   527   1 h    0.881 --   526 o    0.830
   528   1 h    0.890 --   526 o    0.884
   529   8 o    1.840 --   531 h    0.920   530 h    0.920
   530   1 h    0.920 --   529 o    0.920
   531   1 h    0.920 --   529 o    0.920
 ---------------------------------------------------------------------------

Topologies differ in total number of bonds
Writing topology from bond orders to xtbtopo.mol

molecular dipole:
                 x           y           z       tot (Debye)
 q only:       -4.178       1.820       1.562
   full:       -6.071       1.484       1.544      16.363
molecular quadrupole (traceless):
                xx          xy          yy          xz          yz          zz
 q only:       49.419      -2.301     -48.469     101.929     -71.013      -0.950
  q+dip:       58.476       0.389     -71.639     144.546    -103.870      13.163
   full:       59.807       0.665     -73.316     143.897    -103.960      13.509


           -------------------------------------------------
          | TOTAL ENERGY             -901.152005706339 Eh   |
          | GRADIENT NORM               0.095363737613 Eh/α |
          | HOMO-LUMO GAP               6.208152612897 eV   |
           -------------------------------------------------

------------------------------------------------------------------------
 * finished run on 2022/11/17 at 06:55:19.671     
------------------------------------------------------------------------
 total:
 * wall-time:     0 d,  0 h,  0 min, 19.934 sec
 *  cpu-time:     0 d,  0 h,  0 min, 25.675 sec
 * ratio c/w:     1.288 speedup
 SCF:
 * wall-time:     0 d,  0 h,  0 min, 19.163 sec
 *  cpu-time:     0 d,  0 h,  0 min, 24.467 sec
 * ratio c/w:     1.277 speedup

