      -----------------------------------------------------------      
     |                   =====================                   |     
     |                           x T B                           |     
     |                   =====================                   |     
     |                         S. Grimme                         |     
     |          Mulliken Center for Theoretical Chemistry        |     
     |                    University of Bonn                     |     
      -----------------------------------------------------------      

   * xtb version 6.5.1 (579679a) compiled by 'ehlert@majestix' on 2022-07-11

   xtb is free software: you can redistribute it and/or modify it under
   the terms of the GNU Lesser General Public License as published by
   the Free Software Foundation, either version 3 of the License, or
   (at your option) any later version.
   
   xtb is distributed in the hope that it will be useful,
   but WITHOUT ANY WARRANTY; without even the implied warranty of
   MERCHANTABILITY or FITNESS FOR A PARTICULAR PURPOSE.  See the
   GNU Lesser General Public License for more details.
   
   Cite this work as:
   * C. Bannwarth, E. Caldeweyher, S. Ehlert, A. Hansen, P. Pracht,
     J. Seibert, S. Spicher, S. Grimme, WIREs Comput. Mol. Sci., 2020, 11,
     e01493. DOI: 10.1002/wcms.1493
   
   for GFN2-xTB:
   * C. Bannwarth, S. Ehlert and S. Grimme., J. Chem. Theory Comput., 2019,
     15, 1652-1671. DOI: 10.1021/acs.jctc.8b01176
   for GFN1-xTB:
   * S. Grimme, C. Bannwarth, P. Shushkov, J. Chem. Theory Comput., 2017,
     13, 1989-2009. DOI: 10.1021/acs.jctc.7b00118
   for GFN0-xTB:
   * P. Pracht, E. Caldeweyher, S. Ehlert, S. Grimme, ChemRxiv, 2019, preprint.
     DOI: 10.26434/chemrxiv.8326202.v1
   for GFN-FF:
   * S. Spicher and S. Grimme, Angew. Chem. Int. Ed., 2020, 59, 15665-15673.
     DOI: 10.1002/anie.202004239
   
   for ALPB and GBSA implicit solvation:
   * S. Ehlert, M. Stahn, S. Spicher, S. Grimme, J. Chem. Theory Comput.,
     2021, 17, 4250-4261. DOI: 10.1021/acs.jctc.1c00471
   
   for DFT-D4:
   * E. Caldeweyher, C. Bannwarth and S. Grimme, J. Chem. Phys., 2017,
     147, 034112. DOI: 10.1063/1.4993215
   * E. Caldeweyher, S. Ehlert, A. Hansen, H. Neugebauer, S. Spicher,
     C. Bannwarth and S. Grimme, J. Chem. Phys., 2019, 150, 154122.
     DOI: 10.1063/1.5090222
   * E. Caldeweyher, J.-M. Mewes, S. Ehlert and S. Grimme, Phys. Chem. Chem. Phys.
     2020, 22, 8499-8512. DOI: 10.1039/D0CP00502A
   
   for sTDA-xTB:
   * S. Grimme and C. Bannwarth, J. Chem. Phys., 2016, 145, 054103.
     DOI: 10.1063/1.4959605
   
   in the mass-spec context:
   * V. Asgeirsson, C. Bauer and S. Grimme, Chem. Sci., 2017, 8, 4879.
     DOI: 10.1039/c7sc00601b
   * J. Koopman and S. Grimme, ACS Omega 2019, 4, 12, 15120-15133.
     DOI: 10.1021/acsomega.9b02011
   
   for metadynamics refer to:
   * S. Grimme, J. Chem. Theory Comput., 2019, 155, 2847-2862
     DOI: 10.1021/acs.jctc.9b00143
   
   for SPH calculations refer to:
   * S. Spicher and S. Grimme, J. Chem. Theory Comput., 2021, 17, 1701-1714
     DOI: 10.1021/acs.jctc.0c01306
   
   with help from (in alphabetical order)
   P. Atkinson, C. Bannwarth, F. Bohle, G. Brandenburg, E. Caldeweyher
   M. Checinski, S. Dohm, S. Ehlert, S. Ehrlich, I. Gerasimov, C. Hölzer
   A. Katbashev, J. Koopman, C. Lavigne, S. Lehtola, F. März, M. Müller,
   F. Musil, H. Neugebauer, J. Pisarek, C. Plett, P. Pracht, F. Pultar,
   J. Seibert, P. Shushkov, S. Spicher, M. Stahn, M. Steiner, T. Strunk,
   J. Stückrath, T. Rose, and J. Unsleber
   
 * started run on 2022/11/17 at 06:54:49.174     

           -------------------------------------------------
          |                Calculation Setup                |
           -------------------------------------------------

          program call               : xtb xtbopt.coord --gfn2 --sp --gbsa water
          hostname                   : cn0363
          coordinate file            : xtbopt.coord
          omp threads                :                     2

   ID    Z sym.   atoms
    1    8 o      1, 4, 7, 10, 13, 16, 19, 22, 25, 28, 31, 34, 37, 40, 43,
                  46, 49, 52, 55, 58, 61, 64, 67, 70, 73, 76, 79, 82, 85, 88,
                  91, 94, 97, 100, 103, 106, 109, 112, 115, 118, 121, 124,
                  127, 130, 133, 136, 139, 142, 145, 148, 151, 154, 157, 160,
                  163, 166, 169, 172, 175, 178, 181, 184, 187, 190, 193, 196,
                  199, 202, 205, 208, 211, 214, 217, 220, 223, 226, 229, 232,
                  235, 238, 241, 244, 247, 250, 253, 256, 259, 262, 265, 268,
                  271, 274, 277, 280, 283, 286, 289, 292, 295, 298, 301, 304,
                  307, 310, 313, 316, 319, 322, 325, 328, 331, 334, 337, 340,
                  343, 346, 349, 352, 355, 358, 361, 364, 367, 370, 373, 376,
                  379, 382, 385, 388, 391, 394, 397, 400, 403, 406, 409, 412,
                  415, 418, 421, 424, 427, 430, 433, 436, 439, 442, 445, 448,
                  451, 454, 457, 460, 463, 466, 469, 472, 475, 478, 481, 484,
                  487, 490, 493, 496, 499, 502, 505, 508, 511, 514, 517, 520,
                  523, 526, 529
    2    1 h      2, 3, 5, 6, 8, 9, 11, 12, 14, 15, 17, 18, 20, 21, 23, 24,
                  26, 27, 29, 30, 32, 33, 35, 36, 38, 39, 41, 42, 44, 45, 47,
                  48, 50, 51, 53, 54, 56, 57, 59, 60, 62, 63, 65, 66, 68, 69,
                  71, 72, 74, 75, 77, 78, 80, 81, 83, 84, 86, 87, 89, 90, 92,
                  93, 95, 96, 98, 99, 101, 102, 104, 105, 107, 108, 110, 111,
                  113, 114, 116, 117, 119, 120, 122, 123, 125, 126, 128, 129,
                  131, 132, 134, 135, 137, 138, 140, 141, 143, 144, 146, 147,
                  149, 150, 152, 153, 155, 156, 158, 159, 161, 162, 164, 165,
                  167, 168, 170, 171, 173, 174, 176, 177, 179, 180, 182, 183,
                  185, 186, 188, 189, 191, 192, 194, 195, 197, 198, 200, 201,
                  203, 204, 206, 207, 209, 210, 212, 213, 215, 216, 218, 219,
                  221, 222, 224, 225, 227, 228, 230, 231, 233, 234, 236, 237,
                  239, 240, 242, 243, 245, 246, 248, 249, 251, 252, 254, 255,
                  257, 258, 260, 261, 263, 264, 266, 267, 269, 270, 272, 273,
                  275, 276, 278, 279, 281, 282, 284, 285, 287, 288, 290, 291,
                  293, 294, 296, 297, 299, 300, 302, 303, 305, 306, 308, 309,
                  311, 312, 314, 315, 317, 318, 320, 321, 323, 324, 326, 327,
                  329, 330, 332, 333, 335, 336, 338, 339, 341, 342, 344, 345,
                  347, 348, 350, 351, 353, 354, 356, 357, 359, 360, 362, 363,
                  365, 366, 368, 369, 371, 372, 374, 375, 377, 378, 380, 381,
                  383, 384, 386, 387, 389, 390, 392, 393, 395, 396, 398, 399,
                  401, 402, 404, 405, 407, 408, 410, 411, 413, 414, 416, 417,
                  419, 420, 422, 423, 425, 426, 428, 429, 431, 432, 434, 435,
                  437, 438, 440, 441, 443, 444, 446, 447, 449, 450, 452, 453,
                  455, 456, 458, 459, 461, 462, 464, 465, 467, 468, 470, 471,
                  473, 474, 476, 477, 479, 480, 482, 483, 485, 486, 488, 489,
                  491, 492, 494, 495, 497, 498, 500, 501, 503, 504, 506, 507,
                  509, 510, 512, 513, 515, 516, 518, 519, 521, 522, 524, 525,
                  527, 528, 530, 531

molecular fragmentation (1/2 indicates fragments):
111222222222222222222222222222222222222222222222222222222222222222222222
222222222222222222222222222222222222222222222222222222222222222222222222
222222222222222222222222222222222222222222222222222222222222222222222222
222222222222222222222222222222222222222222222222222222222222222222222222
222222222222222222222222222222222222222222222222222222222222222222222222
222222222222222222222222222222222222222222222222222222222222222222222222
222222222222222222222222222222222222222222222222222222222222222222222222
222222222222222222222222222
# atoms in fragment 1/2:     3   528
 fragment masses (1/2) :       18.02     3170.69
CMA distance (Bohr)    :   8.154
constraining FC (au)   :  0.0500

           -------------------------------------------------
          |                 G F N 2 - x T B                 |
           -------------------------------------------------

        Reference                      10.1021/acs.jctc.8b01176
      * Hamiltonian:
        H0-scaling (s, p, d)           1.850000    2.230000    2.230000
        zeta-weighting                 0.500000
      * Dispersion:
        s8                             2.700000
        a1                             0.520000
        a2                             5.000000
        s9                             5.000000
      * Repulsion:
        kExp                           1.500000    1.000000
        rExp                           1.000000
      * Coulomb:
        alpha                          2.000000
        third order                    shell-resolved
        anisotropic                    true
        a3                             3.000000
        a5                             4.000000
        cn-shift                       1.200000
        cn-exp                         4.000000
        max-rad                        5.000000

      * Solvation model:               GBSA
        Solvent                        water
        Parameter file                 internal GFN2-xTB/GBSA
        Dielectric constant                8.0200E+01
        Reference state                gsolv [1 M gas/solution]
        Free energy shift                  1.8574E-03 Eh       1.1656E+00 kcal/mol
        Temperature                        2.9815E+02 K
        Density                            1.0000E+00 kg/L
        Solvent mass                       1.8000E+01 g/mol
        Interaction kernel             Still
        Born radius scaling (c1)           1.5524E+00
        Born radii integrator          GBOBC
        Born offset                        2.4628E-02 a0       4.6540E-02 AA
        H-bond correction              true
        Ion screening                  false
        Surface tension                    1.0000E-05 Eh       1.5569E+01 dyn/cm
        Grid points                               230 per atom

          ...................................................
          :                      SETUP                      :
          :.................................................:
          :  # basis functions                1062          :
          :  # atomic orbitals                1062          :
          :  # shells                          708          :
          :  # electrons                      1416          :
          :  max. iterations                   250          :
          :  Hamiltonian                  GFN2-xTB          :
          :  restarted?                      false          :
          :  GBSA solvation                   true          :
          :  PC potential                    false          :
          :  electronic temp.          300.0000000     K    :
          :  accuracy                    1.0000000          :
          :  -> integral cutoff          0.2500000E+02      :
          :  -> integral neglect         0.1000000E-07      :
          :  -> SCF convergence          0.1000000E-05 Eh   :
          :  -> wf. convergence          0.1000000E-03 e    :
          :  Broyden damping             0.4000000          :
          ...................................................

 iter      E             dE          RMSdq      gap      omega  full diag
   1   -906.7511317 -0.906751E+03  0.408E+00    8.56       0.0  T
   2   -906.8181587 -0.670270E-01  0.241E+00    8.23       1.0  T
   3   -906.8447127 -0.265541E-01  0.236E-01    6.97       1.0  T
   4   -906.8489202 -0.420748E-02  0.525E-02    7.37       1.0  T
   5   -906.8490894 -0.169140E-03  0.319E-02    7.27       1.0  T
   6   -906.8491247 -0.353689E-04  0.362E-03    7.29       1.2  T
   7   -906.8491258 -0.108546E-05  0.848E-04    7.29       5.1  T
   8   -906.8491259 -0.342138E-07  0.492E-04    7.29       8.8  T
   9   -906.8491259 -0.224838E-07  0.116E-04    7.29      37.5  T

   *** convergence criteria satisfied after 9 iterations ***

         #    Occupation            Energy/Eh            Energy/eV
      -------------------------------------------------------------
         1        2.0000           -0.6748660             -18.3640
       ...           ...                  ...                  ...
       702        2.0000           -0.3532763              -9.6131
       703        2.0000           -0.3524958              -9.5919
       704        2.0000           -0.3494679              -9.5095
       705        2.0000           -0.3490575              -9.4983
       706        2.0000           -0.3413599              -9.2889
       707        2.0000           -0.3290603              -8.9542
       708        2.0000           -0.3218044              -8.7567 (HOMO)
       709                         -0.0539553              -1.4682 (LUMO)
       710                         -0.0426392              -1.1603
       711                         -0.0304991              -0.8299
       712                         -0.0294462              -0.8013
       713                         -0.0218787              -0.5954
       ...                                ...                  ...
      1062                          0.5008095              13.6277
      -------------------------------------------------------------
                  HL-Gap            0.2678492 Eh            7.2885 eV
             Fermi-level           -0.1878798 Eh           -5.1125 eV

 SCC (total)                   0 d,  0 h,  0 min,  8.892 sec
 SCC setup                      ...        0 min,  0.109 sec (  1.230%)
 Dispersion                     ...        0 min,  0.071 sec (  0.797%)
 classical contributions        ...        0 min,  0.016 sec (  0.175%)
 integral evaluation            ...        0 min,  0.448 sec (  5.036%)
 iterations                     ...        0 min,  3.489 sec ( 39.235%)
 molecular gradient             ...        0 min,  4.731 sec ( 53.207%)
 printout                       ...        0 min,  0.029 sec (  0.321%)

         :::::::::::::::::::::::::::::::::::::::::::::::::::::
         ::                     SUMMARY                     ::
         :::::::::::::::::::::::::::::::::::::::::::::::::::::
         :: total energy            -901.379393091712 Eh    ::
         :: total w/o Gsasa/hb      -901.178462237480 Eh    ::
         :: gradient norm              0.095459454466 Eh/a0 ::
         :: HOMO-LUMO gap              7.288547012295 eV    ::
         ::.................................................::
         :: SCC energy              -906.849125878270 Eh    ::
         :: -> isotropic ES            5.288359559659 Eh    ::
         :: -> anisotropic ES         -1.117578483865 Eh    ::
         :: -> anisotropic XC         -0.086261655729 Eh    ::
         :: -> dispersion             -0.531435115432 Eh    ::
         :: -> Gsolv                  -0.243642675774 Eh    ::
         ::    -> Gelec               -0.042711821542 Eh    ::
         ::    -> Gsasa                0.004042612925 Eh    ::
         ::    -> Ghb                 -0.206830910284 Eh    ::
         ::    -> Gshift               0.001857443127 Eh    ::
         :: repulsion energy           5.378195092988 Eh    ::
         :: add. restraining           0.000000000000 Eh    ::
         :: total charge               0.000000000000 e     ::
         :::::::::::::::::::::::::::::::::::::::::::::::::::::

           -------------------------------------------------
          |                Property Printout                |
           -------------------------------------------------

    * Orbital Energies and Occupations

         #    Occupation            Energy/Eh            Energy/eV
      -------------------------------------------------------------
         1        2.0000           -0.6748660             -18.3640
       ...           ...                  ...                  ...
       696        2.0000           -0.3580882              -9.7441
       697        2.0000           -0.3579069              -9.7391
       698        2.0000           -0.3568662              -9.7108
       699        2.0000           -0.3544438              -9.6449
       700        2.0000           -0.3539822              -9.6323
       701        2.0000           -0.3537427              -9.6258
       702        2.0000           -0.3532763              -9.6131
       703        2.0000           -0.3524958              -9.5919
       704        2.0000           -0.3494679              -9.5095
       705        2.0000           -0.3490575              -9.4983
       706        2.0000           -0.3413599              -9.2889
       707        2.0000           -0.3290603              -8.9542
       708        2.0000           -0.3218044              -8.7567 (HOMO)
       709                         -0.0539553              -1.4682 (LUMO)
       710                         -0.0426392              -1.1603
       711                         -0.0304991              -0.8299
       712                         -0.0294462              -0.8013
       713                         -0.0218787              -0.5954
       714                         -0.0135625              -0.3691
       715                         -0.0111749              -0.3041
       716                         -0.0000601              -0.0016
       717                          0.0005110               0.0139
       718                          0.0026407               0.0719
       719                          0.0104486               0.2843
       ...                                ...                  ...
      1062                          0.5008095              13.6277
      -------------------------------------------------------------
                  HL-Gap            0.2678492 Eh            7.2885 eV
             Fermi-level           -0.1878798 Eh           -5.1125 eV

     #   Z          covCN         q      C6AA      α(0)
     1   8 o        1.607    -0.685    27.320     7.054
     2   1 h        0.804     0.331     0.634     1.251
     3   1 h        0.804     0.331     0.634     1.251
     4   8 o        1.603    -0.708    27.927     7.132
     5   1 h        0.802     0.358     0.570     1.186
     6   1 h        0.803     0.330     0.639     1.255
     7   8 o        1.608    -0.694    27.543     7.083
     8   1 h        0.804     0.347     0.596     1.213
     9   1 h        0.804     0.336     0.622     1.239
    10   8 o        1.608    -0.700    27.710     7.105
    11   1 h        0.805     0.318     0.670     1.286
    12   1 h        0.804     0.333     0.629     1.246
    13   8 o        1.609    -0.687    27.364     7.060
    14   1 h        0.804     0.333     0.630     1.247
    15   1 h        0.804     0.352     0.582     1.199
    16   8 o        1.608    -0.662    26.716     6.976
    17   1 h        0.803     0.332     0.631     1.248
    18   1 h        0.804     0.333     0.630     1.247
    19   8 o        1.607    -0.684    27.282     7.049
    20   1 h        0.803     0.330     0.637     1.254
    21   1 h        0.804     0.358     0.569     1.185
    22   8 o        1.607    -0.681    27.219     7.041
    23   1 h        0.801     0.368     0.549     1.164
    24   1 h        0.805     0.321     0.662     1.278
    25   8 o        1.607    -0.683    27.253     7.046
    26   1 h        0.804     0.338     0.618     1.235
    27   1 h        0.803     0.337     0.619     1.236
    28   8 o        1.605    -0.723    28.338     7.185
    29   1 h        0.803     0.351     0.587     1.204
    30   1 h        0.803     0.327     0.646     1.262
    31   8 o        1.610    -0.660    26.675     6.971
    32   1 h        0.805     0.326     0.648     1.265
    33   1 h        0.805     0.344     0.602     1.219
    34   8 o        1.609    -0.679    27.146     7.032
    35   1 h        0.804     0.360     0.565     1.181
    36   1 h        0.805     0.354     0.579     1.195
    37   8 o        1.609    -0.679    27.158     7.033
    38   1 h        0.804     0.341     0.610     1.227
    39   1 h        0.804     0.336     0.622     1.239
    40   8 o        1.607    -0.668    26.870     6.996
    41   1 h        0.804     0.330     0.637     1.253
    42   1 h        0.803     0.354     0.580     1.196
    43   8 o        1.606    -0.687    27.359     7.059
    44   1 h        0.802     0.366     0.554     1.169
    45   1 h        0.804     0.332     0.632     1.249
    46   8 o        1.610    -0.641    26.199     6.908
    47   1 h        0.805     0.321     0.662     1.278
    48   1 h        0.805     0.332     0.632     1.249
    49   8 o        1.608    -0.662    26.723     6.977
    50   1 h        0.804     0.318     0.670     1.286
    51   1 h        0.804     0.334     0.628     1.245
    52   8 o        1.608    -0.668    26.887     6.998
    53   1 h        0.805     0.322     0.657     1.273
    54   1 h        0.803     0.354     0.580     1.196
    55   8 o        1.610    -0.671    26.941     7.005
    56   1 h        0.805     0.335     0.625     1.242
    57   1 h        0.804     0.342     0.608     1.225
    58   8 o        1.608    -0.670    26.930     7.004
    59   1 h        0.803     0.364     0.557     1.173
    60   1 h        0.805     0.336     0.621     1.238
    61   8 o        1.609    -0.673    27.004     7.014
    62   1 h        0.804     0.338     0.616     1.233
    63   1 h        0.805     0.331     0.633     1.250
    64   8 o        1.609    -0.672    26.982     7.011
    65   1 h        0.805     0.317     0.672     1.287
    66   1 h        0.804     0.320     0.663     1.279
    67   8 o        1.604    -0.707    27.905     7.129
    68   1 h        0.803     0.349     0.590     1.207
    69   1 h        0.803     0.347     0.597     1.213
    70   8 o        1.607    -0.654    26.523     6.951
    71   1 h        0.804     0.328     0.643     1.260
    72   1 h        0.803     0.338     0.616     1.233
    73   8 o        1.606    -0.695    27.567     7.086
    74   1 h        0.802     0.350     0.587     1.204
    75   1 h        0.804     0.339     0.614     1.231
    76   8 o        1.610    -0.650    26.412     6.936
    77   1 h        0.804     0.348     0.592     1.208
    78   1 h        0.805     0.330     0.637     1.253
    79   8 o        1.609    -0.677    27.096     7.025
    80   1 h        0.804     0.362     0.561     1.176
    81   1 h        0.805     0.340     0.612     1.228
    82   8 o        1.608    -0.681    27.207     7.040
    83   1 h        0.805     0.329     0.641     1.258
    84   1 h        0.803     0.345     0.599     1.216
    85   8 o        1.607    -0.671    26.962     7.008
    86   1 h        0.806     0.318     0.668     1.284
    87   1 h        0.802     0.356     0.575     1.191
    88   8 o        1.608    -0.681    27.206     7.040
    89   1 h        0.804     0.336     0.623     1.240
    90   1 h        0.804     0.335     0.625     1.242
    91   8 o        1.605    -0.692    27.507     7.078
    92   1 h        0.803     0.339     0.615     1.232
    93   1 h        0.802     0.331     0.635     1.252
    94   8 o        1.608    -0.679    27.147     7.032
    95   1 h        0.803     0.338     0.617     1.234
    96   1 h        0.805     0.332     0.632     1.248
    97   8 o        1.608    -0.686    27.334     7.056
    98   1 h        0.803     0.345     0.599     1.216
    99   1 h        0.805     0.333     0.630     1.246
   100   8 o        1.606    -0.680    27.193     7.038
   101   1 h        0.804     0.337     0.619     1.236
   102   1 h        0.803     0.333     0.630     1.247
   103   8 o        1.609    -0.697    27.622     7.093
   104   1 h        0.804     0.334     0.627     1.243
   105   1 h        0.804     0.339     0.615     1.232
   106   8 o        1.607    -0.680    27.178     7.036
   107   1 h        0.803     0.335     0.625     1.241
   108   1 h        0.804     0.329     0.641     1.258
   109   8 o        1.607    -0.689    27.431     7.069
   110   1 h        0.803     0.354     0.578     1.195
   111   1 h        0.803     0.353     0.581     1.198
   112   8 o        1.607    -0.668    26.881     6.998
   113   1 h        0.804     0.329     0.641     1.257
   114   1 h        0.803     0.354     0.580     1.196
   115   8 o        1.607    -0.679    27.147     7.032
   116   1 h        0.803     0.354     0.579     1.195
   117   1 h        0.805     0.331     0.635     1.252
   118   8 o        1.608    -0.684    27.293     7.051
   119   1 h        0.804     0.344     0.602     1.219
   120   1 h        0.804     0.341     0.609     1.226
   121   8 o        1.607    -0.676    27.084     7.024
   122   1 h        0.804     0.334     0.627     1.244
   123   1 h        0.804     0.339     0.615     1.232
   124   8 o        1.607    -0.691    27.461     7.073
   125   1 h        0.802     0.359     0.567     1.183
   126   1 h        0.805     0.328     0.642     1.258
   127   8 o        1.607    -0.683    27.267     7.048
   128   1 h        0.804     0.336     0.623     1.240
   129   1 h        0.803     0.338     0.617     1.234
   130   8 o        1.607    -0.670    26.920     7.003
   131   1 h        0.804     0.350     0.589     1.206
   132   1 h        0.804     0.354     0.578     1.195
   133   8 o        1.607    -0.672    26.985     7.011
   134   1 h        0.806     0.327     0.644     1.260
   135   1 h        0.802     0.358     0.570     1.186
   136   8 o        1.607    -0.692    27.491     7.076
   137   1 h        0.804     0.323     0.655     1.271
   138   1 h        0.803     0.338     0.618     1.235
   139   8 o        1.607    -0.672    26.989     7.011
   140   1 h        0.803     0.318     0.669     1.285
   141   1 h        0.803     0.355     0.577     1.193
   142   8 o        1.607    -0.671    26.964     7.008
   143   1 h        0.804     0.348     0.592     1.209
   144   1 h        0.803     0.343     0.606     1.223
   145   8 o        1.608    -0.687    27.361     7.060
   146   1 h        0.803     0.342     0.606     1.223
   147   1 h        0.804     0.329     0.641     1.258
   148   8 o        1.608    -0.666    26.814     6.989
   149   1 h        0.806     0.307     0.699     1.313
   150   1 h        0.803     0.349     0.590     1.206
   151   8 o        1.607    -0.679    27.150     7.032
   152   1 h        0.803     0.327     0.645     1.262
   153   1 h        0.803     0.344     0.603     1.220
   154   8 o        1.609    -0.676    27.073     7.022
   155   1 h        0.803     0.356     0.574     1.190
   156   1 h        0.805     0.317     0.672     1.287
   157   8 o        1.607    -0.675    27.052     7.020
   158   1 h        0.803     0.332     0.633     1.250
   159   1 h        0.803     0.361     0.563     1.178
   160   8 o        1.607    -0.684    27.299     7.052
   161   1 h        0.803     0.345     0.601     1.217
   162   1 h        0.805     0.341     0.610     1.227
   163   8 o        1.606    -0.669    26.890     6.999
   164   1 h        0.804     0.332     0.633     1.250
   165   1 h        0.802     0.333     0.630     1.247
   166   8 o        1.607    -0.681    27.202     7.039
   167   1 h        0.803     0.349     0.591     1.208
   168   1 h        0.804     0.337     0.620     1.237
   169   8 o        1.609    -0.667    26.844     6.993
   170   1 h        0.804     0.344     0.601     1.218
   171   1 h        0.805     0.325     0.649     1.266
   172   8 o        1.607    -0.689    27.432     7.069
   173   1 h        0.804     0.334     0.628     1.245
   174   1 h        0.802     0.359     0.568     1.184
   175   8 o        1.607    -0.695    27.586     7.089
   176   1 h        0.804     0.329     0.641     1.257
   177   1 h        0.803     0.351     0.587     1.204
   178   8 o        1.608    -0.670    26.916     7.002
   179   1 h        0.805     0.321     0.660     1.276
   180   1 h        0.803     0.371     0.542     1.156
   181   8 o        1.607    -0.674    27.039     7.018
   182   1 h        0.803     0.333     0.629     1.246
   183   1 h        0.804     0.344     0.602     1.218
   184   8 o        1.609    -0.656    26.569     6.957
   185   1 h        0.804     0.327     0.646     1.263
   186   1 h        0.805     0.324     0.652     1.269
   187   8 o        1.608    -0.675    27.048     7.019
   188   1 h        0.805     0.331     0.634     1.251
   189   1 h        0.804     0.341     0.610     1.227
   190   8 o        1.608    -0.669    26.903     7.000
   191   1 h        0.804     0.349     0.590     1.206
   192   1 h        0.804     0.322     0.660     1.276
   193   8 o        1.609    -0.685    27.305     7.053
   194   1 h        0.804     0.334     0.628     1.245
   195   1 h        0.805     0.333     0.630     1.247
   196   8 o        1.609    -0.684    27.286     7.050
   197   1 h        0.805     0.324     0.653     1.269
   198   1 h        0.804     0.344     0.603     1.220
   199   8 o        1.610    -0.646    26.326     6.925
   200   1 h        0.805     0.351     0.586     1.203
   201   1 h        0.805     0.325     0.651     1.267
   202   8 o        1.608    -0.683    27.250     7.045
   203   1 h        0.804     0.329     0.640     1.257
   204   1 h        0.804     0.339     0.615     1.232
   205   8 o        1.607    -0.682    27.225     7.042
   206   1 h        0.804     0.332     0.632     1.248
   207   1 h        0.803     0.341     0.609     1.226
   208   8 o        1.609    -0.660    26.680     6.971
   209   1 h        0.803     0.342     0.609     1.225
   210   1 h        0.805     0.323     0.655     1.271
   211   8 o        1.607    -0.692    27.511     7.079
   212   1 h        0.804     0.322     0.659     1.275
   213   1 h        0.803     0.346     0.599     1.216
   214   8 o        1.606    -0.680    27.191     7.038
   215   1 h        0.804     0.323     0.655     1.271
   216   1 h        0.802     0.348     0.594     1.210
   217   8 o        1.608    -0.666    26.812     6.988
   218   1 h        0.804     0.337     0.621     1.237
   219   1 h        0.804     0.345     0.600     1.217
   220   8 o        1.606    -0.656    26.560     6.956
   221   1 h        0.801     0.351     0.586     1.203
   222   1 h        0.806     0.307     0.701     1.315
   223   8 o        1.606    -0.691    27.487     7.076
   224   1 h        0.802     0.362     0.562     1.178
   225   1 h        0.804     0.326     0.648     1.264
   226   8 o        1.608    -0.689    27.410     7.066
   227   1 h        0.803     0.351     0.586     1.203
   228   1 h        0.805     0.341     0.610     1.227
   229   8 o        1.604    -0.705    27.839     7.121
   230   1 h        0.802     0.350     0.588     1.204
   231   1 h        0.803     0.341     0.610     1.227
   232   8 o        1.609    -0.666    26.829     6.991
   233   1 h        0.804     0.333     0.630     1.247
   234   1 h        0.805     0.332     0.633     1.250
   235   8 o        1.608    -0.675    27.050     7.020
   236   1 h        0.804     0.330     0.638     1.255
   237   1 h        0.804     0.355     0.576     1.192
   238   8 o        1.607    -0.685    27.319     7.054
   239   1 h        0.803     0.346     0.598     1.215
   240   1 h        0.803     0.335     0.626     1.243
   241   8 o        1.607    -0.682    27.235     7.043
   242   1 h        0.803     0.344     0.602     1.219
   243   1 h        0.803     0.337     0.621     1.238
   244   8 o        1.607    -0.679    27.150     7.032
   245   1 h        0.803     0.331     0.634     1.251
   246   1 h        0.804     0.359     0.569     1.185
   247   8 o        1.609    -0.681    27.217     7.041
   248   1 h        0.804     0.337     0.620     1.237
   249   1 h        0.804     0.335     0.624     1.241
   250   8 o        1.607    -0.672    26.972     7.009
   251   1 h        0.804     0.328     0.642     1.258
   252   1 h        0.803     0.350     0.588     1.205
   253   8 o        1.609    -0.660    26.671     6.970
   254   1 h        0.805     0.327     0.645     1.262
   255   1 h        0.804     0.361     0.563     1.178
   256   8 o        1.605    -0.669    26.899     7.000
   257   1 h        0.800     0.350     0.589     1.206
   258   1 h        0.806     0.310     0.693     1.307
   259   8 o        1.608    -0.664    26.774     6.983
   260   1 h        0.803     0.335     0.625     1.242
   261   1 h        0.804     0.332     0.632     1.249
   262   8 o        1.606    -0.697    27.624     7.093
   263   1 h        0.803     0.331     0.634     1.251
   264   1 h        0.803     0.350     0.587     1.204
   265   8 o        1.609    -0.668    26.884     6.998
   266   1 h        0.804     0.337     0.620     1.237
   267   1 h        0.805     0.322     0.658     1.274
   268   8 o        1.609    -0.663    26.737     6.979
   269   1 h        0.804     0.321     0.662     1.278
   270   1 h        0.803     0.344     0.603     1.219
   271   8 o        1.607    -0.653    26.482     6.945
   272   1 h        0.802     0.339     0.616     1.233
   273   1 h        0.805     0.323     0.656     1.272
   274   8 o        1.606    -0.682    27.242     7.044
   275   1 h        0.803     0.331     0.636     1.253
   276   1 h        0.803     0.341     0.611     1.228
   277   8 o        1.608    -0.674    27.030     7.017
   278   1 h        0.804     0.331     0.635     1.252
   279   1 h        0.804     0.347     0.596     1.213
   280   8 o        1.610    -0.659    26.631     6.965
   281   1 h        0.804     0.333     0.631     1.247
   282   1 h        0.805     0.326     0.648     1.265
   283   8 o        1.610    -0.645    26.277     6.919
   284   1 h        0.804     0.347     0.596     1.213
   285   1 h        0.806     0.316     0.675     1.290
   286   8 o        1.608    -0.689    27.427     7.068
   287   1 h        0.804     0.340     0.613     1.230
   288   1 h        0.803     0.349     0.592     1.208
   289   8 o        1.607    -0.674    27.030     7.017
   290   1 h        0.804     0.324     0.653     1.270
   291   1 h        0.803     0.353     0.582     1.199
   292   8 o        1.608    -0.684    27.287     7.050
   293   1 h        0.804     0.348     0.593     1.210
   294   1 h        0.804     0.336     0.621     1.238
   295   8 o        1.608    -0.675    27.065     7.021
   296   1 h        0.804     0.343     0.605     1.222
   297   1 h        0.804     0.329     0.640     1.256
   298   8 o        1.609    -0.671    26.962     7.008
   299   1 h        0.805     0.323     0.656     1.272
   300   1 h        0.804     0.342     0.607     1.224
   301   8 o        1.609    -0.664    26.773     6.983
   302   1 h        0.805     0.331     0.636     1.252
   303   1 h        0.804     0.346     0.598     1.214
   304   8 o        1.608    -0.671    26.962     7.008
   305   1 h        0.804     0.335     0.625     1.242
   306   1 h        0.804     0.338     0.618     1.235
   307   8 o        1.608    -0.691    27.482     7.075
   308   1 h        0.804     0.316     0.675     1.290
   309   1 h        0.804     0.341     0.610     1.227
   310   8 o        1.609    -0.669    26.891     6.999
   311   1 h        0.804     0.346     0.599     1.215
   312   1 h        0.805     0.321     0.662     1.278
   313   8 o        1.607    -0.679    27.161     7.034
   314   1 h        0.802     0.358     0.570     1.186
   315   1 h        0.805     0.307     0.701     1.315
   316   8 o        1.608    -0.669    26.887     6.998
   317   1 h        0.806     0.320     0.665     1.281
   318   1 h        0.802     0.349     0.592     1.209
   319   8 o        1.607    -0.686    27.337     7.057
   320   1 h        0.801     0.361     0.564     1.180
   321   1 h        0.805     0.331     0.635     1.252
   322   8 o        1.604    -0.695    27.593     7.089
   323   1 h        0.802     0.345     0.600     1.217
   324   1 h        0.803     0.335     0.626     1.243
   325   8 o        1.607    -0.696    27.618     7.093
   326   1 h        0.803     0.338     0.616     1.233
   327   1 h        0.803     0.363     0.558     1.174
   328   8 o        1.607    -0.675    27.047     7.019
   329   1 h        0.802     0.347     0.596     1.213
   330   1 h        0.806     0.317     0.673     1.288
   331   8 o        1.609    -0.658    26.625     6.964
   332   1 h        0.804     0.342     0.608     1.225
   333   1 h        0.805     0.328     0.641     1.258
   334   8 o        1.608    -0.674    27.041     7.018
   335   1 h        0.804     0.336     0.622     1.239
   336   1 h        0.804     0.346     0.598     1.214
   337   8 o        1.606    -0.671    26.940     7.005
   338   1 h        0.802     0.360     0.565     1.181
   339   1 h        0.804     0.330     0.638     1.255
   340   8 o        1.607    -0.686    27.332     7.056
   341   1 h        0.802     0.357     0.573     1.190
   342   1 h        0.805     0.317     0.671     1.287
   343   8 o        1.607    -0.674    27.039     7.018
   344   1 h        0.804     0.349     0.591     1.208
   345   1 h        0.803     0.333     0.629     1.246
   346   8 o        1.608    -0.658    26.631     6.965
   347   1 h        0.804     0.328     0.642     1.259
   348   1 h        0.803     0.338     0.618     1.235
   349   8 o        1.607    -0.682    27.233     7.043
   350   1 h        0.804     0.341     0.610     1.227
   351   1 h        0.803     0.352     0.584     1.201
   352   8 o        1.609    -0.673    27.009     7.014
   353   1 h        0.805     0.334     0.627     1.244
   354   1 h        0.804     0.340     0.611     1.228
   355   8 o        1.609    -0.679    27.155     7.033
   356   1 h        0.804     0.331     0.634     1.251
   357   1 h        0.805     0.342     0.608     1.225
   358   8 o        1.608    -0.689    27.414     7.067
   359   1 h        0.805     0.323     0.656     1.272
   360   1 h        0.803     0.342     0.608     1.225
   361   8 o        1.608    -0.673    26.995     7.012
   362   1 h        0.805     0.329     0.639     1.255
   363   1 h        0.803     0.334     0.627     1.244
   364   8 o        1.606    -0.670    26.915     7.002
   365   1 h        0.806     0.308     0.698     1.312
   366   1 h        0.801     0.358     0.571     1.188
   367   8 o        1.610    -0.660    26.670     6.970
   368   1 h        0.805     0.315     0.676     1.292
   369   1 h        0.804     0.341     0.611     1.228
   370   8 o        1.605    -0.687    27.365     7.060
   371   1 h        0.802     0.376     0.531     1.144
   372   1 h        0.805     0.312     0.685     1.300
   373   8 o        1.607    -0.680    27.188     7.037
   374   1 h        0.803     0.356     0.574     1.191
   375   1 h        0.804     0.328     0.643     1.259
   376   8 o        1.606    -0.664    26.764     6.982
   377   1 h        0.806     0.316     0.674     1.289
   378   1 h        0.802     0.362     0.561     1.177
   379   8 o        1.609    -0.674    27.036     7.018
   380   1 h        0.804     0.334     0.628     1.245
   381   1 h        0.805     0.324     0.652     1.268
   382   8 o        1.609    -0.657    26.582     6.958
   383   1 h        0.804     0.342     0.606     1.223
   384   1 h        0.805     0.324     0.654     1.270
   385   8 o        1.609    -0.668    26.874     6.997
   386   1 h        0.804     0.342     0.608     1.225
   387   1 h        0.804     0.344     0.603     1.220
   388   8 o        1.607    -0.679    27.150     7.032
   389   1 h        0.803     0.366     0.553     1.168
   390   1 h        0.804     0.326     0.647     1.264
   391   8 o        1.607    -0.662    26.728     6.978
   392   1 h        0.802     0.341     0.609     1.226
   393   1 h        0.805     0.323     0.656     1.272
   394   8 o        1.610    -0.674    27.030     7.017
   395   1 h        0.804     0.335     0.624     1.241
   396   1 h        0.804     0.352     0.584     1.200
   397   8 o        1.607    -0.666    26.827     6.990
   398   1 h        0.803     0.327     0.644     1.261
   399   1 h        0.804     0.335     0.624     1.240
   400   8 o        1.607    -0.677    27.110     7.027
   401   1 h        0.804     0.350     0.589     1.206
   402   1 h        0.804     0.328     0.642     1.259
   403   8 o        1.608    -0.684    27.283     7.050
   404   1 h        0.804     0.325     0.650     1.266
   405   1 h        0.803     0.352     0.584     1.201
   406   8 o        1.608    -0.651    26.452     6.942
   407   1 h        0.805     0.331     0.635     1.252
   408   1 h        0.803     0.330     0.637     1.254
   409   8 o        1.608    -0.672    26.984     7.011
   410   1 h        0.803     0.340     0.613     1.230
   411   1 h        0.805     0.329     0.641     1.258
   412   8 o        1.606    -0.708    27.938     7.134
   413   1 h        0.803     0.347     0.595     1.212
   414   1 h        0.803     0.350     0.588     1.205
   415   8 o        1.606    -0.693    27.535     7.082
   416   1 h        0.802     0.358     0.571     1.187
   417   1 h        0.804     0.330     0.637     1.254
   418   8 o        1.608    -0.660    26.658     6.968
   419   1 h        0.805     0.331     0.635     1.252
   420   1 h        0.803     0.346     0.597     1.214
   421   8 o        1.607    -0.673    26.998     7.013
   422   1 h        0.806     0.312     0.685     1.300
   423   1 h        0.802     0.348     0.592     1.209
   424   8 o        1.608    -0.665    26.799     6.987
   425   1 h        0.805     0.331     0.635     1.252
   426   1 h        0.804     0.348     0.594     1.211
   427   8 o        1.608    -0.670    26.918     7.002
   428   1 h        0.805     0.318     0.669     1.285
   429   1 h        0.803     0.352     0.584     1.200
   430   8 o        1.608    -0.676    27.074     7.023
   431   1 h        0.803     0.358     0.570     1.186
   432   1 h        0.805     0.316     0.676     1.291
   433   8 o        1.608    -0.676    27.069     7.022
   434   1 h        0.805     0.325     0.651     1.268
   435   1 h        0.804     0.352     0.583     1.199
   436   8 o        1.609    -0.664    26.781     6.985
   437   1 h        0.804     0.358     0.570     1.186
   438   1 h        0.805     0.319     0.666     1.282
   439   8 o        1.609    -0.666    26.830     6.991
   440   1 h        0.806     0.309     0.693     1.308
   441   1 h        0.804     0.356     0.574     1.190
   442   8 o        1.609    -0.664    26.782     6.985
   443   1 h        0.803     0.349     0.591     1.208
   444   1 h        0.806     0.317     0.672     1.287
   445   8 o        1.607    -0.659    26.655     6.968
   446   1 h        0.802     0.346     0.597     1.214
   447   1 h        0.806     0.314     0.679     1.295
   448   8 o        1.607    -0.678    27.125     7.029
   449   1 h        0.804     0.331     0.634     1.251
   450   1 h        0.803     0.338     0.618     1.235
   451   8 o        1.607    -0.692    27.508     7.079
   452   1 h        0.803     0.352     0.584     1.201
   453   1 h        0.803     0.350     0.588     1.205
   454   8 o        1.607    -0.696    27.618     7.093
   455   1 h        0.803     0.336     0.623     1.240
   456   1 h        0.804     0.338     0.617     1.233
   457   8 o        1.607    -0.665    26.810     6.988
   458   1 h        0.802     0.347     0.595     1.212
   459   1 h        0.806     0.313     0.682     1.297
   460   8 o        1.609    -0.642    26.221     6.911
   461   1 h        0.805     0.318     0.670     1.286
   462   1 h        0.804     0.347     0.595     1.212
   463   8 o        1.607    -0.677    27.112     7.027
   464   1 h        0.805     0.332     0.632     1.249
   465   1 h        0.803     0.348     0.593     1.209
   466   8 o        1.605    -0.678    27.135     7.030
   467   1 h        0.802     0.333     0.631     1.247
   468   1 h        0.803     0.336     0.621     1.238
   469   8 o        1.609    -0.677    27.118     7.028
   470   1 h        0.805     0.326     0.646     1.263
   471   1 h        0.803     0.345     0.599     1.216
   472   8 o        1.610    -0.660    26.661     6.969
   473   1 h        0.805     0.338     0.617     1.234
   474   1 h        0.805     0.325     0.652     1.268
   475   8 o        1.608    -0.679    27.166     7.035
   476   1 h        0.803     0.369     0.546     1.161
   477   1 h        0.805     0.332     0.633     1.250
   478   8 o        1.608    -0.689    27.408     7.066
   479   1 h        0.803     0.349     0.591     1.208
   480   1 h        0.803     0.351     0.586     1.203
   481   8 o        1.608    -0.668    26.862     6.995
   482   1 h        0.802     0.363     0.559     1.175
   483   1 h        0.806     0.306     0.703     1.317
   484   8 o        1.609    -0.662    26.720     6.977
   485   1 h        0.804     0.332     0.632     1.249
   486   1 h        0.805     0.351     0.586     1.202
   487   8 o        1.608    -0.677    27.114     7.028
   488   1 h        0.804     0.340     0.613     1.230
   489   1 h        0.804     0.332     0.632     1.249
   490   8 o        1.605    -0.699    27.679     7.101
   491   1 h        0.803     0.346     0.599     1.216
   492   1 h        0.803     0.350     0.588     1.205
   493   8 o        1.608    -0.665    26.806     6.988
   494   1 h        0.805     0.316     0.673     1.289
   495   1 h        0.803     0.346     0.597     1.214
   496   8 o        1.606    -0.678    27.140     7.031
   497   1 h        0.802     0.335     0.626     1.243
   498   1 h        0.805     0.332     0.632     1.249
   499   8 o        1.608    -0.671    26.943     7.006
   500   1 h        0.804     0.348     0.594     1.210
   501   1 h        0.803     0.330     0.637     1.253
   502   8 o        1.609    -0.676    27.082     7.024
   503   1 h        0.804     0.326     0.648     1.265
   504   1 h        0.805     0.336     0.623     1.240
   505   8 o        1.607    -0.679    27.170     7.035
   506   1 h        0.803     0.359     0.568     1.184
   507   1 h        0.804     0.334     0.628     1.245
   508   8 o        1.606    -0.666    26.825     6.990
   509   1 h        0.806     0.313     0.684     1.299
   510   1 h        0.802     0.353     0.583     1.199
   511   8 o        1.608    -0.666    26.815     6.989
   512   1 h        0.804     0.333     0.629     1.245
   513   1 h        0.803     0.335     0.625     1.242
   514   8 o        1.609    -0.640    26.153     6.902
   515   1 h        0.804     0.342     0.608     1.225
   516   1 h        0.806     0.313     0.684     1.299
   517   8 o        1.609    -0.667    26.842     6.992
   518   1 h        0.805     0.335     0.624     1.241
   519   1 h        0.804     0.340     0.612     1.228
   520   8 o        1.607    -0.697    27.638     7.095
   521   1 h        0.802     0.355     0.576     1.192
   522   1 h        0.803     0.347     0.596     1.212
   523   8 o        1.607    -0.679    27.170     7.035
   524   1 h        0.802     0.359     0.568     1.184
   525   1 h        0.806     0.313     0.682     1.297
   526   8 o        1.609    -0.643    26.248     6.915
   527   1 h        0.803     0.340     0.613     1.229
   528   1 h        0.805     0.322     0.659     1.275
   529   8 o        1.611    -0.670    26.916     7.002
   530   1 h        0.805     0.335     0.624     1.241
   531   1 h        0.805     0.335     0.625     1.242

 Mol. C6AA /au·bohr⁶  :    1428743.792355
 Mol. C8AA /au·bohr⁸  :   25910170.699138
 Mol. α(0) /au        :       1680.193140


Wiberg/Mayer (AO) data.
largest (>0.10) Wiberg bond orders for each atom

 ---------------------------------------------------------------------------
     #   Z sym  total        # sym  WBO       # sym  WBO       # sym  WBO
 ---------------------------------------------------------------------------
     1   8 o    1.819 --     3 h    0.838     2 h    0.834
     2   1 h    0.890 --     1 o    0.834
     3   1 h    0.890 --     1 o    0.838
     4   8 o    1.843 --     6 h    0.819     5 h    0.769
     5   1 h    0.872 --     4 o    0.769
     6   1 h    0.891 --     4 o    0.819
     7   8 o    1.823 --     9 h    0.822     8 h    0.821
     8   1 h    0.880 --     7 o    0.821
     9   1 h    0.887 --     7 o    0.822
    10   8 o    1.776 --    11 h    0.854    12 h    0.821
    11   1 h    0.899 --    10 o    0.854
    12   1 h    0.889 --    10 o    0.821
    13   8 o    1.829 --    14 h    0.843    15 h    0.831
    14   1 h    0.889 --    13 o    0.843
    15   1 h    0.876 --    13 o    0.831
    16   8 o    1.863 --    18 h    0.846    17 h    0.821
    17   1 h    0.889 --    16 o    0.821
    18   1 h    0.889 --    16 o    0.846
    19   8 o    1.869 --    21 h    0.816    20 h    0.811
    20   1 h    0.891 --    19 o    0.811
    21   1 h    0.871 --    19 o    0.816
    22   8 o    1.847 --    24 h    0.876    23 h    0.785
    23   1 h    0.865 --    22 o    0.785
    24   1 h    0.897 --    22 o    0.876
    25   8 o    1.862 --    26 h    0.821    27 h    0.815
    26   1 h    0.886 --    25 o    0.821
    27   1 h    0.886 --    25 o    0.815
    28   8 o    1.806 --    30 h    0.811    29 h    0.768
    29   1 h    0.877 --    28 o    0.768
    30   1 h    0.893 --    28 o    0.811
    31   8 o    1.852 --    32 h    0.854    33 h    0.833
    32   1 h    0.894 --    31 o    0.854
    33   1 h    0.882 --    31 o    0.833
    34   8 o    1.883 --    36 h    0.828    35 h    0.813
    35   1 h    0.870 --    34 o    0.813
    36   1 h    0.875 --    34 o    0.828
    37   8 o    1.843 --    39 h    0.838    38 h    0.834
    38   1 h    0.884 --    37 o    0.834
    39   1 h    0.887 --    37 o    0.838
    40   8 o    1.884 --    41 h    0.832    42 h    0.820
    41   1 h    0.891 --    40 o    0.832
    42   1 h    0.875 --    40 o    0.820
    43   8 o    1.877 --    45 h    0.837    44 h    0.784
    44   1 h    0.866 --    43 o    0.784
    45   1 h    0.890 --    43 o    0.837
    46   8 o    1.848 --    48 h    0.859    47 h    0.856
    47   1 h    0.897 --    46 o    0.856
    48   1 h    0.890 --    46 o    0.859
    49   8 o    1.852 --    50 h    0.846    51 h    0.835
    50   1 h    0.899 --    49 o    0.846
    51   1 h    0.889 --    49 o    0.835
    52   8 o    1.856 --    53 h    0.864    54 h    0.802
    53   1 h    0.896 --    52 o    0.864
    54   1 h    0.875 --    52 o    0.802
    55   8 o    1.825 --    56 h    0.852    57 h    0.840
    56   1 h    0.888 --    55 o    0.852
    57   1 h    0.883 --    55 o    0.840
    58   8 o    1.879 --    60 h    0.855    59 h    0.794
    59   1 h    0.868 --    58 o    0.794
    60   1 h    0.887 --    58 o    0.855
    61   8 o    1.826 --    63 h    0.858    62 h    0.845
    62   1 h    0.885 --    61 o    0.845
    63   1 h    0.890 --    61 o    0.858
    64   8 o    1.784 --    65 h    0.864    66 h    0.858
    65   1 h    0.899 --    64 o    0.864
    66   1 h    0.897 --    64 o    0.858
    67   8 o    1.861 --    69 h    0.812    68 h    0.769
    68   1 h    0.878 --    67 o    0.769
    69   1 h    0.880 --    67 o    0.812
    70   8 o    1.897 --    71 h    0.843    72 h    0.816
    71   1 h    0.893 --    70 o    0.843
    72   1 h    0.885 --    70 o    0.816
    73   8 o    1.846 --    75 h    0.833    74 h    0.796
    74   1 h    0.877 --    73 o    0.796
    75   1 h    0.885 --    73 o    0.833
    76   8 o    1.857 --    78 h    0.870    77 h    0.838
    77   1 h    0.878 --    76 o    0.838
    78   1 h    0.891 --    76 o    0.870
    79   8 o    1.870 --    81 h    0.839    80 h    0.810
    80   1 h    0.869 --    79 o    0.810
    81   1 h    0.884 --    79 o    0.839
    82   8 o    1.838 --    83 h    0.865    84 h    0.812
    83   1 h    0.892 --    82 o    0.865
    84   1 h    0.881 --    82 o    0.812
    85   8 o    1.849 --    86 h    0.880    87 h    0.785
    86   1 h    0.898 --    85 o    0.880
    87   1 h    0.873 --    85 o    0.785
    88   8 o    1.831 --    90 h    0.844    89 h    0.843
    89   1 h    0.887 --    88 o    0.843
    90   1 h    0.888 --    88 o    0.844
    91   8 o    1.830 --    93 h    0.819    92 h    0.813
    92   1 h    0.885 --    91 o    0.813
    93   1 h    0.890 --    91 o    0.819
    94   8 o    1.818 --    96 h    0.853    95 h    0.829
    95   1 h    0.886 --    94 o    0.829
    96   1 h    0.890 --    94 o    0.853
    97   8 o    1.836 --    99 h    0.857    98 h    0.806
    98   1 h    0.881 --    97 o    0.806
    99   1 h    0.889 --    97 o    0.857
   100   8 o    1.856 --   101 h    0.830   102 h    0.819
   101   1 h    0.886 --   100 o    0.830
   102   1 h    0.889 --   100 o    0.819
   103   8 o    1.807 --   104 h    0.824   105 h    0.816
   104   1 h    0.888 --   103 o    0.824
   105   1 h    0.885 --   103 o    0.816
   106   8 o    1.836 --   108 h    0.843   107 h    0.823
   107   1 h    0.888 --   106 o    0.823
   108   1 h    0.892 --   106 o    0.843
   109   8 o    1.862 --   110 h    0.815   111 h    0.811
   110   1 h    0.874 --   109 o    0.815
   111   1 h    0.875 --   109 o    0.811
   112   8 o    1.883 --   113 h    0.831   114 h    0.811
   113   1 h    0.892 --   112 o    0.831
   114   1 h    0.875 --   112 o    0.811
   115   8 o    1.860 --   117 h    0.857   116 h    0.794
   116   1 h    0.875 --   115 o    0.794
   117   1 h    0.890 --   115 o    0.857
   118   8 o    1.844 --   119 h    0.823   120 h    0.820
   119   1 h    0.881 --   118 o    0.823
   120   1 h    0.884 --   118 o    0.820
   121   8 o    1.857 --   123 h    0.829   122 h    0.816
   122   1 h    0.888 --   121 o    0.816
   123   1 h    0.885 --   121 o    0.829
   124   8 o    1.832 --   126 h    0.859   125 h    0.792
   125   1 h    0.871 --   124 o    0.792
   126   1 h    0.892 --   124 o    0.859
   127   8 o    1.841 --   128 h    0.829   129 h    0.828
   128   1 h    0.887 --   127 o    0.829
   129   1 h    0.886 --   127 o    0.828
   130   8 o    1.890 --   131 h    0.822   132 h    0.820
   131   1 h    0.878 --   130 o    0.822
   132   1 h    0.874 --   130 o    0.820
   133   8 o    1.868 --   134 h    0.862   135 h    0.782
   134   1 h    0.893 --   133 o    0.862
   135   1 h    0.872 --   133 o    0.782
   136   8 o    1.802 --   137 h    0.845   138 h    0.810
   137   1 h    0.895 --   136 o    0.845
   138   1 h    0.886 --   136 o    0.810
   139   8 o    1.864 --   140 h    0.840   141 h    0.807
   140   1 h    0.899 --   139 o    0.840
   141   1 h    0.874 --   139 o    0.807
   142   8 o    1.878 --   143 h    0.830   144 h    0.814
   143   1 h    0.879 --   142 o    0.830
   144   1 h    0.882 --   142 o    0.814
   145   8 o    1.837 --   147 h    0.842   146 h    0.825
   146   1 h    0.883 --   145 o    0.825
   147   1 h    0.892 --   145 o    0.842
   148   8 o    1.819 --   149 h    0.902   150 h    0.804
   149   1 h    0.905 --   148 o    0.902
   150   1 h    0.878 --   148 o    0.804
   151   8 o    1.859 --   152 h    0.830   153 h    0.806
   152   1 h    0.893 --   151 o    0.830
   153   1 h    0.882 --   151 o    0.806
   154   8 o    1.820 --   156 h    0.889   155 h    0.814
   155   1 h    0.873 --   154 o    0.814
   156   1 h    0.899 --   154 o    0.889
   157   8 o    1.894 --   158 h    0.823   159 h    0.797
   158   1 h    0.890 --   157 o    0.823
   159   1 h    0.869 --   157 o    0.797
   160   8 o    1.851 --   162 h    0.843   161 h    0.810
   161   1 h    0.881 --   160 o    0.810
   162   1 h    0.884 --   160 o    0.843
   163   8 o    1.857 --   164 h    0.845   165 h    0.819
   164   1 h    0.890 --   163 o    0.845
   165   1 h    0.889 --   163 o    0.819
   166   8 o    1.862 --   168 h    0.819   167 h    0.814
   167   1 h    0.878 --   166 o    0.814
   168   1 h    0.886 --   166 o    0.819
   169   8 o    1.831 --   171 h    0.868   170 h    0.841
   170   1 h    0.881 --   169 o    0.841
   171   1 h    0.894 --   169 o    0.868
   172   8 o    1.850 --   173 h    0.844   174 h    0.796
   173   1 h    0.889 --   172 o    0.844
   174   1 h    0.871 --   172 o    0.796
   175   8 o    1.831 --   176 h    0.850   177 h    0.804
   176   1 h    0.892 --   175 o    0.850
   177   1 h    0.877 --   175 o    0.804
   178   8 o    1.868 --   179 h    0.870   180 h    0.789
   179   1 h    0.897 --   178 o    0.870
   180   1 h    0.862 --   178 o    0.789
   181   8 o    1.874 --   182 h    0.826   183 h    0.814
   182   1 h    0.889 --   181 o    0.826
   183   1 h    0.881 --   181 o    0.814
   184   8 o    1.833 --   186 h    0.855   185 h    0.848
   185   1 h    0.893 --   184 o    0.848
   186   1 h    0.895 --   184 o    0.855
   187   8 o    1.825 --   188 h    0.862   189 h    0.829
   188   1 h    0.890 --   187 o    0.862
   189   1 h    0.884 --   187 o    0.829
   190   8 o    1.864 --   192 h    0.844   191 h    0.820
   191   1 h    0.878 --   190 o    0.820
   192   1 h    0.896 --   190 o    0.844
   193   8 o    1.816 --   195 h    0.840   194 h    0.826
   194   1 h    0.889 --   193 o    0.826
   195   1 h    0.889 --   193 o    0.840
   196   8 o    1.806 --   197 h    0.863   198 h    0.825
   197   1 h    0.895 --   196 o    0.863
   198   1 h    0.882 --   196 o    0.825
   199   8 o    1.874 --   201 h    0.861   200 h    0.841
   200   1 h    0.877 --   199 o    0.841
   201   1 h    0.894 --   199 o    0.861
   202   8 o    1.830 --   203 h    0.834   204 h    0.821
   203   1 h    0.892 --   202 o    0.834
   204   1 h    0.885 --   202 o    0.821
   205   8 o    1.825 --   206 h    0.854   207 h    0.820
   206   1 h    0.890 --   205 o    0.854
   207   1 h    0.883 --   205 o    0.820
   208   8 o    1.857 --   210 h    0.866   209 h    0.818
   209   1 h    0.883 --   208 o    0.818
   210   1 h    0.895 --   208 o    0.866
   211   8 o    1.818 --   212 h    0.845   213 h    0.816
   212   1 h    0.896 --   211 o    0.845
   213   1 h    0.881 --   211 o    0.816
   214   8 o    1.860 --   215 h    0.843   216 h    0.798
   215   1 h    0.895 --   214 o    0.843
   216   1 h    0.879 --   214 o    0.798
   217   8 o    1.882 --   218 h    0.830   219 h    0.825
   218   1 h    0.887 --   217 o    0.830
   219   1 h    0.881 --   217 o    0.825
   220   8 o    1.862 --   222 h    0.900   221 h    0.787
   221   1 h    0.877 --   220 o    0.787
   222   1 h    0.906 --   220 o    0.900
   223   8 o    1.858 --   225 h    0.836   224 h    0.795
   224   1 h    0.869 --   223 o    0.795
   225   1 h    0.894 --   223 o    0.836
   226   8 o    1.854 --   228 h    0.846   227 h    0.780
   227   1 h    0.877 --   226 o    0.780
   228   1 h    0.884 --   226 o    0.846
   229   8 o    1.854 --   231 h    0.808   230 h    0.781
   230   1 h    0.877 --   229 o    0.781
   231   1 h    0.884 --   229 o    0.808
   232   8 o    1.829 --   234 h    0.867   233 h    0.841
   233   1 h    0.889 --   232 o    0.841
   234   1 h    0.890 --   232 o    0.867
   235   8 o    1.863 --   236 h    0.839   237 h    0.816
   236   1 h    0.891 --   235 o    0.839
   237   1 h    0.874 --   235 o    0.816
   238   8 o    1.856 --   240 h    0.827   239 h    0.804
   239   1 h    0.880 --   238 o    0.804
   240   1 h    0.888 --   238 o    0.827
   241   8 o    1.855 --   243 h    0.830   242 h    0.820
   242   1 h    0.881 --   241 o    0.820
   243   1 h    0.887 --   241 o    0.830
   244   8 o    1.872 --   245 h    0.832   246 h    0.816
   245   1 h    0.890 --   244 o    0.832
   246   1 h    0.871 --   244 o    0.816
   247   8 o    1.850 --   249 h    0.833   248 h    0.818
   248   1 h    0.886 --   247 o    0.818
   249   1 h    0.887 --   247 o    0.833
   250   8 o    1.875 --   251 h    0.837   252 h    0.799
   251   1 h    0.892 --   250 o    0.837
   252   1 h    0.877 --   250 o    0.799
   253   8 o    1.855 --   254 h    0.869   255 h    0.826
   254   1 h    0.893 --   253 o    0.869
   255   1 h    0.869 --   253 o    0.826
   256   8 o    1.846 --   258 h    0.899   257 h    0.776
   257   1 h    0.877 --   256 o    0.776
   258   1 h    0.904 --   256 o    0.899
   259   8 o    1.866 --   261 h    0.835   260 h    0.825
   260   1 h    0.888 --   259 o    0.825
   261   1 h    0.890 --   259 o    0.835
   262   8 o    1.844 --   263 h    0.838   264 h    0.804
   263   1 h    0.890 --   262 o    0.838
   264   1 h    0.877 --   262 o    0.804
   265   8 o    1.796 --   267 h    0.876   266 h    0.840
   266   1 h    0.887 --   265 o    0.840
   267   1 h    0.896 --   265 o    0.876
   268   8 o    1.883 --   269 h    0.847   270 h    0.811
   269   1 h    0.897 --   268 o    0.847
   270   1 h    0.882 --   268 o    0.811
   271   8 o    1.858 --   273 h    0.872   272 h    0.819
   272   1 h    0.885 --   271 o    0.819
   273   1 h    0.896 --   271 o    0.872
   274   8 o    1.864 --   275 h    0.823   276 h    0.811
   275   1 h    0.891 --   274 o    0.823
   276   1 h    0.884 --   274 o    0.811
   277   8 o    1.838 --   278 h    0.859   279 h    0.831
   278   1 h    0.890 --   277 o    0.859
   279   1 h    0.880 --   277 o    0.831
   280   8 o    1.837 --   282 h    0.854   281 h    0.835
   281   1 h    0.889 --   280 o    0.835
   282   1 h    0.894 --   280 o    0.854
   283   8 o    1.841 --   285 h    0.895   284 h    0.847
   284   1 h    0.880 --   283 o    0.847
   285   1 h    0.900 --   283 o    0.895
   286   8 o    1.846 --   287 h    0.833   288 h    0.806
   287   1 h    0.885 --   286 o    0.833
   288   1 h    0.878 --   286 o    0.806
   289   8 o    1.849 --   290 h    0.857   291 h    0.812
   290   1 h    0.895 --   289 o    0.857
   291   1 h    0.876 --   289 o    0.812
   292   8 o    1.834 --   294 h    0.847   293 h    0.836
   293   1 h    0.879 --   292 o    0.836
   294   1 h    0.887 --   292 o    0.847
   295   8 o    1.828 --   297 h    0.852   296 h    0.834
   296   1 h    0.882 --   295 o    0.834
   297   1 h    0.892 --   295 o    0.852
   298   8 o    1.821 --   299 h    0.878   300 h    0.834
   299   1 h    0.896 --   298 o    0.878
   300   1 h    0.883 --   298 o    0.834
   301   8 o    1.847 --   302 h    0.859   303 h    0.841
   302   1 h    0.891 --   301 o    0.859
   303   1 h    0.880 --   301 o    0.841
   304   8 o    1.852 --   306 h    0.840   305 h    0.830
   305   1 h    0.888 --   304 o    0.830
   306   1 h    0.886 --   304 o    0.840
   307   8 o    1.792 --   308 h    0.842   309 h    0.831
   308   1 h    0.900 --   307 o    0.842
   309   1 h    0.884 --   307 o    0.831
   310   8 o    1.827 --   312 h    0.859   311 h    0.819
   311   1 h    0.881 --   310 o    0.819
   312   1 h    0.897 --   310 o    0.859
   313   8 o    1.818 --   315 h    0.892   314 h    0.792
   314   1 h    0.872 --   313 o    0.792
   315   1 h    0.906 --   313 o    0.892
   316   8 o    1.827 --   317 h    0.890   318 h    0.806
   317   1 h    0.898 --   316 o    0.890
   318   1 h    0.878 --   316 o    0.806
   319   8 o    1.858 --   321 h    0.855   320 h    0.780
   320   1 h    0.870 --   319 o    0.780
   321   1 h    0.891 --   319 o    0.855
   322   8 o    1.839 --   324 h    0.824   323 h    0.793
   323   1 h    0.881 --   322 o    0.793
   324   1 h    0.888 --   322 o    0.824
   325   8 o    1.851 --   326 h    0.819   327 h    0.792
   326   1 h    0.885 --   325 o    0.819
   327   1 h    0.868 --   325 o    0.792
   328   8 o    1.828 --   330 h    0.891   329 h    0.793
   329   1 h    0.880 --   328 o    0.793
   330   1 h    0.900 --   328 o    0.891
   331   8 o    1.851 --   333 h    0.873   332 h    0.828
   332   1 h    0.883 --   331 o    0.828
   333   1 h    0.892 --   331 o    0.873
   334   8 o    1.835 --   335 h    0.851   336 h    0.842
   335   1 h    0.887 --   334 o    0.851
   336   1 h    0.880 --   334 o    0.842
   337   8 o    1.885 --   339 h    0.853   338 h    0.794
   338   1 h    0.870 --   337 o    0.794
   339   1 h    0.891 --   337 o    0.853
   340   8 o    1.816 --   342 h    0.879   341 h    0.797
   341   1 h    0.873 --   340 o    0.797
   342   1 h    0.899 --   340 o    0.879
   343   8 o    1.875 --   345 h    0.827   344 h    0.817
   344   1 h    0.878 --   343 o    0.817
   345   1 h    0.889 --   343 o    0.827
   346   8 o    1.870 --   347 h    0.854   348 h    0.824
   347   1 h    0.892 --   346 o    0.854
   348   1 h    0.886 --   346 o    0.824
   349   8 o    1.877 --   350 h    0.835   351 h    0.786
   350   1 h    0.884 --   349 o    0.835
   351   1 h    0.876 --   349 o    0.786
   352   8 o    1.832 --   353 h    0.858   354 h    0.843
   353   1 h    0.888 --   352 o    0.858
   354   1 h    0.884 --   352 o    0.843
   355   8 o    1.820 --   357 h    0.851   356 h    0.840
   356   1 h    0.890 --   355 o    0.840
   357   1 h    0.883 --   355 o    0.851
   358   8 o    1.798 --   359 h    0.869   360 h    0.818
   359   1 h    0.896 --   358 o    0.869
   360   1 h    0.883 --   358 o    0.818
   361   8 o    1.828 --   362 h    0.859   363 h    0.833
   362   1 h    0.891 --   361 o    0.859
   363   1 h    0.888 --   361 o    0.833
   364   8 o    1.839 --   365 h    0.896   366 h    0.778
   365   1 h    0.905 --   364 o    0.896
   366   1 h    0.872 --   364 o    0.778
   367   8 o    1.813 --   368 h    0.890   369 h    0.845
   368   1 h    0.901 --   367 o    0.890
   369   1 h    0.884 --   367 o    0.845
   370   8 o    1.835 --   372 h    0.895   371 h    0.765
   371   1 h    0.858 --   370 o    0.765
   372   1 h    0.902 --   370 o    0.895
   373   8 o    1.841 --   375 h    0.855   374 h    0.813
   374   1 h    0.873 --   373 o    0.813
   375   1 h    0.892 --   373 o    0.855
   376   8 o    1.855 --   377 h    0.896   378 h    0.788
   377   1 h    0.900 --   376 o    0.896
   378   1 h    0.869 --   376 o    0.788
   379   8 o    1.817 --   381 h    0.851   380 h    0.834
   380   1 h    0.889 --   379 o    0.834
   381   1 h    0.895 --   379 o    0.851
   382   8 o    1.834 --   384 h    0.880   383 h    0.843
   383   1 h    0.883 --   382 o    0.843
   384   1 h    0.895 --   382 o    0.880
   385   8 o    1.863 --   387 h    0.837   386 h    0.836
   386   1 h    0.883 --   385 o    0.836
   387   1 h    0.882 --   385 o    0.837
   388   8 o    1.858 --   390 h    0.855   389 h    0.796
   389   1 h    0.866 --   388 o    0.796
   390   1 h    0.893 --   388 o    0.855
   391   8 o    1.849 --   393 h    0.876   392 h    0.810
   392   1 h    0.883 --   391 o    0.810
   393   1 h    0.896 --   391 o    0.876
   394   8 o    1.844 --   395 h    0.841   396 h    0.821
   395   1 h    0.888 --   394 o    0.841
   396   1 h    0.876 --   394 o    0.821
   397   8 o    1.860 --   399 h    0.837   398 h    0.825
   398   1 h    0.893 --   397 o    0.825
   399   1 h    0.887 --   397 o    0.837
   400   8 o    1.857 --   402 h    0.830   401 h    0.823
   401   1 h    0.878 --   400 o    0.823
   402   1 h    0.892 --   400 o    0.830
   403   8 o    1.832 --   404 h    0.859   405 h    0.814
   404   1 h    0.894 --   403 o    0.859
   405   1 h    0.876 --   403 o    0.814
   406   8 o    1.880 --   407 h    0.847   408 h    0.831
   407   1 h    0.891 --   406 o    0.847
   408   1 h    0.891 --   406 o    0.831
   409   8 o    1.834 --   411 h    0.860   410 h    0.824
   410   1 h    0.884 --   409 o    0.824
   411   1 h    0.892 --   409 o    0.860
   412   8 o    1.825 --   413 h    0.809   414 h    0.800
   413   1 h    0.880 --   412 o    0.809
   414   1 h    0.877 --   412 o    0.800
   415   8 o    1.847 --   417 h    0.845   416 h    0.794
   416   1 h    0.872 --   415 o    0.794
   417   1 h    0.891 --   415 o    0.845
   418   8 o    1.861 --   419 h    0.869   420 h    0.819
   419   1 h    0.891 --   418 o    0.869
   420   1 h    0.880 --   418 o    0.819
   421   8 o    1.824 --   422 h    0.897   423 h    0.798
   422   1 h    0.903 --   421 o    0.897
   423   1 h    0.879 --   421 o    0.798
   424   8 o    1.850 --   425 h    0.865   426 h    0.823
   425   1 h    0.890 --   424 o    0.865
   426   1 h    0.879 --   424 o    0.823
   427   8 o    1.842 --   428 h    0.870   429 h    0.805
   428   1 h    0.899 --   427 o    0.870
   429   1 h    0.876 --   427 o    0.805
   430   8 o    1.819 --   432 h    0.888   431 h    0.806
   431   1 h    0.872 --   430 o    0.806
   432   1 h    0.900 --   430 o    0.888
   433   8 o    1.842 --   434 h    0.849   435 h    0.823
   434   1 h    0.895 --   433 o    0.849
   435   1 h    0.876 --   433 o    0.823
   436   8 o    1.835 --   438 h    0.882   437 h    0.824
   437   1 h    0.872 --   436 o    0.824
   438   1 h    0.898 --   436 o    0.882
   439   8 o    1.821 --   440 h    0.895   441 h    0.818
   440   1 h    0.904 --   439 o    0.895
   441   1 h    0.873 --   439 o    0.818
   442   8 o    1.819 --   444 h    0.891   443 h    0.824
   443   1 h    0.878 --   442 o    0.824
   444   1 h    0.899 --   442 o    0.891
   445   8 o    1.850 --   447 h    0.897   446 h    0.799
   446   1 h    0.880 --   445 o    0.799
   447   1 h    0.901 --   445 o    0.897
   448   8 o    1.824 --   449 h    0.842   450 h    0.823
   449   1 h    0.890 --   448 o    0.842
   450   1 h    0.886 --   448 o    0.823
   451   8 o    1.856 --   453 h    0.809   452 h    0.808
   452   1 h    0.876 --   451 o    0.808
   453   1 h    0.877 --   451 o    0.809
   454   8 o    1.796 --   456 h    0.822   455 h    0.819
   455   1 h    0.887 --   454 o    0.819
   456   1 h    0.886 --   454 o    0.822
   457   8 o    1.839 --   459 h    0.890   458 h    0.795
   458   1 h    0.879 --   457 o    0.795
   459   1 h    0.902 --   457 o    0.890
   460   8 o    1.866 --   461 h    0.883   462 h    0.828
   461   1 h    0.899 --   460 o    0.883
   462   1 h    0.879 --   460 o    0.828
   463   8 o    1.850 --   464 h    0.850   465 h    0.811
   464   1 h    0.890 --   463 o    0.850
   465   1 h    0.879 --   463 o    0.811
   466   8 o    1.872 --   468 h    0.824   467 h    0.809
   467   1 h    0.889 --   466 o    0.809
   468   1 h    0.887 --   466 o    0.824
   469   8 o    1.824 --   470 h    0.872   471 h    0.818
   470   1 h    0.893 --   469 o    0.872
   471   1 h    0.881 --   469 o    0.818
   472   8 o    1.812 --   474 h    0.877   473 h    0.856
   473   1 h    0.886 --   472 o    0.856
   474   1 h    0.895 --   472 o    0.877
   475   8 o    1.857 --   477 h    0.863   476 h    0.794
   476   1 h    0.864 --   475 o    0.794
   477   1 h    0.890 --   475 o    0.863
   478   8 o    1.865 --   480 h    0.823   479 h    0.821
   479   1 h    0.878 --   478 o    0.821
   480   1 h    0.877 --   478 o    0.823
   481   8 o    1.837 --   483 h    0.894   482 h    0.796
   482   1 h    0.868 --   481 o    0.796
   483   1 h    0.906 --   481 o    0.894
   484   8 o    1.876 --   486 h    0.837   485 h    0.833
   485   1 h    0.890 --   484 o    0.833
   486   1 h    0.877 --   484 o    0.837
   487   8 o    1.813 --   489 h    0.854   488 h    0.842
   488   1 h    0.885 --   487 o    0.842
   489   1 h    0.890 --   487 o    0.854
   490   8 o    1.850 --   491 h    0.812   492 h    0.797
   491   1 h    0.881 --   490 o    0.812
   492   1 h    0.877 --   490 o    0.797
   493   8 o    1.820 --   494 h    0.888   495 h    0.820
   494   1 h    0.900 --   493 o    0.888
   495   1 h    0.880 --   493 o    0.820
   496   8 o    1.835 --   498 h    0.856   497 h    0.799
   497   1 h    0.888 --   496 o    0.799
   498   1 h    0.890 --   496 o    0.856
   499   8 o    1.870 --   501 h    0.829   500 h    0.828
   500   1 h    0.879 --   499 o    0.828
   501   1 h    0.891 --   499 o    0.829
   502   8 o    1.811 --   503 h    0.853   504 h    0.845
   503   1 h    0.894 --   502 o    0.853
   504   1 h    0.887 --   502 o    0.845
   505   8 o    1.880 --   507 h    0.833   506 h    0.799
   506   1 h    0.871 --   505 o    0.799
   507   1 h    0.889 --   505 o    0.833
   508   8 o    1.848 --   509 h    0.896   510 h    0.776
   509   1 h    0.902 --   508 o    0.896
   510   1 h    0.876 --   508 o    0.776
   511   8 o    1.876 --   512 h    0.834   513 h    0.826
   512   1 h    0.889 --   511 o    0.834
   513   1 h    0.888 --   511 o    0.826
   514   8 o    1.854 --   516 h    0.898   515 h    0.830
   515   1 h    0.883 --   514 o    0.830
   516   1 h    0.902 --   514 o    0.898
   517   8 o    1.835 --   518 h    0.862   519 h    0.850
   518   1 h    0.888 --   517 o    0.862
   519   1 h    0.884 --   517 o    0.850
   520   8 o    1.871 --   522 h    0.813   521 h    0.784
   521   1 h    0.874 --   520 o    0.784
   522   1 h    0.880 --   520 o    0.813
   523   8 o    1.819 --   525 h    0.889   524 h    0.788
   524   1 h    0.871 --   523 o    0.788
   525   1 h    0.901 --   523 o    0.889
   526   8 o    1.854 --   528 h    0.890   527 h    0.833
   527   1 h    0.884 --   526 o    0.833
   528   1 h    0.896 --   526 o    0.890
   529   8 o    1.776 --   531 h    0.888   530 h    0.888
   530   1 h    0.888 --   529 o    0.888
   531   1 h    0.888 --   529 o    0.888
 ---------------------------------------------------------------------------

Topologies differ in total number of bonds
Writing topology from bond orders to xtbtopo.mol

molecular dipole:
                 x           y           z       tot (Debye)
 q only:       -5.019       2.003       2.012
   full:       -6.643       1.628       1.867      18.020
molecular quadrupole (traceless):
                xx          xy          yy          xz          yz          zz
 q only:       56.067      -6.545     -58.817     118.437     -84.384       2.750
  q+dip:       63.905      -2.668     -78.558     155.443    -112.443      14.654
   full:       65.228      -2.413     -80.261     154.820    -112.522      15.033


           -------------------------------------------------
          | TOTAL ENERGY             -901.379393091712 Eh   |
          | GRADIENT NORM               0.095459454466 Eh/α |
          | HOMO-LUMO GAP               7.288547012295 eV   |
           -------------------------------------------------

------------------------------------------------------------------------
 * finished run on 2022/11/17 at 06:54:58.616     
------------------------------------------------------------------------
 total:
 * wall-time:     0 d,  0 h,  0 min,  9.441 sec
 *  cpu-time:     0 d,  0 h,  0 min, 14.739 sec
 * ratio c/w:     1.561 speedup
 SCF:
 * wall-time:     0 d,  0 h,  0 min,  8.902 sec
 *  cpu-time:     0 d,  0 h,  0 min, 13.727 sec
 * ratio c/w:     1.542 speedup

