531
 energy: -901.149180166027 gnorm: 0.004787133503 xtb: 6.5.1 (579679a)
o            1.02836361979137       -3.39583891674405       -2.18111062114298
h            1.57765246933008       -4.13476314428864       -1.86251449570129
h            0.09168753569346       -3.55131954181876       -1.96264460471167
o           -0.13503720447176       -5.90570864678582        0.58095763500042
h            0.49083997676134       -5.13452290073402        0.56857712444908
h            0.22660884397574       -6.48796487526549        1.28330799153824
o            2.62735762154171        3.55875124822956        1.75444992812750
h            2.64289281100040        2.83050670889378        1.11150448377798
h            1.92222778046136        3.37037137310691        2.39230338034937
o            3.55417461855433       -1.16104030258230        0.48615920829561
h            3.75633307169829       -2.10208582857469        0.40222860738228
h            4.39806013366108       -0.70027388413059        0.31066384487748
o           -5.87959473380867        0.87715460132030        5.82042268279812
h           -5.40745398051236        1.72526693073465        5.83455798988679
h           -5.35851643305237        0.27493588189207        5.26690755195180
o            2.68867350905281       -5.27437396215917       -1.22125873079494
h            3.41768196761751       -5.69997108037361       -1.71699016880274
h            2.43355529032212       -5.91016572027243       -0.53722859905740
o           -4.25834037302379       -3.87533125995806        3.15676576782478
h           -4.04836492400485       -4.30532282126497        4.01587141851905
h           -3.61626995189294       -3.15508211348062        3.04250994442478
o            4.15385195771775       -2.17236645415406        5.44225317508359
h            3.64242288496674       -1.97622517685154        4.61789339896530
h            3.53888767807251       -2.07300184267275        6.17263275332127
o           -3.15638535095980       -3.55398898247118        0.43536961500770
h           -2.64777335144742       -3.80891676011978        1.22644720191372
h           -2.50608269389312       -3.45498914955646       -0.28697101087541
o            0.99132775362740        2.65774850852198        3.68304058469845
h            0.12010369605732        2.32740368097011        3.35865661389362
h            0.77434929805816        3.17312255000676        4.48753470475955
o           -1.11259619007664       -1.32681815940159       -3.54516866658951
h           -1.42481345211005       -2.22703525848239       -3.69506683408237
h           -1.77919292233170       -0.88443974324412       -3.00071588790251
o            3.59058335397614        3.16414665433965        4.41804739110643
h            4.03417047232133        3.11803797731773        3.55084937856260
h            2.70096628901248        2.81683416456242        4.26571410723979
o           -0.21798607537573        2.30127893179414        0.48971469286581
h            0.12929126060480        3.16593469777408        0.76086791110897
h           -0.83509939812203        2.45614980232559       -0.24255606969611
o           -3.08860417014836        3.57738655240046        3.42371180175831
h           -2.65594272798927        4.42591688787649        3.63510540334554
h           -3.76416775127175        3.75608149982192        2.74276226513461
o           -0.66093690228041       -0.57783530949032       -6.07924420548583
h           -0.81743837756028       -0.77331096465448       -5.12528161519138
h            0.30025047654351       -0.64842734094080       -6.21490060629972
o           -0.50902996087394        4.60792341219021       -2.74690632174999
h           -0.78821973267114        4.96840182284605       -3.59871434712209
h            0.09252925591539        5.24461911811991       -2.34469079676662
o           -3.38412635963080        0.02088485046262       -4.37533568666925
h           -3.64903263965355       -0.48075724929689       -5.16556851125379
h           -4.10003902811060        0.66661425465345       -4.24777570460391
o            0.90911074005555       -2.63350984127056       -4.73797455992484
h            0.01673274694784       -2.93104362216642       -4.93521458332551
h            1.08061789204357       -2.97881796643397       -3.83607780519996
o            1.86897646960212        0.34912095150958        2.18480271670016
h            1.58494734555336        1.17563287362830        2.58371230079050
h            2.33768335321675        0.57107266441731        1.36690860628221
o            2.85399742701460       -1.94993343929090        3.11508401349183
h            2.54796943070685       -1.08286690273492        2.76677537840683
h            3.43929578651214       -2.28806888391960        2.42891354575252
o           -4.14534777440694        5.22388010014349       -3.36782035694368
h           -3.32055792772847        5.53457108491883       -2.96123968126491
h           -3.89319176950136        4.57588441396280       -4.03698593486042
o            1.37925413743672        0.01910780122715       -3.74178957614783
h            0.54003009169753        0.49849912575094       -3.75527880979650
h            1.18839647014409       -0.85178377627409       -4.12198653277418
o            5.17908645189936        2.65957119355296        2.31945595680769
h            5.89627603946100        2.77267067045993        1.64625918556471
h            4.98479036262571        1.70300535020036        2.39464227733207
o            8.60290922184733       -1.37977106368877       -0.58966325239263
h            9.11886371987854       -1.79155821258438       -1.30262390644646
h            9.05808270241757       -1.57817389298146        0.25538937450576
o           -5.13481881710662        0.39753202051799       -0.64258550588271
h           -5.09056913671190       -0.34121681084316        0.01186349879960
h           -4.70260281480626        1.13937706839210       -0.18950112861880
o            2.87835261795489        1.54370581587950       -0.09512997287430
h            2.19892247509020        1.74676968614010       -0.75472968797818
h            3.69433576325047        1.38335551425637       -0.57497004455618
o           -5.07631532753444       -1.10483224559715        4.06895454969455
h           -4.24123810881050       -1.23917664273300        3.58953007567403
h           -5.77424951258197       -1.33460626727937        3.44229283143427
o           -2.21596968590890       -2.57726078298951       -6.94742624563809
h           -3.09626090773827       -2.18587308560105       -6.98396071384885
h           -1.60173898349527       -1.83148535218042       -6.77537651620055
o           -5.40249274687281        1.83757298701550       -4.53694247597600
h           -6.07916897399268        1.42794904431931       -5.07813627166553
h           -5.80215135659368        2.01195466013661       -3.65226245885406
o            7.56132118438272       -4.25669574477607        4.09855468984832
h            6.61329220043838       -4.46286923844794        4.08297743369333
h            7.90307298807635       -4.49244492080415        3.21960083519512
o            5.61357954798857       -4.48626787307701       -3.95126793651315
h            6.41318714670317       -3.93038381955047       -3.85370487736455
h            5.47203351052098       -4.54998162146591       -4.92404696796154
o          -10.19978446239421       -3.55998625071515       -1.32213025533678
h           -9.35256645399653       -4.02196881025370       -1.46727219327082
h          -10.34043696374458       -3.63202875793103       -0.36783448327340
o           -2.68918589690541       -0.01920494971846       -1.59645260578590
h           -3.64851680670120        0.02603261748465       -1.40212805941453
h           -2.37977543141140        0.89446566011384       -1.56302532988703
o           -1.06971876895443       -6.25094736615530       -1.91469357366044
h           -0.68294191663843       -6.21441035954548       -1.01964172610040
h           -0.30517342568666       -6.38752490348433       -2.51297513745375
o            0.22873096957889       -2.44090359853996        3.40071424809178
h            1.17723759367926       -2.46211034717241        3.20441336310375
h            0.08178731431204       -1.56505829139872        3.79585670513168
o            4.83461956685815       -6.49987619576043       -2.29023446011854
h            5.48662988166685       -6.42620599619542       -1.56257299392900
h            5.22036058437010       -5.96579848051070       -3.00293900449611
o            2.58757631323224        0.44605205481683        4.93556213659286
h            1.71485381500078        0.36862343320036        4.50290478223352
h            3.26152764630480        0.38625714516415        4.23246094032460
o           -7.78096509970477       -1.64766289553487        0.11911867674858
h           -8.43127247677129       -2.30072720094520        0.43677599527698
h           -7.04027172982445       -2.12617115134025       -0.30473397832750
o            5.67805554880666        2.12503861794501       -1.52270984322766
h            5.20235652134068        2.86357277012609       -1.07996728430365
h            6.61454763552185        2.29542296753729       -1.35542593944742
o           -1.09670197675140        1.47331316521023       -3.88296919964940
h           -1.82873849483513        0.92858967044839       -4.22515458100242
h           -1.47868633721156        1.94084203363419       -3.12113229183073
o            3.94506251408859       -3.82372568914574        0.60336472102168
h            4.29866079468293       -4.60209687993109        1.07431355802829
h            3.75132613506301       -4.12562925053646       -0.30349051794328
o            1.78634781226778       -1.30835225081497        6.77786569826969
h            2.11908903049712       -0.68663192899639        6.09180598961990
h            0.99889015802601       -0.88060592620015        7.13841042711914
o            6.07558111192544       -0.26439283477036        5.37928520032592
h            5.73613880591782        0.51594805633162        5.85681470962201
h            5.44140729676230       -0.98904822813909        5.55165880233316
o           -2.57675128713640       -1.62140373347086        3.13993617308582
h           -1.97378547607801       -2.14381750380294        3.69960704016156
h           -2.14789049872518       -1.41588558363843        2.28799456932651
o            1.15015458989199        2.40160716408604       -2.03274106920840
h            0.43561047398513        2.45621282311969       -2.66896902408069
h            1.25481261578223        3.30791960320099       -1.64589934039818
o           -0.52829199418647        7.36950898067844       -0.41914559271285
h            0.11153723445207        7.24077797072171       -1.13807919981260
h            0.02325026264312        7.48520705064448        0.38684086271011
o           -4.53232400800422       -5.22591579395482       -1.22476333746980
h           -4.34222145804124       -6.17167462240991       -1.07527029233939
h           -4.07397893582824       -4.74777362861566       -0.50291557234088
o           -4.87476864903334        1.54343196110485        2.98414422363963
h           -5.46000075963727        0.84247453283780        2.65621369886453
h           -5.45734564618372        2.27130456007486        3.29109310696182
o            8.47877182556451        3.80706025879227       -4.06186318635232
h            7.67972209029809        3.30307625305054       -4.30945466678125
h            9.17375146618613        3.13276370665144       -3.95838363225276
o           -1.97084062085137        1.61210484363383       -6.86677652402056
h           -2.52943179342672        1.26185278982897       -7.55865569932995
h           -1.43014876481523        0.85931173117542       -6.54111515753466
o           -6.91704639785695        0.09489335699585        1.94596159005930
h           -7.40915435150065        0.06118964172294        2.78833930170614
h           -7.27324010711003       -0.58337834057590        1.33671977578305
o            1.97393923366394        2.01954950243202        7.07091847228118
h            2.27420711660596        1.52717220961352        6.28229111404728
h            1.32949507005340        1.45631371298725        7.50629983368732
o           -6.50346223902813        2.34523526161610       -2.19907475517632
h           -7.27998216658469        2.89449642815709       -2.42456858005562
h           -6.86550129453910        1.52320862878114       -1.80462626517214
o           -3.30520701645246        1.77613015321580        0.85601954498084
h           -3.86466470934769        1.76240524998930        1.66358701595737
h           -2.69015943591513        1.03930255307630        0.95296026968707
o            7.77048087807769       -1.64784494431777        3.71250501596474
h            7.33012865873208       -1.12794369285291        4.40040352794361
h            7.78888865446962       -2.58138358880697        4.02927316607604
o            8.29755475627740        1.19461485216723       -1.36552367831095
h            8.48974025044680        0.32150640287149       -0.96993148551256
h            8.81544470022871        1.86574986250146       -0.88283337889351
o           -9.24688543100114        2.15652640172370        2.94751312873857
h           -8.54354398195494        2.52237483238128        2.38975424238581
h           -9.83564460267766        1.64713700958343        2.38118703318070
o            2.75577392242751        1.82354029881719       -5.80773475317561
h            1.90395102555703        2.28770595215342       -5.84219507817804
h            3.04563901993470        1.93556991312361       -4.87192840399674
o           -3.56978032190614       -4.79467983806377        5.53851069505333
h           -4.21913214106113       -4.24065515986428        6.00144015290412
h           -2.76302749155449       -4.23512248807773        5.50306821564143
o            3.11172467180348        6.15921028576656        1.21474793669907
h            3.90593758061874        6.35051135061828        1.72299272604594
h            2.87428587113223        5.23440647156729        1.44588335535542
o           -4.43320337810044        3.62405235057093       -1.19563335277265
h           -4.41446289443903        4.30978183565135       -1.89355669542152
h           -5.15631994491166        3.02600996695569       -1.46697474689821
o           -6.47144537259826        3.55161906569136        3.76471833792049
h           -7.12417274794042        4.02072833636838        3.22170369489961
h           -5.90648550561360        4.25519975581493        4.11276101853015
o           -5.24182937887869        6.83754784743226        1.72249601909207
h           -5.47800500206676        7.04566931562332        0.80914452903016
h           -4.28539159101405        7.02585726346178        1.76642903681583
o           -4.99793501380631        4.10255317957736        1.44538523980114
h           -4.71282296395823        3.98306238006304        0.52042888121607
h           -5.18113195040977        5.04953419391903        1.56771222715251
o            5.89338390572914       -0.07783847537830        0.05144725612688
h            5.82951856395415        0.68638329491927       -0.54623599802185
h            6.67829568050757        0.05846946697538        0.59981997495043
o            3.44615370847615        5.87654175129187        4.22310968469250
h            4.24627387584310        6.09517377040786        3.73138992711247
h            3.52620289734916        4.92945231485966        4.43671885747412
o            4.59442796684248       -2.80455739030146       -1.84751756189286
h            4.42591747887642       -1.86983307762214       -2.02138070486232
h            4.86014410059009       -3.22518502007700       -2.67430754158572
o            0.25029281677841        4.79892577736971        1.45280398681286
h            0.44189582050242        5.13609882908797        2.34436970469614
h           -0.71338651811398        4.78767925221344        1.33071540403988
o           -0.53620698045254        0.23596377850815        7.23266235687472
h           -1.29965066302203       -0.34979604704717        7.35133816996432
h           -0.93822383845443        1.11608700845294        7.08372012109305
o           -4.66224719755017       -1.45385707721526        1.15833493933289
h           -4.08863775226840       -2.17046333393090        0.82307493073760
h           -5.48887926415811       -1.88412351189680        1.39531305964699
o            5.85903856971542       -1.85143910882892       -5.93415131764682
h            5.84364025054425       -0.92999734271758       -6.24320138297430
h            5.09697664811752       -1.89692782710881       -5.32263145728181
o           -6.64665980674253       -2.88886901087929        2.66851360682324
h           -7.16061981995877       -2.86787939392674        3.49436345440338
h           -5.79062202026333       -3.32562854865769        2.89734467889293
o            3.56966872371672       -1.89642669065487       -4.51391445391236
h            2.95713982714528       -1.53117272804236       -5.17849339785444
h            3.19720982797205       -2.74783355716425       -4.22521790659677
o            2.08126463650650       -0.64613717445339       -6.44164305146334
h            2.31085576940580        0.27458402022474       -6.14826618298174
h            2.45403574822169       -0.76655703598105       -7.31413265801633
o           -8.90802035514015        1.11407238323959       -3.96590269585509
h           -8.58274367431824        0.76801268274603       -3.10068361582761
h           -8.35524066982527        0.66875311055502       -4.63307157135721
o            6.61734355556241       -0.30912518902036       -3.00985822795429
h            5.66396480461411       -0.20104228664792       -2.79571127132200
h            7.10345085986266        0.24153581559110       -2.38661540617684
o            6.57684854301906       -3.02767615170118       -0.13983955902609
h            5.80789149516068       -2.91119484290771       -0.74878555803011
h            7.21607628091342       -2.32287119969073       -0.38577551130877
o           -9.99753387525807       -2.58366360949508       -3.94674590043254
h          -10.45795249884182       -1.72926020656425       -3.91942307696765
h          -10.31832496679614       -3.06954603851660       -3.17573104286494
o           -0.03448606630026       -0.02832503167185        4.51912514822870
h           -0.32612137184365        0.08637116608672        5.43751366472370
h           -0.58145253395473        0.53181001906022        3.94249816712642
o            4.01780635823987       -0.15399501291302       -2.56094120820340
h            3.86420905898980        0.78813797177892       -2.77871348039901
h            3.71768108648447       -0.64961369873085       -3.34778509570252
o            0.39317145972263        3.90051210702211        5.93538827673234
h           -0.46771282160717        3.46662226567714        6.09511041281363
h            1.04431712151113        3.41850679514077        6.48203112011605
o            6.14522435496439        2.41739509702103       -4.27776764462134
h            5.54590063546748        3.09968688932028       -4.63812563518824
h            5.86769812401209        2.25076711928047       -3.35814668994091
o            1.34109874317689       -3.88500860266013        1.15476861396373
h            2.24410061319905       -3.75630070060165        0.81662370873608
h            1.47706902146185       -4.16420856505678        2.07797530021167
o           -8.14039879885757        0.40412432040669       -1.52704815992508
h           -8.77941483357188        0.97316087061313       -1.06414307747209
h           -8.06594405016521       -0.41184051739049       -0.99009277494208
o           -7.26452990891806        4.80908792402674       -0.66539278606658
h           -7.87351387511853        4.72579689055456       -1.40679552038154
h           -7.08246539670992        3.90742898918017       -0.35264569748267
o            1.23621353030785        6.90236004671939       -2.53077973160189
h            2.11853372704847        6.84119809489359       -2.06321869798044
h            1.27718602000635        7.69079853117029       -3.07096221418520
o            8.10983070829386        0.61456739118229        1.52853986428651
h            9.01363673554135        0.48044606792551        1.18430463942362
h            8.20016057111315        0.64370965687863        2.49556463186866
o            9.83325582159918        1.49722913839130       -3.54599077931354
h            9.44076272441401        0.97583312506482       -4.27289573877316
h            9.19267635043050        1.40459273368575       -2.80927382656378
o            5.69698164805090        6.01460201988312        2.44806819617535
h            5.93653496682556        6.21176527449063        1.52802626693430
h            6.49868816987099        5.63839474658642        2.82178063510342
o            7.20638251591312        3.01651866573626        0.75923953106018
h            7.63078291453813        3.69105626485477        1.31760038055679
h            7.62635053794933        2.15975176812447        0.98159127213081
o            2.54211105765016       -7.28490923892744        0.68015592809734
h            2.55885646229675       -7.83401359568306       -0.13651519043471
h            1.95001836618317       -7.69482801609659        1.31744347427173
o            5.61040520888310       -2.24629323069532        2.23862909780680
h            6.43652907203791       -1.97781972920372        2.68959974126667
h            5.86931611986195       -2.50079590068333        1.32917048178370
o            0.71612599345993       -7.07445598825289        2.82610838550199
h           -0.09856293205578       -7.06542092819125        3.34955442403822
h            1.25623168725035       -6.34027377516809        3.17234057417981
o          -10.62317193501314       -0.85066560197758       -1.00885481110122
h          -10.42405395278670       -1.79745808593732       -1.11482272087028
h          -10.94080031064485       -0.54063279214188       -1.86741913634644
o           -7.84491372167203       -2.41510509493363        5.08728945921618
h           -7.80722511586874       -1.44609750263514        5.04092346101810
h           -8.77458141252001       -2.64394817480207        5.12510423580786
o           -7.25991266664664       -4.95112268024937        1.06487218630434
h           -6.45884770966720       -5.50186978445265        1.14766623092307
h           -7.03038235434166       -4.12896981882610        1.54401319905076
o            1.09703914881972       -6.50610570878278       -3.46690480275066
h            0.73497467111112       -6.47577217179709       -4.36430962649231
h            1.74088696388572       -5.76725770203077       -3.43922367701901
o            6.52361436375819       -5.83026340058506       -0.31158442909195
h            6.47990464791373       -4.86424517380965       -0.40372596074325
h            5.98312934810273       -6.05000600769825        0.46304788043969
o           -4.66305383457558       -1.38076881079637       -6.32038087831376
h           -4.85413559294759       -2.21862202336283       -5.85975610444880
h           -5.49607664058996       -0.88892644042819       -6.28845845307549
o           -3.35586884195230       -7.63578932827382       -1.26599549144484
h           -3.20813171165884       -7.91630618854820       -0.35634306363958
h           -2.50812930040324       -7.25895585363525       -1.56271256721613
o            9.68775057369918       -2.07664366993509        1.77418771569632
h            9.52628532107942       -3.02957299922490        1.73420877880504
h            9.09699204570760       -1.75420698874967        2.47568760811288
o            2.07115780924399       -4.82682557218130        3.60796779856311
h            3.02264694596751       -4.62667230175119        3.67602965234884
h            1.63323477467345       -4.37163253401299        4.34740537356073
o           -4.82851704942414       -5.94565033218013        1.47523380403228
h           -4.07908179245458       -6.55878740019507        1.43171896996948
h           -4.54054450984182       -5.20877178824526        2.03927429020225
o           -5.71756797284059       -2.78641429868448       -1.10245819471721
h           -4.94648696957951       -2.49755186618430       -1.62094966231323
h           -5.64236265941797       -3.74642150951794       -1.06022202883575
o           -5.13765278364347       -2.64086358368854        6.25172749478282
h           -5.11484886355920       -2.11425587324538        5.41917566922503
h           -6.07157330309731       -2.73312829332842        6.44908948657246
o            9.91259721403832       -2.47340786252442       -2.71220169846963
h           10.38472501953563       -3.29122243495005       -2.86387098359822
h            9.10374613258120       -2.50629357057351       -3.27544872211323
o            6.75333368094559        2.99005261049185        4.44505891330055
h            6.11139653110243        2.89785855224545        3.69609333748714
h            6.25042328730435        2.84180357384573        5.25558788940213
o           -8.01671806283242        0.29762627548686        4.39850580851947
h           -7.28282653662063        0.61544319250103        4.98302907168908
h           -8.49289719725368        1.10729179526863        4.11951180380363
o           -2.29237075782031        4.34075573597765        0.79873829179515
h           -2.38955605170404        4.67040543809368       -0.11646812609431
h           -2.65724421096871        3.43333179796578        0.82102501882786
o          -11.21165720931518       -0.11322643069507       -3.63688994978011
h          -10.40333332610919        0.42568905290579       -3.82809109084100
h          -11.92607817563334        0.24303495315187       -4.16308679646112
o           -9.57514984534563       -3.32665433346256        1.30937100142063
h           -9.69590946954188       -2.73577554428285        2.07595301559899
h           -9.04049794094920       -4.07855353050382        1.58369008247007
o           -8.86315033100317        3.55202181855384       -2.65914753549185
h           -9.04657239228553        2.91189180544310       -3.36343686085021
h           -9.34845711027745        3.22447160674295       -1.88320470088161
o            7.52724568584405       -2.60866400307565       -3.89641668430176
h            7.17861246128918       -1.82790168931268       -3.40730144098065
h            7.32531854057868       -2.38143563565747       -4.82125404639837
o           -1.78491522080084       -6.39931218639046        3.90482839082151
h           -1.70238792945732       -5.52275665961501        3.46381787063706
h           -2.43246884252249       -6.26928234365420        4.60341131340885
o           -1.63111279037014       -3.65059831550808       -1.72674970989746
h           -2.35611410510678       -3.24212457560514       -2.23579141157008
h           -1.62172720994083       -4.60951995054235       -1.92224386895990
o           -2.56843657490785        5.90489421116103       -1.31604180360131
h           -3.40210518176241        6.31911672933107       -1.04411621702976
h           -1.83427035962167        6.49421083078636       -1.05563369526136
o            3.45428855772109        2.33413164254632       -3.26693559740356
h            3.85248687557741        3.19492849158376       -3.05791767689546
h            2.54768508673340        2.35756193677210       -2.88447876778643
o            4.98954912668408       -4.36457941756699       -6.53403613899133
h            4.04825907111463       -4.29785105385802       -6.74426956908629
h            5.36086785523419       -3.47039787082651       -6.62534085222043
o           -2.46514923539075       -7.32818915261199        1.41387653062459
h           -2.29873378453002       -7.24241688167005        2.36921876629094
h           -1.76723009274149       -6.81140279255828        0.99086537917027
o            5.39012469582007        0.80309655319118       -6.29725809355902
h            4.47002181828472        1.08035783286748       -6.35484504041613
h            5.74743678796974        1.30075141442028       -5.53426515574715
o           11.23768859590030       -0.10417001853564       -1.85567812843585
h           10.92929560921180       -0.95532276836814       -2.19383569756262
h           10.93315895295345        0.55035300133975       -2.51377755217896
o           -3.60760299909718       -5.42633377296068       -3.66309193664895
h           -3.35000893969624       -6.34888865196896       -3.64323220289174
h           -3.94255610192108       -5.23975992867051       -2.74490700593551
o           -7.76176600388591        5.32771786290999        2.06487655522662
h           -7.23667433590238        6.11055788898051        2.24623719190080
h           -7.74916213785544        5.21491440447561        1.10360815681049
o           -7.12077068465556       -0.38947422696547       -5.35947017326399
h           -6.64199269487531       -0.48050738211993       -4.49052346888225
h           -7.61440340565812       -1.20632593148061       -5.46009742382825
o           -2.84989077609524       -1.11007780731049        6.73309462302301
h           -3.03781104936094       -0.44273348332423        6.04122910751261
h           -3.67909378686472       -1.59516745680513        6.85660685616414
o          -10.90274850397501        0.47633060690728        1.22254434597608
h          -11.84957536123105        0.51077814841125        1.36187083154968
h          -10.76423420772609       -0.08441342846813        0.41413241757781
o            2.22146075359951        4.70275672399194       -4.09328256013746
h            1.49363059632513        4.17083105124245       -4.45709181618407
h            1.83805605377057        5.41176389391245       -3.56384894845632
o            8.24513881404033        4.55212567146724        2.75652077365828
h            7.85324717339862        4.07909915795299        3.50857244808515