      -----------------------------------------------------------      
     |                   =====================                   |     
     |                           x T B                           |     
     |                   =====================                   |     
     |                         S. Grimme                         |     
     |          Mulliken Center for Theoretical Chemistry        |     
     |                    University of Bonn                     |     
      -----------------------------------------------------------      

   * xtb version 6.5.1 (579679a) compiled by 'ehlert@majestix' on 2022-07-11

   xtb is free software: you can redistribute it and/or modify it under
   the terms of the GNU Lesser General Public License as published by
   the Free Software Foundation, either version 3 of the License, or
   (at your option) any later version.
   
   xtb is distributed in the hope that it will be useful,
   but WITHOUT ANY WARRANTY; without even the implied warranty of
   MERCHANTABILITY or FITNESS FOR A PARTICULAR PURPOSE.  See the
   GNU Lesser General Public License for more details.
   
   Cite this work as:
   * C. Bannwarth, E. Caldeweyher, S. Ehlert, A. Hansen, P. Pracht,
     J. Seibert, S. Spicher, S. Grimme, WIREs Comput. Mol. Sci., 2020, 11,
     e01493. DOI: 10.1002/wcms.1493
   
   for GFN2-xTB:
   * C. Bannwarth, S. Ehlert and S. Grimme., J. Chem. Theory Comput., 2019,
     15, 1652-1671. DOI: 10.1021/acs.jctc.8b01176
   for GFN1-xTB:
   * S. Grimme, C. Bannwarth, P. Shushkov, J. Chem. Theory Comput., 2017,
     13, 1989-2009. DOI: 10.1021/acs.jctc.7b00118
   for GFN0-xTB:
   * P. Pracht, E. Caldeweyher, S. Ehlert, S. Grimme, ChemRxiv, 2019, preprint.
     DOI: 10.26434/chemrxiv.8326202.v1
   for GFN-FF:
   * S. Spicher and S. Grimme, Angew. Chem. Int. Ed., 2020, 59, 15665-15673.
     DOI: 10.1002/anie.202004239
   
   for ALPB and GBSA implicit solvation:
   * S. Ehlert, M. Stahn, S. Spicher, S. Grimme, J. Chem. Theory Comput.,
     2021, 17, 4250-4261. DOI: 10.1021/acs.jctc.1c00471
   
   for DFT-D4:
   * E. Caldeweyher, C. Bannwarth and S. Grimme, J. Chem. Phys., 2017,
     147, 034112. DOI: 10.1063/1.4993215
   * E. Caldeweyher, S. Ehlert, A. Hansen, H. Neugebauer, S. Spicher,
     C. Bannwarth and S. Grimme, J. Chem. Phys., 2019, 150, 154122.
     DOI: 10.1063/1.5090222
   * E. Caldeweyher, J.-M. Mewes, S. Ehlert and S. Grimme, Phys. Chem. Chem. Phys.
     2020, 22, 8499-8512. DOI: 10.1039/D0CP00502A
   
   for sTDA-xTB:
   * S. Grimme and C. Bannwarth, J. Chem. Phys., 2016, 145, 054103.
     DOI: 10.1063/1.4959605
   
   in the mass-spec context:
   * V. Asgeirsson, C. Bauer and S. Grimme, Chem. Sci., 2017, 8, 4879.
     DOI: 10.1039/c7sc00601b
   * J. Koopman and S. Grimme, ACS Omega 2019, 4, 12, 15120-15133.
     DOI: 10.1021/acsomega.9b02011
   
   for metadynamics refer to:
   * S. Grimme, J. Chem. Theory Comput., 2019, 155, 2847-2862
     DOI: 10.1021/acs.jctc.9b00143
   
   for SPH calculations refer to:
   * S. Spicher and S. Grimme, J. Chem. Theory Comput., 2021, 17, 1701-1714
     DOI: 10.1021/acs.jctc.0c01306
   
   with help from (in alphabetical order)
   P. Atkinson, C. Bannwarth, F. Bohle, G. Brandenburg, E. Caldeweyher
   M. Checinski, S. Dohm, S. Ehlert, S. Ehrlich, I. Gerasimov, C. Hölzer
   A. Katbashev, J. Koopman, C. Lavigne, S. Lehtola, F. März, M. Müller,
   F. Musil, H. Neugebauer, J. Pisarek, C. Plett, P. Pracht, F. Pultar,
   J. Seibert, P. Shushkov, S. Spicher, M. Stahn, M. Steiner, T. Strunk,
   J. Stückrath, T. Rose, and J. Unsleber
   
 * started run on 2022/11/24 at 09:07:52.367     

           -------------------------------------------------
          |                Calculation Setup                |
           -------------------------------------------------

          program call               : xtb solvent_cluster.coord --gfn2 --input xcontrol --opt 1
          hostname                   : cn0341
          coordinate file            : solvent_cluster.coord
          omp threads                :                     2

   ID    Z sym.   atoms
    1    8 o      1, 4, 7, 10, 13, 16, 19, 22, 25, 28, 31, 34, 37, 40, 43,
                  46, 49, 52, 55, 58, 61, 64, 67, 70, 73, 76, 79, 82, 85, 88,
                  91, 94, 97, 100, 103, 106, 109, 112, 115, 118, 121, 124,
                  127, 130, 133, 136, 139, 142, 145, 148, 151, 154, 157, 160,
                  163, 166, 169, 172, 175, 178, 181, 184, 187, 190, 193, 196,
                  199, 202, 205, 208, 211, 214, 217, 220, 223, 226, 229, 232,
                  235, 238, 241, 244, 247, 250, 253, 256, 259, 262, 265, 268,
                  271, 274, 277, 280, 283, 286, 289, 292, 295, 298, 301, 304,
                  307, 310, 313, 316, 319, 322, 325, 328, 331, 334, 337, 340,
                  343, 346, 349, 352, 355, 358, 361, 364, 367, 370, 373, 376,
                  379, 382, 385, 388, 391, 394, 397, 400, 403, 406, 409, 412,
                  415, 418, 421, 424, 427, 430, 433, 436, 439, 442, 445, 448,
                  451, 454, 457, 460, 463, 466, 469, 472, 475, 478, 481, 484,
                  487, 490, 493, 496, 499, 502, 505, 508, 511, 514, 517, 520,
                  523, 526, 529, 532, 535, 538, 541, 544, 547, 550, 553, 556,
                  559, 562, 565, 568, 571, 574, 577, 580, 583, 586, 589, 592,
                  595, 598, 601, 604, 607, 610, 613, 616, 619, 622, 625, 628,
                  631, 634, 637, 640, 643, 646, 649, 652, 655, 658, 661, 664,
                  667, 670, 673, 676, 679, 682, 685, 688, 691, 694, 697, 700,
                  703, 706, 709, 712, 715, 718, 721, 724, 727, 730, 733, 736,
                  739, 742, 745, 748, 751, 754
    2    1 h      2, 3, 5, 6, 8, 9, 11, 12, 14, 15, 17, 18, 20, 21, 23, 24,
                  26, 27, 29, 30, 32, 33, 35, 36, 38, 39, 41, 42, 44, 45, 47,
                  48, 50, 51, 53, 54, 56, 57, 59, 60, 62, 63, 65, 66, 68, 69,
                  71, 72, 74, 75, 77, 78, 80, 81, 83, 84, 86, 87, 89, 90, 92,
                  93, 95, 96, 98, 99, 101, 102, 104, 105, 107, 108, 110, 111,
                  113, 114, 116, 117, 119, 120, 122, 123, 125, 126, 128, 129,
                  131, 132, 134, 135, 137, 138, 140, 141, 143, 144, 146, 147,
                  149, 150, 152, 153, 155, 156, 158, 159, 161, 162, 164, 165,
                  167, 168, 170, 171, 173, 174, 176, 177, 179, 180, 182, 183,
                  185, 186, 188, 189, 191, 192, 194, 195, 197, 198, 200, 201,
                  203, 204, 206, 207, 209, 210, 212, 213, 215, 216, 218, 219,
                  221, 222, 224, 225, 227, 228, 230, 231, 233, 234, 236, 237,
                  239, 240, 242, 243, 245, 246, 248, 249, 251, 252, 254, 255,
                  257, 258, 260, 261, 263, 264, 266, 267, 269, 270, 272, 273,
                  275, 276, 278, 279, 281, 282, 284, 285, 287, 288, 290, 291,
                  293, 294, 296, 297, 299, 300, 302, 303, 305, 306, 308, 309,
                  311, 312, 314, 315, 317, 318, 320, 321, 323, 324, 326, 327,
                  329, 330, 332, 333, 335, 336, 338, 339, 341, 342, 344, 345,
                  347, 348, 350, 351, 353, 354, 356, 357, 359, 360, 362, 363,
                  365, 366, 368, 369, 371, 372, 374, 375, 377, 378, 380, 381,
                  383, 384, 386, 387, 389, 390, 392, 393, 395, 396, 398, 399,
                  401, 402, 404, 405, 407, 408, 410, 411, 413, 414, 416, 417,
                  419, 420, 422, 423, 425, 426, 428, 429, 431, 432, 434, 435,
                  437, 438, 440, 441, 443, 444, 446, 447, 449, 450, 452, 453,
                  455, 456, 458, 459, 461, 462, 464, 465, 467, 468, 470, 471,
                  473, 474, 476, 477, 479, 480, 482, 483, 485, 486, 488, 489,
                  491, 492, 494, 495, 497, 498, 500, 501, 503, 504, 506, 507,
                  509, 510, 512, 513, 515, 516, 518, 519, 521, 522, 524, 525,
                  527, 528, 530, 531, 533, 534, 536, 537, 539, 540, 542, 543,
                  545, 546, 548, 549, 551, 552, 554, 555, 557, 558, 560, 561,
                  563, 564, 566, 567, 569, 570, 572, 573, 575, 576, 578, 579,
                  581, 582, 584, 585, 587, 588, 590, 591, 593, 594, 596, 597,
                  599, 600, 602, 603, 605, 606, 608, 609, 611, 612, 614, 615,
                  617, 618, 620, 621, 623, 624, 626, 627, 629, 630, 632, 633,
                  635, 636, 638, 639, 641, 642, 644, 645, 647, 648, 650, 651,
                  653, 654, 656, 657, 659, 660, 662, 663, 665, 666, 668, 669,
                  671, 672, 674, 675, 677, 678, 680, 681, 683, 684, 686, 687,
                  689, 690, 692, 693, 695, 696, 698, 699, 701, 702, 704, 705,
                  707, 708, 710, 711, 713, 714, 716, 717, 719, 720, 722, 723,
                  725, 726, 728, 729, 731, 732, 734, 735, 737, 738, 740, 741,
                  743, 744, 746, 747, 749, 750, 752, 753, 755, 756

molecular fragmentation (1/2 indicates fragments):
111222222222222222222222222222222222222222222222222222222222222222222222
222222222222222222222222222222222222222222222222222222222222222222222222
222222222222222222222222222222222222222222222222222222222222222222222222
222222222222222222222222222222222222222222222222222222222222222222222222
222222222222222222222222222222222222222222222222222222222222222222222222
222222222222222222222222222222222222222222222222222222222222222222222222
222222222222222222222222222222222222222222222222222222222222222222222222
222222222222222222222222222222222222222222222222222222222222222222222222
222222222222222222222222222222222222222222222222222222222222222222222222
222222222222222222222222222222222222222222222222222222222222222222222222
222222222222222222222222222222222222
# atoms in fragment 1/2:     3   753
 fragment masses (1/2) :       18.02     4521.84
CMA distance (Bohr)    :  18.767
constraining FC (au)   :  0.0500

           -------------------------------------------------
          |                 G F N 2 - x T B                 |
           -------------------------------------------------

        Reference                      10.1021/acs.jctc.8b01176
      * Hamiltonian:
        H0-scaling (s, p, d)           1.850000    2.230000    2.230000
        zeta-weighting                 0.500000
      * Dispersion:
        s8                             2.700000
        a1                             0.520000
        a2                             5.000000
        s9                             5.000000
      * Repulsion:
        kExp                           1.500000    1.000000
        rExp                           1.000000
      * Coulomb:
        alpha                          2.000000
        third order                    shell-resolved
        anisotropic                    true
        a3                             3.000000
        a5                             4.000000
        cn-shift                       1.200000
        cn-exp                         4.000000
        max-rad                        5.000000


          ...................................................
          :                      SETUP                      :
          :.................................................:
          :  # basis functions                1512          :
          :  # atomic orbitals                1512          :
          :  # shells                         1008          :
          :  # electrons                      2016          :
          :  max. iterations                   250          :
          :  Hamiltonian                  GFN2-xTB          :
          :  restarted?                      false          :
          :  GBSA solvation                  false          :
          :  PC potential                    false          :
          :  electronic temp.          300.0000000     K    :
          :  accuracy                    1.0000000          :
          :  -> integral cutoff          0.2500000E+02      :
          :  -> integral neglect         0.1000000E-07      :
          :  -> SCF convergence          0.1000000E-05 Eh   :
          :  -> wf. convergence          0.1000000E-03 e    :
          :  Broyden damping             0.4000000          :
          ...................................................

 iter      E             dE          RMSdq      gap      omega  full diag
   1  -1291.0130635 -0.129101E+04  0.407E+00    8.43       0.0  T
   2  -1291.0834732 -0.704097E-01  0.241E+00    8.32       1.0  T
   3  -1291.1140748 -0.306016E-01  0.208E-01    7.72       1.0  T
   4  -1291.1190603 -0.498558E-02  0.452E-02    7.95       1.0  T
   5  -1291.1191371 -0.767886E-04  0.307E-02    7.91       1.0  T
   6  -1291.1191749 -0.378108E-04  0.402E-03    7.93       1.0  T
   7  -1291.1191770 -0.206634E-05  0.767E-04    7.93       4.7  T
   8  -1291.1191770 -0.327145E-07  0.405E-04    7.93       9.0  T
   9  -1291.1191771 -0.161153E-07  0.635E-05    7.93      57.3  T

   *** convergence criteria satisfied after 9 iterations ***

         #    Occupation            Energy/Eh            Energy/eV
      -------------------------------------------------------------
         1        2.0000           -0.6905364             -18.7905
       ...           ...                  ...                  ...
      1002        2.0000           -0.4090400             -11.1305
      1003        2.0000           -0.4089004             -11.1267
      1004        2.0000           -0.4084330             -11.1140
      1005        2.0000           -0.4083983             -11.1131
      1006        2.0000           -0.4071883             -11.0802
      1007        2.0000           -0.4029134             -10.9638
      1008        2.0000           -0.3987967             -10.8518 (HOMO)
      1009                         -0.1074774              -2.9246 (LUMO)
      1010                         -0.0921155              -2.5066
      1011                         -0.0853950              -2.3237
      1012                         -0.0818798              -2.2281
      1013                         -0.0721189              -1.9625
       ...                                ...                  ...
      1512                          0.4336922              11.8014
      -------------------------------------------------------------
                  HL-Gap            0.2913193 Eh            7.9272 eV
             Fermi-level           -0.2531370 Eh           -6.8882 eV

 SCC (total)                   0 d,  0 h,  0 min, 21.597 sec
 SCC setup                      ...        0 min,  0.042 sec (  0.194%)
 Dispersion                     ...        0 min,  0.111 sec (  0.512%)
 classical contributions        ...        0 min,  0.023 sec (  0.107%)
 integral evaluation            ...        0 min,  0.607 sec (  2.812%)
 iterations                     ...        0 min,  8.381 sec ( 38.804%)
 molecular gradient             ...        0 min, 12.363 sec ( 57.245%)
 printout                       ...        0 min,  0.070 sec (  0.325%)

         :::::::::::::::::::::::::::::::::::::::::::::::::::::
         ::                     SUMMARY                     ::
         :::::::::::::::::::::::::::::::::::::::::::::::::::::
         :: total energy           -1283.341437336540 Eh    ::
         :: gradient norm              0.041144588595 Eh/a0 ::
         :: HOMO-LUMO gap              7.927202826050 eV    ::
         ::.................................................::
         :: SCC energy             -1291.119177064467 Eh    ::
         :: -> isotropic ES            7.157630912247 Eh    ::
         :: -> anisotropic ES         -1.621469038571 Eh    ::
         :: -> anisotropic XC         -0.127166439748 Eh    ::
         :: -> dispersion             -0.793557952337 Eh    ::
         :: repulsion energy           7.621304254622 Eh    ::
         :: add. restraining           0.000000000000 Eh    ::
         :: total charge               0.000000000000 e     ::
         :::::::::::::::::::::::::::::::::::::::::::::::::::::

      ----------------------------------------------------------- 
     |                       L-ANC optimizer                     |
      ----------------------------------------------------------- 
          low memory version by Sebastian Ehlert

          ...................................................
          :                      SETUP                      :
          :.................................................:
          :   energy convergence        0.1000000E-05 Eh    :
          :   grad. convergence         0.8000000E-03 Eh/a0 :
          :   optimization log               true           :
          :   writing optlog all                1     steps :
          :   Hessian reset                    20     steps :
          :   maximium step len.        1.0000000     a0    :
          :   LBFGS images                     20           :
          ...................................................
 * calculating model hessian...
Using Lindh-Hessian (1995)
 Shifting diagonal of input Hessian by   1.000017498842908E-002
 Lowest  eigenvalues of input Hessian
    0.010000    0.010000   -0.000000   -0.000000   -0.000000   -0.000000
   -0.000000   -0.000000   -0.000000   -0.000000   -0.000000   -0.000000
   -0.000000   -0.000000   -0.000000   -0.000000   -0.000000   -0.000000
 Highest eigenvalues
    0.312599    0.327896    1.205124    1.228955    1.430887    1.455337
 

........................................................................
.............................. CYCLE    1 ..............................
........................................................................
   1  -1291.1162775 -0.129112E+04  0.268E-02    7.88       0.0  T
   2  -1291.1162918 -0.142845E-04  0.164E-02    7.89       1.0  T
   3  -1291.1162964 -0.457813E-05  0.204E-03    7.89       1.8  T
   4  -1291.1162968 -0.424134E-06  0.502E-04    7.89       7.2  T
   5  -1291.1162968 -0.784735E-08  0.786E-05    7.89      46.3  T
     SCC iter.                  ...        0 min,  3.584 sec
     gradient                   ...        0 min, 12.418 sec
 * total energy  : -1283.3439187 Eh     change       -0.2481362E-02 Eh
   gradient norm :     0.0281618 Eh/a0  converged?    E=F G=F D=F
   step length   :     0.3996962 a0

........................................................................
.............................. CYCLE    2 ..............................
........................................................................
   1  -1291.1137924 -0.129111E+04  0.202E-02    7.89       0.0  T
   2  -1291.1137998 -0.742056E-05  0.122E-02    7.90       1.0  T
   3  -1291.1138011 -0.129379E-05  0.143E-03    7.90       2.5  T
   4  -1291.1138013 -0.272168E-06  0.276E-04    7.90      13.2  T
   5  -1291.1138013 -0.161549E-08  0.442E-05    7.90      82.2  T
     SCC iter.                  ...        0 min,  3.299 sec
     gradient                   ...        0 min, 12.391 sec
 * total energy  : -1283.3451971 Eh     change       -0.1278361E-02 Eh
   gradient norm :     0.0319096 Eh/a0  converged?    E=F G=F D=F
   step length   :     0.3489964 a0

........................................................................
.............................. CYCLE    3 ..............................
........................................................................
   1  -1291.1156582 -0.129112E+04  0.126E-02    7.91       0.0  T
   2  -1291.1156635 -0.527169E-05  0.749E-03    7.91       1.0  T
   3  -1291.1156642 -0.749173E-06  0.124E-03    7.91       2.9  T
   4  -1291.1156644 -0.160798E-06  0.177E-04    7.91      20.5  T
   5  -1291.1156644 -0.108662E-08  0.351E-05    7.91     103.5  T
     SCC iter.                  ...        0 min,  3.188 sec
     gradient                   ...        0 min, 12.553 sec
 * total energy  : -1283.3465218 Eh     change       -0.1324756E-02 Eh
   gradient norm :     0.0221980 Eh/a0  converged?    E=F G=F D=F
   step length   :     0.3646247 a0

........................................................................
.............................. CYCLE    4 ..............................
........................................................................
   1  -1291.1107373 -0.129111E+04  0.340E-02    7.90       0.0  T
   2  -1291.1107800 -0.426302E-04  0.208E-02    7.89       1.0  T
   3  -1291.1107915 -0.115737E-04  0.344E-03    7.89       1.1  T
   4  -1291.1107929 -0.133705E-05  0.901E-04    7.89       4.0  T
   5  -1291.1107929 -0.303139E-07  0.148E-04    7.89      24.6  T
   6  -1291.1107929 -0.126852E-08  0.549E-05    7.89      66.2  T
     SCC iter.                  ...        0 min,  3.815 sec
     gradient                   ...        0 min, 12.356 sec
 * total energy  : -1283.3465249 Eh     change       -0.3073657E-05 Eh
   gradient norm :     0.0515782 Eh/a0  converged?    E=F G=F D=F
   step length   :     0.8740164 a0

........................................................................
.............................. CYCLE    5 ..............................
........................................................................
   1  -1291.1270013 -0.129113E+04  0.274E-02    7.93       0.0  T
   2  -1291.1270141 -0.127602E-04  0.164E-02    7.93       1.0  T
   3  -1291.1270197 -0.557481E-05  0.211E-03    7.93       1.7  T
   4  -1291.1270200 -0.332424E-06  0.651E-04    7.93       5.6  T
   5  -1291.1270200 -0.165783E-07  0.796E-05    7.93      45.7  T
     SCC iter.                  ...        0 min,  3.251 sec
     gradient                   ...        0 min, 12.460 sec
 * total energy  : -1283.3472783 Eh     change       -0.7534129E-03 Eh
   gradient norm :     0.0352635 Eh/a0  converged?    E=F G=F D=F
   step length   :     0.2922839 a0

........................................................................
.............................. CYCLE    6 ..............................
........................................................................
   1  -1291.1193456 -0.129112E+04  0.158E-02    7.91       0.0  T
   2  -1291.1193575 -0.118965E-04  0.904E-03    7.91       1.0  T
   3  -1291.1193597 -0.214000E-05  0.194E-03    7.92       1.9  T
   4  -1291.1193599 -0.267030E-06  0.375E-04    7.92       9.7  T
   5  -1291.1193599 -0.466252E-08  0.640E-05    7.92      56.8  T
     SCC iter.                  ...        0 min,  3.191 sec
     gradient                   ...        0 min, 12.408 sec
 * total energy  : -1283.3481729 Eh     change       -0.8946121E-03 Eh
   gradient norm :     0.0124604 Eh/a0  converged?    E=F G=F D=F
   step length   :     0.2325161 a0

........................................................................
.............................. CYCLE    7 ..............................
........................................................................
   1  -1291.1199243 -0.129112E+04  0.863E-03    7.92       0.0  T
   2  -1291.1199280 -0.371647E-05  0.509E-03    7.92       1.0  T
   3  -1291.1199288 -0.780062E-06  0.108E-03    7.91       3.4  T
   4  -1291.1199289 -0.939356E-07  0.230E-04    7.92      15.8  T
   5  -1291.1199289 -0.163050E-08  0.350E-05    7.91     104.0  T
     SCC iter.                  ...        0 min,  3.199 sec
     gradient                   ...        0 min, 12.421 sec
 * total energy  : -1283.3483812 Eh     change       -0.2082559E-03 Eh
   gradient norm :     0.0123329 Eh/a0  converged?    E=F G=F D=F
   step length   :     0.1715087 a0

........................................................................
.............................. CYCLE    8 ..............................
........................................................................
   1  -1291.1210666 -0.129112E+04  0.546E-03    7.92       0.0  T
   2  -1291.1210671 -0.521816E-06  0.331E-03    7.92       1.1  T
   3  -1291.1210673 -0.182138E-06  0.368E-04    7.92       9.9  T
   4  -1291.1210673 -0.130892E-07  0.106E-04    7.92      34.4  T
     SCC iter.                  ...        0 min,  2.562 sec
     gradient                   ...        0 min, 12.487 sec
 * total energy  : -1283.3485132 Eh     change       -0.1320466E-03 Eh
   gradient norm :     0.0083857 Eh/a0  converged?    E=F G=F D=F
   step length   :     0.0949469 a0

........................................................................
.............................. CYCLE    9 ..............................
........................................................................
   1  -1291.1216445 -0.129112E+04  0.408E-03    7.92       0.0  T
   2  -1291.1216450 -0.486526E-06  0.244E-03    7.92       1.5  T
   3  -1291.1216451 -0.871694E-07  0.386E-04    7.92       9.4  T
   4  -1291.1216451 -0.153664E-07  0.779E-05    7.92      46.7  T
     SCC iter.                  ...        0 min,  2.533 sec
     gradient                   ...        0 min, 12.478 sec
 * total energy  : -1283.3486359 Eh     change       -0.1226338E-03 Eh
   gradient norm :     0.0030267 Eh/a0  converged?    E=F G=F D=F
   step length   :     0.0588122 a0

........................................................................
.............................. CYCLE   10 ..............................
........................................................................
   1  -1291.1216022 -0.129112E+04  0.647E-03    7.92       0.0  T
   2  -1291.1216027 -0.498427E-06  0.397E-03    7.92       1.0  T
   3  -1291.1216029 -0.183730E-06  0.347E-04    7.91      10.5  T
   4  -1291.1216029 -0.138691E-07  0.102E-04    7.91      35.7  T
     SCC iter.                  ...        0 min,  2.536 sec
     gradient                   ...        0 min, 12.516 sec
 * total energy  : -1283.3487503 Eh     change       -0.1144098E-03 Eh
   gradient norm :     0.0040677 Eh/a0  converged?    E=F G=F D=F
   step length   :     0.1090411 a0

........................................................................
.............................. CYCLE   11 ..............................
........................................................................
   1  -1291.1224715 -0.129112E+04  0.415E-03    7.91       0.0  T
   2  -1291.1224721 -0.601921E-06  0.251E-03    7.91       1.4  T
   3  -1291.1224722 -0.127480E-06  0.400E-04    7.91       9.1  T
   4  -1291.1224722 -0.178291E-07  0.817E-05    7.91      44.5  T
     SCC iter.                  ...        0 min,  2.533 sec
     gradient                   ...        0 min, 12.449 sec
 * total energy  : -1283.3488155 Eh     change       -0.6527753E-04 Eh
   gradient norm :     0.0022022 Eh/a0  converged?    E=F G=F D=F
   step length   :     0.1105949 a0

........................................................................
.............................. CYCLE   12 ..............................
........................................................................
   1  -1291.1218452 -0.129112E+04  0.421E-03    7.91       0.0  T
   2  -1291.1218455 -0.304061E-06  0.257E-03    7.91       1.4  T
   3  -1291.1218456 -0.906987E-07  0.277E-04    7.91      13.1  T
   4  -1291.1218456 -0.939326E-08  0.724E-05    7.91      50.2  T
     SCC iter.                  ...        0 min,  2.509 sec
     gradient                   ...        0 min, 12.503 sec
 * total energy  : -1283.3488443 Eh     change       -0.2877281E-04 Eh
   gradient norm :     0.0022800 Eh/a0  converged?    E=F G=F D=F
   step length   :     0.1033667 a0

........................................................................
.............................. CYCLE   13 ..............................
........................................................................
   1  -1291.1221263 -0.129112E+04  0.156E-03    7.91       0.0  T
   2  -1291.1221265 -0.130040E-06  0.913E-04    7.91       4.0  T
   3  -1291.1221265 -0.182126E-07  0.194E-04    7.91      18.7  T
     SCC iter.                  ...        0 min,  1.876 sec
     gradient                   ...        0 min, 12.482 sec
 * total energy  : -1283.3488560 Eh     change       -0.1173434E-04 Eh
   gradient norm :     0.0024955 Eh/a0  converged?    E=F G=F D=F
   step length   :     0.0553484 a0

........................................................................
.............................. CYCLE   14 ..............................
........................................................................
   1  -1291.1220811 -0.129112E+04  0.864E-04    7.91       0.0  T
   2  -1291.1220811 -0.305345E-07  0.521E-04    7.91       7.0  T
   3  -1291.1220811 -0.730392E-08  0.962E-05    7.91      37.8  T
     SCC iter.                  ...        0 min,  1.832 sec
     gradient                   ...        0 min, 12.408 sec
 * total energy  : -1283.3488624 Eh     change       -0.6321586E-05 Eh
   gradient norm :     0.0019110 Eh/a0  converged?    E=F G=F D=F
   step length   :     0.0280306 a0

........................................................................
.............................. CYCLE   15 ..............................
........................................................................
   1  -1291.1220668 -0.129112E+04  0.289E-03    7.91       0.0  T
   2  -1291.1220671 -0.257269E-06  0.175E-03    7.91       2.1  T
   3  -1291.1220671 -0.696241E-07  0.278E-04    7.91      13.1  T
   4  -1291.1220671 -0.879322E-08  0.735E-05    7.91      49.5  T
     SCC iter.                  ...        0 min,  2.433 sec
     gradient                   ...        0 min, 12.345 sec
 * total energy  : -1283.3488716 Eh     change       -0.9207486E-05 Eh
   gradient norm :     0.0013843 Eh/a0  converged?    E=F G=F D=F
   step length   :     0.0877606 a0

........................................................................
.............................. CYCLE   16 ..............................
........................................................................
   1  -1291.1221594 -0.129112E+04  0.587E-04    7.91       0.0  T
   2  -1291.1221594 -0.929163E-08  0.351E-04    7.91      10.4  T
   3  -1291.1221594 -0.165983E-08  0.501E-05    7.91      72.6  T
     SCC iter.                  ...        0 min,  1.841 sec
     gradient                   ...        0 min, 12.260 sec
 * total energy  : -1283.3488747 Eh     change       -0.3081568E-05 Eh
   gradient norm :     0.0008200 Eh/a0  converged?    E=F G=F D=F
   step length   :     0.0089586 a0

........................................................................
.............................. CYCLE   17 ..............................
........................................................................
   1  -1291.1222492 -0.129112E+04  0.117E-03    7.91       0.0  T
   2  -1291.1222492 -0.195869E-07  0.710E-04    7.91       5.1  T
   3  -1291.1222492 -0.667342E-08  0.752E-05    7.91      48.3  T
     SCC iter.                  ...        0 min,  1.823 sec
     gradient                   ...        0 min, 12.195 sec
 * total energy  : -1283.3488770 Eh     change       -0.2376320E-05 Eh
   gradient norm :     0.0008268 Eh/a0  converged?    E=F G=F D=F
   step length   :     0.0235929 a0

........................................................................
.............................. CYCLE   18 ..............................
........................................................................
   1  -1291.1223229 -0.129112E+04  0.890E-04    7.92       0.0  T
   2  -1291.1223229 -0.149760E-07  0.543E-04    7.92       6.7  T
   3  -1291.1223229 -0.501268E-08  0.675E-05    7.92      53.9  T
     SCC iter.                  ...        0 min,  1.810 sec
     gradient                   ...        0 min, 12.159 sec
 * total energy  : -1283.3488781 Eh     change       -0.1083970E-05 Eh
   gradient norm :     0.0003941 Eh/a0  converged?    E=F G=T D=F
   step length   :     0.0212658 a0

........................................................................
.............................. CYCLE   19 ..............................
........................................................................
   1  -1291.1223192 -0.129112E+04  0.560E-04    7.92       0.0  T
   2  -1291.1223192 -0.105006E-07  0.339E-04    7.92      10.7  T
   3  -1291.1223192 -0.243904E-08  0.579E-05    7.92      62.8  T
     SCC iter.                  ...        0 min,  1.742 sec
     gradient                   ...        0 min, 12.164 sec
 * total energy  : -1283.3488787 Eh     change       -0.5789962E-06 Eh
   gradient norm :     0.0002914 Eh/a0  converged?    E=T G=T D=F
   step length   :     0.0146055 a0

   *** GEOMETRY OPTIMIZATION CONVERGED AFTER 19 CYCLES ***

------------------------------------------------------------------------
 total energy gain   :        -0.0074414 Eh       -4.6695 kcal/mol
 total RMSD          :         0.0697347 a0        0.0369 Å
 total power (kW/mol):        -1.0282782 (step)   -0.0628 (real)
------------------------------------------------------------------------

 L-ANCopt (total)              0 d,  0 h,  5 min, 11.094 sec
 setup                          ...        0 min,  0.031 sec (  0.010%)
 model hessian                  ...        0 min,  7.539 sec (  2.424%)
 ANC generation                 ...        0 min,  2.466 sec (  0.793%)
 coordinate transformation      ...        0 min,  0.001 sec (  0.000%)
 Rational function              ...        0 min,  0.000 sec (  0.000%)
 singlepoint calculation        ...        5 min,  0.918 sec ( 96.729%)
 optimization log               ...        0 min,  0.133 sec (  0.043%)
 hessian update                 ...        0 min,  0.000 sec (  0.000%)

================
 final structure:
================
$coord
       -9.53345731730800      -13.35559196213400       -8.97453838228000      o
      -10.79556198616700      -13.69593055340300       -7.72151580701000      h
      -10.15255619808800      -11.91256303984000       -9.93661625369200      h
        5.06291011503400       -6.96329106847900        8.60504307762600      o
        5.60534623861200       -5.18253194062000        8.70978621039000      h
        4.62932810586000       -7.51819065297700       10.29889677629000      h
        2.02157058128300        0.64447918491400       -6.03384048400000      o
        1.43257813912900        1.94181831774100       -7.19197881707900      h
        3.20034763625300       -0.40795698836300       -6.95032646376400      h
       10.01619156556300       -3.25377293725700       -1.03856821587500      o
       11.06200032367200       -4.70479064160800       -1.42791014697000      h
        8.34559354477900       -3.58475153259600       -1.76299768965900      h
        5.30164235005100       -3.13528565891100       -2.70164381080900      o
        5.38201195644700       -2.33067013971800       -4.33588546265200      h
        4.30551847862900       -2.06943975502700       -1.56328388298500      h
       -0.51221927941500      -10.53053620199000       -2.10939292894000      o
        0.23836483714400       -8.98432893922900       -2.81786244991000      h
       -2.31781477552500      -10.36475156850100       -2.48627186984600      h
        8.33634700894000       -0.49806955480300        2.89047229731700      o
        9.35821377623100       -0.64521680769100        4.41682611531700      h
        9.17669692817100       -1.48025594693900        1.58406894166200      h
        0.69549243877200       -6.10132900268600       -4.03210470325200      o
        0.28931971793300       -4.54324557805100       -3.05399126315400      h
       -0.59576294718300       -6.08086255085900       -5.35095162082400      h
        8.42297583592300       -9.96302482083200        6.29844503125500      o
        7.20370122537000       -8.76368876149400        7.00804549311100      h
        8.70754524485800       -9.37498315611700        4.57201510624200      h
        0.33106823278800        4.48177180761700        5.85954198787800      o
        1.94084717756000        3.63421514144400        5.58609506519600      h
        0.66483916107800        6.27251750254700        5.65801590718400      h
       -4.01189326257100        7.98745428516700        6.46864275139100      o
       -3.36567644743500        7.74926504079200        8.17726604635300      h
       -2.58459242882100        8.73411272377800        5.55598364619800      h
       -2.87267658534700       -0.27869541427400        6.40451577567800      o
       -3.31860232410600       -2.03399285165800        6.10499974261900      h
       -1.10790043699200       -0.34731965258700        6.97593153209200      h
        4.51615967984000       -6.76451329730200       -7.10843275521700      o
        3.16732390106900       -6.61368898845000       -5.83726747838700      h
        6.07288909750200       -7.05970849352100       -6.09159545669100      h
       -4.13385564659400        3.80000656944300        3.64114889460700      o
       -3.42741128955500        2.38471865911200        4.58089581721600      h
       -4.19294890354900        5.22409251901700        4.81492712725400      h
       10.32202881714900        1.29848675451400       -2.88533342381300      o
       10.40958930189100       -0.35764503693900       -2.05199345981000      h
        8.57359877822400        1.84309191120600       -2.72728699831100      h
        1.83939539805600       -3.61378116417900      -10.23802595958100      o
        1.87804396564600       -4.31543150361400      -11.95255992500500      h
        2.62182380323800       -4.82529617051200       -9.11902645098500      h
       -6.43613966121700       -0.36588642282200      -13.63779665116400      o
       -8.04211255525200        0.36356472630700      -14.11463821064400      h
       -5.83620674800000        0.66154973779500      -12.21836448471000      h
      -15.70404097409600       -0.66519907847100        0.83681919155000      o
      -14.96740899712900       -2.31758685719000        0.59968462212500      h
      -16.36374211110300       -0.17438583415300       -0.80874201000200      h
       -6.57340987687200       -4.73784493177200       -2.62608770792600      o
       -7.53976842145500       -6.05671151383200       -1.78674796135400      h
       -7.67978284497700       -3.31891928935100       -2.83701864910100      h
      -12.11797441220400        3.04684128301400        0.12911887389100      o
      -10.50292545261700        2.56570444977200        0.88422811894800      h
      -12.54584056616500        1.64520034855600       -0.96363306201000      h
       -3.63459300915500        7.43868403547800       -7.30404478850800      o
       -4.06803576253400        8.46074881808000       -5.85249077861000      h
       -4.57947676890000        8.16467055009100       -8.68850145450300      h
        6.96465293217600        3.20591234022400       -7.84940358794000      o
        6.49711970540800        2.97822430729500       -6.07628462001600      h
        8.75292524871500        3.68130961315300       -7.82626465279300      h
       -2.88158531453100       -6.50739434551700        0.83747255409300      o
       -3.38572714405800       -8.27293176978200        1.01999174529900      h
       -3.63197913474200       -5.93630569801900       -0.72588985267400      h
       -5.75147022455200       -1.91086966926700       -7.31443576524800      o
       -4.38892140962400       -1.20538970703300       -8.37746211449100      h
       -5.90398917141700       -0.79003787010800       -5.86236482024900      h
       -6.32139759123400       -3.38176156435700        2.82878980098300      o
       -5.03812888388300       -4.65187322051600        2.47553088713600      h
       -6.92527686469400       -3.50753620686600        4.57200320361500      h
      -12.21520106476200       -1.29008048456200       -3.02315535951000      o
      -11.79410225753100       -2.32786239567400       -1.54009327196000      h
      -12.46625500801000       -2.44516972252400       -4.43777286650600      h
        6.76169413572300       -3.26797909059800      -13.24345064582000      o
        6.89251761838700       -2.75892195046300      -11.48229351370800      h
        7.31799661950700       -1.85107938784100      -14.23832471070300      h
        8.88227138312800       -8.91720770994600        1.29742767763700      o
        7.49220231194400       -8.86646046770800        0.06509887821000      h
       10.31631648098400       -8.07162011156700        0.49497433468700      h
       -9.27269106839500       -8.52802905022800       -0.32687706648600      o
      -10.00696700837100       -9.71868810802600       -1.50333551105400      h
       -9.41776714687200       -9.35479882166500        1.29376857539200      h
        9.96040717830500        8.09889604553300        5.57521761328100      o
       11.56899641908300        8.35937972788200        6.43376641562400      h
        9.14002340803500        9.74272919248300        5.48260996589300      h
      -25.26952873409600        0.04019996966600       -1.44532572431400      o
      -24.44205692304300       -0.90455473502400       -2.77982691508700      h
      -25.14248732967100        1.77814261425400       -1.97910204550400      h
       -8.29898753756000       -3.18792199933200        7.38575252099800      o
       -8.60391915083400       -4.60882581065600        8.51410084231500      h
       -7.67771051084100       -1.80062863869100        8.37330311642600      h
        5.45664618600600        2.71040972660100       -3.05772140246500      o
        4.92043189988900        3.80101188153900       -1.67456998246700      h
        3.94590497747400        1.91012948421100       -3.76788900641700      h
       10.82089141264300       -1.31306944330900        7.28868211646100      o
        9.25296410507100       -1.54947451407900        8.23195904884500      h
       11.91546818791900       -0.26275260864400        8.31824110299100      h
       11.14834439446600       -5.33973081212900        4.27184656574200      o
       12.73997986213500       -6.20712108434100        4.45723581848500      h
       10.97753268120400       -4.23547460845200        5.72275889803000      h
      -10.07040959828800      -12.21733381362600        3.58313870384400      o
      -11.60731014291900      -12.84318146380700        2.83043696530000      h
       -8.85533736918300      -13.59375106519100        3.56285082960700      h
        0.39127581105800        9.57483821867200        4.57752193149800      o
        1.47442872753100       10.72072338123500        5.52423698119600      h
        0.67345913805900        9.90724758240700        2.79755171093300      h
        1.01196092250800       -4.54188879960600        3.52735818069700      o
        2.69331053700200       -5.28516025008300        3.34931734160300      h
       -0.17782483397000       -5.42060454071700        2.43801113260200      h
       -7.58328963153100        1.24224379577500        1.23199038069000      o
       -7.14114983984800       -0.43987697222700        1.82248651860100      h
       -6.41980818752500        2.36917249807700        2.11497593245000      h
        8.76922043815700       -7.01672338433400       -4.74785286465300      o
        9.67991981628200       -6.81134476054400       -6.31845709980100      h
        9.05504599555200       -8.73332785350600       -4.13274343137900      h
        0.87076617219000       -9.56983871018900      -12.90204822652400      o
        0.80673051823900      -10.11968216415800      -14.62111514164500      h
        2.63805863351000       -9.03631609453500      -12.60689223172600      h
        4.55016485270000        7.31306880552700       -8.87987752629400      o
        4.18519637087200        8.09129863989200       -7.24678839771000      h
        5.42742540958800        5.68464187463400       -8.53025214500000      h
       -3.29945201953700        2.43466437201000       -5.43037508527900      o
       -1.69657716055300        3.27002839804600       -5.16211760875700      h
       -4.44246880015200        3.26569607016000       -4.26703992854900      h
      -12.73308316895600       -3.29821974228400      -13.06140066128300      o
      -12.64569819572400       -1.53329263052600      -13.48891216225000      h
      -11.07011214805400       -3.73072951396300      -12.38642363694900      h
       17.08608366145600       -1.43417525764400       -7.51457295179300      o
       16.05201616222100       -2.77955084426700       -6.77677062446000      h
       18.74812694389000       -1.63145203915200       -6.74722660040200      h
       14.76276802578400        3.59557209412200       -2.59423570676500      o
       14.64303908807400        5.39818768497300       -2.92493301375000      h
       13.02476516489000        3.01016881999000       -2.40400377314000      h
        5.85258343244000       -5.11146690298100        3.30691172084800      o
        6.50834810947800       -3.40379842077900        3.29732142401600      h
        7.26400119442000       -6.18241569034900        2.86085935419800      h
      -17.20527424421100        0.44834315612900       -3.91990560554300      o
      -17.04973882853500       -1.29876105371600       -4.51076494122200      h
      -18.46142349654300        1.29173996649100       -4.96757828142500      h
       -8.55210522028100       13.47372376035200       -0.43180932604700      o
       -9.14064990472200       14.01661992713000        1.20975623253300      h
      -10.06939610368000       12.93378571312800       -1.37452618844600      h
       -5.61014513076400        3.02287076130200       -9.86107620270800      o
       -4.53638205447500        2.79102203257900       -8.35839520220500      h
       -7.04230740130400        3.97479482565100       -9.18867210110300      h
       10.14351926554800       -5.64607778837700       -9.66701220778100      o
       11.44566607321700       -4.53735266364200      -10.35539488733900      h
       10.20098065551800       -7.15542986522100      -10.66154810072500      h
        0.16325942804100        4.39479098535000       -9.27367281126200      o
       -1.27627627630900        5.39435109059700       -8.73327691159700      h
        1.58504066614700        5.54914676567900       -9.30745410299800      h
       14.10527382639200        8.56821651179800        8.54880167791000      o
       15.44023038102600        7.42918901768400        7.99338829280000      h
       13.30395228699000        7.75793944981700        9.97851832352000      h
        8.96042717085000        3.50432397114000        7.13654347618800      o
        8.85605192880000        3.23252262956300        8.92364862088000      h
        8.99687948042200        5.33126511898900        6.84341801724400      h
        2.96777724878000        6.93328469481100       13.14396809454700      o
        1.42165090559600        7.57513440165600       12.41207755299200      h
        4.33294991474100        7.95953059831000       12.52469529000500      h
       13.78310194092600       -4.82563543830300       -5.70868655145900      o
       13.51175067046500       -6.55847539971800       -6.25569015871900      h
       12.43449876663300       -3.79707674683500       -6.42878087996400      h
       -8.88334416921100        3.72671849013300        6.58208397654900      o
       -9.96874471193300        2.42216399793900        5.81592221649900      h
       -7.67482731041800        2.81119685018200        7.62266716336200      h
       -6.08279916695600        1.02154012759400        9.87512497419100      o
       -5.44479636256500        2.19783511880300       11.15959730866000      h
       -4.64690401738000        0.65486532036500        8.71747132992800      h
      -16.58655270504300       -4.52414627888600       -4.71033271800100      o
      -15.97479610537300       -4.92693948375600       -3.01158257707400      h
      -18.19194823772300       -5.35260600483900       -4.86644184691500      h
      -20.26320014847200        2.36961548120900        0.11752516274000      o
      -21.30916886810300        2.80480106363600       -1.35322529411000      h
      -21.05023874060700        3.32904931723600        1.46653061792600      h
       13.18511303735900       -9.03713073120300        8.03072376069200      o
       11.46899209236600       -9.40458600620900        7.46690332101600      h
       14.29610055390500       -9.98931212369200        6.94369018634700      h
      -10.29351426287700        0.27935452290600       -8.55068278954400      o
      -11.05112398575100       -1.37448923674500       -8.19859480980000      h
       -8.49431519638600        0.02490132512500       -8.29113083789700      h
      -11.32307396504500        1.91626562978200      -13.08525985470400      o
      -10.65751665689500        3.61416058637900      -13.28805182501600      h
      -10.81547870707800        1.39403668271800      -11.36152518685300      h
        0.50939763303500       -4.19517849463100       12.29930798311300      o
       -1.10280656655600       -5.08388705440600       12.14657156299600      h
        0.04403004618900       -2.57739527866300       13.12990856145300      h
      -11.79920040857400        0.21099077689000        4.61337790459900      o
      -13.22356382301800        1.03433984313700        3.82203622355200      h
      -12.42891379591800       -1.03628683931000        5.84212832671600      h
      -16.23755504667800        3.20802862088200        4.07875336725500      o
      -16.82741861224300        2.18203347721300        2.69002097992600      h
      -17.73024104928500        3.87228351120000        4.96689137057800      h
        9.03937797157000        6.78672254605200       -2.83911013957800      o
        9.71248433029800        8.32674214251000       -2.08006275912200      h
        9.05043125946100        5.59566138783100       -1.41243491868900      h
       -4.46693731491800      -11.17655690023400        1.61511643244100      o
       -5.41605661494200      -12.04407860156300        0.29419216105400      h
       -3.23134972145300      -12.38780948580400        2.24537288922800      h
      -13.49986219740400        3.27754013730700       -5.87275833923800      o
      -12.13146027382200        2.23068049088100       -6.51403394488300      h
      -14.63234313753400        2.17286048724000       -4.91015348429700      h
       -1.64214773817000       -1.16369003044500      -15.69021091741500      o
       -0.83854611893200        0.46759831459900      -15.54016677870900      h
       -3.36634936864100       -0.90146616636600      -15.11922224190100      h
       -2.74914133781900       -5.89377586784400      -12.34086268106100      o
       -1.36075076298600       -7.01477616309500      -12.79445755378800      h
       -2.48896314762300       -4.31483427859300      -13.20907881907100      h
       -2.03005072024400       -0.43642905271500      -10.26140295314300      o
       -1.28192335910300        1.20709331463000      -10.02331690405600      h
       -0.68213147991300       -1.66885435704500      -10.08994245179800      h
        3.82923870991700        5.74756492011800        0.74418175168800      o
        4.21215006706800        4.57394395499900        2.14239345205400      h
        2.02988240103100        6.11463061375700        0.84809464715100      h
        1.59894589914900       -1.78573881481600        7.81472227472500      o
        1.53648072141300       -2.90648815729500        6.36127634585100      h
        1.21590491605800       -2.79138276293300        9.30649073601500      h
       -7.97655771206000        1.04420885583800       -3.77748336521500      o
       -9.66004450984900        0.26332001775700       -3.68464375169900      h
       -7.52115331902200        1.37363314761500       -2.02095971017300      h
       -3.04386208621300       -6.07589411892000       -7.29653725350900      o
       -2.77336113120200       -5.91376510982400       -9.12097446420900      h
       -4.16773420970500       -4.65457027707500       -6.89180933209400      h
       -5.06271263413700       10.08081202412200        1.28282883622000      o
       -6.14994861211500       11.06781629467600        0.18070035662500      h
       -4.52177513315700       11.23010943497500        2.61754933592600      h
       -0.99763565199300        3.21119243691600       10.40135382612600      o
       -1.36973912144300        4.82226806873700       11.15800222481200      h
       -0.64002976677400        3.58950704590000        8.59804959797400      h
       -6.63826482283100       -8.64291417095300        5.39833400739900      o
       -6.11047766187100       -9.46616351976300        3.83154887834700      h
       -8.39410129018000       -8.09133871323200        5.18133955189200      h
      -23.19184039729900        4.44706967567000       -3.42609056727000      o
      -22.77143677942600        6.25901505537100       -3.43877722296700      h
      -22.51262558636800        3.82033448035900       -5.00471450965200      h
       -8.93502185978300        6.51360316295500      -13.22335912166700      o
       -7.38640048988500        6.05063335563600      -14.07133654420400      h
       -8.39496802186900        7.84328199703800      -12.07881679741900      h
      -23.95829412907900       -7.67449120924100        1.21816904169300      o
      -24.87096573726500       -6.16773668978100        1.67523426554600      h
      -22.54149361236700       -7.71724074254400        2.39372369270000      h
      -11.44501080828800       -7.08001830350800        4.63662075048300      o
      -12.94054793303100       -8.16096427858600        4.55855267779300      h
      -11.45589269255400       -6.05910881771500        3.09022751147700      h
        6.80626477468100       12.96472084193500       -3.66647056848200      o
        5.87302919120100       11.37956671683100       -3.65236271868500      h
        8.47120017704500       12.55123280524200       -4.37203748437700      h
        6.05703801973700        9.74088977047100        2.49620995713200      o
        4.89848994739500       11.08942452440200        2.15452920029100      h
        5.35621475344600        8.21572660057200        1.67035426144400      h
        3.75877276189100        1.07498400554900      -11.30597006587200      o
        3.29347722500400       -0.65855990996300      -10.88015951630300      h
        5.02696808211300        1.61643769877800      -10.08973077490100      h
        0.82297106549900        3.54022933676300      -14.70280908839500      o
        1.38814987306900        2.78893217407000      -13.11894539648200      h
        1.75387940668500        5.12946817499300      -14.78081218380400      h
       19.93559260218400       -6.83372527553400       -7.43529756210600      o
       20.80365421125600       -5.24566121000700       -7.57384639109400      h
       19.17591882179500       -6.83233174154200       -5.75557809267900      h
       22.32966029247000        2.48342793395900       -2.73498078942400      o
       21.61188244370100        3.54114401590100       -4.06546179516500      h
       23.20196587604700        3.65642682321600       -1.58018107732000      h
       -1.27084173382700       12.94993657550600        9.07377718649500      o
        0.47710466262300       13.29127779375900        8.65584211914200      h
       -2.17005102449000       13.06043974584200        7.46090344433900      h
       13.70631302032900       -1.31664354643700        2.37582854335000      o
       14.37115094855000       -1.44279366879800        0.65276778371000      h
       12.67657354399500       -2.82222340733200        2.66787198773400      h
       15.96911661018800       -6.50021916134500        3.03905822105800      o
       16.56521526189500       -8.12248500341800        3.62490364759800      h
       17.38165395089000       -5.43414017903900        2.51125264717500      h
        9.28577249899200        4.39854549834600        1.45691951577800      o
        9.22084121112800        5.53446978787400        2.87490166697600      h
        8.85585238904600        2.70359751437500        2.03075234260800      h
      -11.89455143008200       -4.14099539179000       -7.07134235454500      o
      -10.72190438455300       -5.55143787773500       -6.83344533512300      h
      -13.44507461753000       -4.82956437924000       -7.78276982650400      h
      -15.76212107035700       -5.82982336977200        0.19562585588100      o
      -15.95554736176700       -7.59073305663200       -0.28452909125400      h
      -17.42985821083800       -5.24748095298000        0.67745120585900      h
      -10.94048853233000       -3.44544252298400        1.20802665103200      o
       -9.12027442146700       -3.72961005127100        1.39007846973600      h
      -11.26892046551700       -2.05126769884300        2.38709473834900      h
        4.78203247679200       13.46971237388400       -8.38320540417800      o
        5.46583764162500       13.69050375445100       -6.68532028058000      h
        6.13903115413500       12.85124305133600       -9.41211654729800      h
       -5.11668062890700        3.80755314977100       13.94602510168300      o
       -6.07573116199300        2.95872717225200       15.22510535789100      h
       -5.68207883630500        5.54866295823100       13.90339462659400      h
       13.52351808995000        3.16190217735400        4.69810576081800      o
       11.95546060293700        3.08022900700600        5.66105826769700      h
       13.60909008977400        1.59705988877900        3.72292620264900      h
        4.70021076718200        2.54139052422600        4.40906430295200      o
        6.18178839619800        2.68907520969400        5.49283096272900      h
        4.85854663728400        0.99660741355400        3.44277537530600      h
       18.43514675385000        1.97797174164300        0.53818665979700      o
       19.81509916355800        1.87314926873500       -0.67881434474300      h
       16.93856144725500        2.43929797323500       -0.44397080044600      h
       20.20779868658800        5.43857190197500       -6.37264541960900      o
       18.57009964506000        4.73799928950100       -6.98662965770700      h
       21.22491088468200        5.69502768108400       -7.84428652319600      h
       10.99945702523200       -0.83830987276400       -7.27972566130300      o
       10.88150924474700        0.22238001402400       -5.75578561028900      h
       11.40723142676200        0.23613828757500       -8.71279619120400      h
      -20.24761327385800       -3.04618836890300        0.16400281334800      o
      -21.71528762498200       -3.11921808261400        1.29555340189800      h
      -20.15980665193400       -1.29374574051000       -0.35663720300500      h
      -22.54657927156600        6.33452211589700        2.58460302470300      o
      -21.29823825763000        7.59644734809700        2.04789503048600      h
      -24.01043380964600        6.59140316479200        1.55165398962900      h
      -12.81652855302200       11.94630467756700       -2.57771979166300      o
      -13.79690043294800       12.15049724453400       -1.02828090685500      h
      -12.58586265951800       10.11569731435500       -2.73853555026200      h
       -5.74163351312600        5.40636639015800       -1.93064565850800      o
       -6.86623675854900        5.46391343271300       -0.49243557555700      h
       -5.25683731251000        7.12711524546600       -2.24118207876100      h
       12.41347558661200        1.75559094054800      -11.50847142505700      o
       12.98473110522500        0.17410091507000      -12.22445868082100      h
       13.88594290748600        2.56435158305900      -10.75844699562500      h
      -14.57327066284000       11.98154921623000        2.20506469968100      o
      -14.14571527846800       10.26545301077400        2.78430111811700      h
      -13.32881092698500       13.05858897678300        3.00218054589100      h
        0.61287283981200       10.56191221992400       -7.50303956900900      o
       -0.26808905053900       10.32160455723300       -9.10363722961200      h
        1.99215144732400       11.72507977723800       -7.84599142015300      h
       14.29501981774500       -3.15651514787300      -11.60120921220200      o
       15.39953509189000       -2.37431603259000      -10.36232799969500      h
       14.95555878988500       -4.88764706839400      -11.71146963514600      h
      -15.82652425748600        2.09501358599600      -10.29642039871500      o
      -14.50842941172500        2.03730992522200      -11.56863745619000      h
      -15.00612419985700        2.73606662255300       -8.75782423719400      h
       -1.04763444143500       -0.00069509241600       14.30843608623700      o
       -1.16693191351400        1.18992446897700       12.89886934389400      h
       -2.77699528887500       -0.56605963585800       14.63650783690100      h
       -9.15592496869600       -8.23535936238100       -6.51038513200700      o
       -8.09127526889600       -8.44345255973400       -5.02649834726500      h
       -8.08382067532500       -8.70090303918200       -7.94535828863800      h
       -5.01257643497400       -9.53371243239000       -3.92034751701200      o
       -4.38857879456100       -8.23067527712700       -5.05160259078400      h
       -5.09054518782600      -11.10242291949600       -4.90266798709400      h
      -16.46326341555200        5.48680978789600       -1.11223373922000      o
      -14.90024156480200        4.72200974811400       -0.53659430150100      h
      -17.77832515875700        4.20381726682700       -0.88297583554500      h
      -11.55593268765900      -12.57771083851900       -2.67135886451400      o
      -12.60700854662600      -11.97714418850900       -4.03164470313800      h
      -12.68825964498200      -12.87796805516500       -1.25023729817900      h
       20.83142190425900       -5.03616107540200        6.49611796489500      o
       19.17199428845400       -4.22873640299700        6.23701189333000      h
       22.02163120104600       -3.72166140907100        6.02686580712100      h
       -3.69077848696700        5.67633585105300      -13.60344683840000      o
       -4.27791166234200        4.70189821516500      -12.12708892630800      h
       -2.18740880078600        4.79230563100900      -14.19853613418700      h
       11.42225981403700        5.29517847875800       -6.98514197700000      o
       10.77487829635800        5.80882626910300       -5.31855942052400      h
       11.09727804252200        6.71049734752400       -8.10347580204000      h
      -24.37384472492300       -2.46792873847200        2.96533179260200      o
      -23.91156472691200       -1.40658919092600        4.37837489785600      h
      -25.00224113277300       -1.38288593674600        1.61442917747400      h
        4.69616079761300        7.35020172276500        7.18791566704900      o
        5.23774203241500        8.07122338836000        5.59822087082900      h
        5.62895241624700        8.24227334579700        8.48444225607900      h
        3.25884238884300        2.42142229165300       15.82347920638200      o
        3.10707746436400        4.05395571854300       14.99031340745800      h
        1.57838056155300        1.69787089717300       15.75676778552400      h
       -5.60253508493500       -2.19895494186600       14.07322892843100      o
       -6.14067877047500       -1.28027775626600       12.58300078975400      h
       -5.22642976287400       -3.89696969064800       13.52483465823900      h
        2.74200261685500       -8.85292500645200       12.83224328781600      o
        1.31515168773500       -9.92929925314600       12.44844757879400      h
        2.02729692428600       -7.17489508317100       13.03602941025800      h
        0.36151486819400        5.80295059296400       -4.04533470429200      o
       -0.42043181277300        6.08695104396600       -2.38108147561000      h
       -0.46478816228800        6.95578663584300       -5.19258808815800      h
        7.73958332752200        2.54315884681100       13.12626551224100      o
        6.35302342904900        2.59901687083100       11.84203999979100      h
        6.86139456672800        2.65612391639800       14.71326410983700      h
        1.05521813238900      -15.23097449841300       -1.56588014439600      o
        0.51240840847900      -13.49428403159300       -1.98306713841000      h
        1.08527055792200      -16.11994542471500       -3.13848914086000      h
       -2.16638423068300       10.82264432413400       -3.38161945828900      o
       -1.14354220039600       10.90934525909100       -4.93109949887100      h
       -3.11988133976100       12.37909195361100       -3.27990717647200      h
       -4.00607287981300       13.63944326708200        4.76657087305700      o
       -5.65355312717000       14.20221744789300        5.26754135429000      h
       -3.29589422417700       14.99251324405000        3.67077786468000      h
       24.17586620294300        5.64273878227500        0.68902465801300      o
       23.46190895258800        7.30713223466900        0.60087461959300      h
       23.53564009572100        4.90248241336000        2.25002934423100      h
       19.33455845098100       -3.19472912630400        1.11839245737800      o
       18.45650821711400       -1.62338886330800        0.75784179085900      h
       20.77936806940600       -2.68703601587100        2.14959874844200      h
      -10.46436993513300        7.24449144186600        9.74174166762200      o
      -12.28313031724000        7.32531650301800        9.79933819435100      h
      -10.01948572431100        5.85378237076900        8.57985808536100      h
       -0.63999149491000      -10.98177703441000       -8.08657371331500      o
       -1.59977629386400       -9.46161291549100       -7.77420352529900      h
       -0.09483588372600      -10.83345160069800       -9.82674401560600      h
       -8.10207195184500       10.79969189095500        7.12095971130700      o
       -6.59436687472200        9.81290377859400        6.64882941133900      h
       -9.18115548634900        9.59601787726100        8.03446169191000      h
        1.93510846346600       -9.87397497258300        2.12046848385000      o
        3.28023541752300      -11.09484250173600        1.77567292744200      h
        0.66726159963900      -10.16839679581100        0.80295309609500      h
      -21.44503419534700        9.19005601657900       -3.61113548171000      o
      -20.69128119450900        9.59392617419000       -1.98489456444100      h
      -20.02475607058400        8.95383041591800       -4.73966938942200      h
      -14.99375862107200        2.10022041593400        8.97468836586100      o
      -15.26319556210700        3.87445139271500        9.36836892292000      h
      -15.20020176868500        2.02348301795900        7.15102978480200      h
       16.34621952764900       11.99103339323400        3.86511768400600      o
       17.92343280831800       11.44383970732200        4.65513752556200      h
       15.43404398991000       10.43277575816500        3.49088487419100      h
      -18.75203512259800       -1.93082095099900       -9.29937090494000      o
      -17.52398506787700       -0.55907536880900       -9.58232658939300      h
      -19.87829532659800       -1.89102001057300      -10.71345764725400      h
       12.22564554115600       14.81031722867300       -1.62204188838300      o
       14.05241323200500       14.65392882396300       -1.33616734740300      h
       11.99146220398800       14.48556302759500       -3.39789951008100      h
       11.14738156586700       11.73464763810900       -5.94822403952100      o
       10.67822719593100       10.97502133481700       -7.54141072067200      h
       12.32361828832200       10.55816036293800       -5.13444956818400      h
       14.40004206813400      -12.00102935281100       -2.51381099917300      o
       13.19871886445000      -12.83018878400000       -1.40022485716800      h
       16.06100643175800      -12.19501522873500       -1.79205716020400      h
       -1.29017949032800      -14.90897568765500        3.11854120791200      o
       -0.40698961535100      -15.30853720320500        1.56145359609700      h
       -0.02803367627700      -14.77633769240200        4.44051297612400      h
       -5.70737236309100      -12.89017924201800        8.04397185510200      o
       -5.97217002597600      -11.31054751993700        7.09900985087700      h
       -5.78629371205400      -14.22350971090500        6.81075545933300      h
      -18.01680480544500       -2.34802728257800        4.96850131541900      o
      -16.55051292321200       -2.78730155165800        6.01205026270400      h
      -17.35937551984000       -1.68328842815400        3.37403833641700      h
       13.11794489676300       -7.30835436825100       -0.98868931896300      o
       13.47666374590600       -8.99781842723200       -1.64195179645500      h
       14.14748515119500       -7.04806069142100        0.53732930700800      h
       19.22658173898100       -3.85479674977000       11.53020826291700      o
       20.08471157736400       -4.62674606047900       10.11067314665000      h
       17.45498086028900       -4.29109363429600       11.31224298602700      h
       14.21738387983600       -4.52976137787900       10.06281352471600      o
       13.81305360003600       -6.22609354774600        9.44507218148400      h
       12.77275711356200       -3.90986904633800       10.98702670368000      h
      -19.93744078742200       -6.96305199811500        4.46393492135300      o
      -19.37258408968700       -5.19765531270200        4.34374270523300      h
      -20.39066550157500       -7.10258414430000        6.25080320401500      h
       -6.17218871574300       13.33390792170500       11.16872403304000      o
       -6.89879374880900       12.62662521250400        9.62467233815000      h
       -4.40050489036500       13.59152519875900       10.81804682574600      h
       -8.96569239388700       -6.99200589004900       10.67900390731100      o
       -7.23016816179900       -7.18778099591800       11.24912324274900      h
       -9.49829819973700       -8.57452945389200        9.88303165710500      h
       -6.40209633516800      -16.00086757375000        3.33764490258000      o
       -4.57305527660100      -15.98426863372800        3.47152266879300      h
       -6.70674199435600      -15.98134780716000        1.53076040172200      h
      -17.16374825668100      -10.00100510819400       -2.40009924840700      o
      -16.19828735686800       -9.92229726084600       -3.96194521699600      h
      -18.76642908994200       -9.13956961529300       -2.71279013047500      h
        5.57835384007200       -8.23708829154900      -11.80892539070900      o
        5.22417882223400       -7.78108445495200      -10.04842918420200      h
        6.16090690291600       -6.69300337282100      -12.59872247080300      h
        7.65566536627100        9.44725487769400       10.83646568089500      o
        9.06283588470900        8.32097502942600       11.17289566902400      h
        8.35040598040800       11.01023611842300       10.23705464290000      h
        8.38426618388700       13.02078010759600        5.76163137868000      o
       10.06050601890900       13.49540029649000        6.41699339461400      h
        8.23553602681300       13.78818184628700        4.10495206332200      h
      -15.76121069620400       -9.62457462476800        5.04854537022200      o
      -15.70145573375500       -9.63207810857200        6.87988737441200      h
      -17.30809162888100       -8.67358067124800        4.61600534233100      h
       11.35700749045800        5.74568845456400       11.83596609310100      o
        9.96932611503400        4.88831215819800       12.69838704879300      h
       12.42398889287100        4.32527465163600       11.31513103114100      h
        3.97591133451200      -11.86726080954400       -5.35520786040600      o
        4.22038259164800      -10.60618682915400       -4.03783145991600      h
        2.37612651760600      -11.50297842541500       -6.16468595022400      h
      -13.37821482559500        7.41326984950200        3.86085111291400      o
      -14.26488773251500        5.83693486621100        3.51155741877500      h
      -11.63547595941700        7.15808926464500        3.27877470717500      h
      -15.02070102351000       -8.86957755157500       10.20523271068000      o
      -14.42973668067300       -7.34434953138400       11.01038629173100      h
      -13.56533565784700       -9.96874706653100       10.06690057789000      h
       -1.67515404138900      -10.93864477906700       10.59965721599600      o
       -3.00527230289500      -12.02993962968100        9.95372595583600      h
       -0.83112326557600      -10.26976707219100        9.09922519970000      h
        7.07388758749800      -14.64626557611300        4.68337444961300      o
        7.68743626644100      -13.05011591805700        5.38977968422200      h
        5.41967335916900      -14.86769727973600        5.44231211541500      h
       12.84408805265000       -9.81121962156900       -7.08062415437100      o
       13.41793920283000      -10.77958975202400       -5.63726094560500      h
       11.22421513010600      -10.53348220329800       -7.57274807859300      h
       16.69832709950500       -2.21682874449300        6.23413930201800      o
       15.69284565421400       -1.83953849415200        4.71433875144200      h
       15.55981251764300       -3.01173280990900        7.44741193659800      h
      -12.85805979569100       -4.12167657525600       12.22661112233000      o
      -12.20241087551600       -2.40319304763800       12.47224244310900      h
      -11.35409098153600       -5.17112062562900       12.08004221024200      h
       -6.67849445363500       10.26845478205200      -10.40942011170300      o
       -5.34995422516800       11.15620925018600      -11.27344373131200      h
       -7.78730114763400       11.46265894305400       -9.58932507984200      h
       18.04639464250600       -6.50323600545500       -2.64144442487900      o
       18.58534442882100       -5.14208550684900       -1.51913268741000      h
       16.22979850343500       -6.33348672144400       -2.79994883321300      h
        3.26140151392700       13.33266211684900        6.55949366286100      o
        5.08526984171600       13.13163101868700        6.60403033512800      h
        2.91776477148700       14.40092498929400        5.09357244961700      h
       -8.67996873051600        5.21266176120300       -6.72685088452200      o
       -7.72392976277900        6.60783069325400       -6.02013162224700      h
       -8.45548772333900        3.80362716984500       -5.53989346632200      h
        9.13673674696500      -11.88817216370900       -3.10358832615000      o
        8.88785324751100      -12.84759656490200       -4.61657600404100      h
        7.72291301670800      -12.28094715124400       -1.99055409070300      h
      -11.53749666605100        7.07848612769200       -2.80109976910200      o
      -12.18867207653600        5.93903051219500       -4.09661859487300      h
      -11.34354077062900        6.00858446751900       -1.31831857400700      h
      -10.61920997965800      -11.38484648697900        8.69547196869300      o
      -10.72488866528400      -11.40822209688300        6.85005282369800      h
       -9.14604925162500      -12.40131362088400        9.07979319689600      h
      -17.84766768927300       -1.85912492271500       10.90222103270300      o
      -16.62200159697000       -2.60548604998600       12.01566213540600      h
      -16.99303239957800       -0.40606410978400       10.16374992398600      h
      -10.35605720151300       14.28039115928800        4.42427157055100      o
       -9.61939479069800       12.83370468886000        5.35321840133500      h
      -10.74276853355300       15.54578447248500        5.65580033541100      h
       -6.67540924528800        8.64329097493700       13.03856114489900      o
       -8.09724019660300        8.08436963202100       12.01426826712100      h
       -6.62792075702600       10.48110849604500       12.81903658123900      h
      -16.96888895792700        7.48497193038900       -5.82365976270400      o
      -16.46584772161200        6.80580120525200       -4.18040847805900      h
      -15.46032643220500        7.54281686594000       -6.86058319116000      h
      -11.07725060955900        0.59258725384400       11.91889061748400      o
       -9.49673934666100        0.93995179989400       11.08857077928900      h
      -12.41088422318100        1.22369624140700       10.81847307875600      h
       -2.29878708204500       17.04688454772200        1.66248781589700      o
       -0.47649979857400       16.83133740100600        1.68740772477600      h
       -2.88318910869300       16.54946852478100       -0.00512496134100      h
       19.24122031415300        9.28243060784600       -3.03048585610000      o
       19.34795004834500        8.37114220441000       -1.41170531080600      h
       19.76544139689600        8.07780411539200       -4.31257291120200      h
      -15.64956274727300       -6.04128833994100       -9.98643150614600      o
      -16.97085004881000       -4.88886677386700       -9.43672519488100      h
      -14.76796617772300       -5.10913996361100      -11.32245687031200      h
      -18.89601496368200        9.37852835361800        0.88229646999600      o
      -17.77267102634000       10.67603816592600        1.49702084061600      h
      -17.79922050165200        8.02661296292300        0.21805540207800      h
      -21.19285029840500       -6.81118096968100       -2.94612670638900      o
      -22.49686596926000       -7.59706126090900       -1.90667034520700      h
      -20.71997106602800       -5.35595982903700       -1.86740484256600      h
      -19.86522945902900       -6.54430473372900        9.48720370599400      o
      -18.48375214970500       -7.62300263469400        9.98347363981600      h
      -19.32346295152600       -4.83309238628300        9.87161305759800      h
      -20.10136858847600        4.80697145206100        6.82027089410500      o
      -21.26402863513100        5.58628887000900        5.64421536027500      h
      -20.81768091300800        3.13067624164300        7.17750382792300      h
      -14.00420866875500       -9.87994257916500       -6.58175336937200      o
      -12.25411043683200       -9.27365560738600       -6.60132788264600      h
      -14.89010780338500       -8.80528484217200       -7.76479093716200      h
      -19.79184544041100        3.51690834107300       -7.15735818050800      o
      -18.85662352668000        5.05646513268500       -6.68362661974600      h
      -19.12603408241700        3.06500422807300       -8.78622129851200      h
        6.34937571089100       -2.18192155554800        9.36898776905100      o
        6.13134139891000       -2.07949116804500       11.20157446750500      h
        4.92987982325600       -1.25486137027100        8.64402073758800      h
       10.49691066978200       -1.83819077694300       13.13736739367800      o
        9.52342908669200       -2.97348418599800       14.15932066279600      h
        9.48280677423700       -0.29080846501200       13.08000706152800      h
        6.04043889111900        1.48465365764200      -15.70180884908000      o
        5.11382835895100        1.34822576767600      -14.07976035818300      h
        4.79126679366400        1.92522845804100      -16.93499523241000      h
        6.23821190105600       -2.04091335179400       -7.88074975273900      o
        6.03715938757500       -3.85501457602300       -7.70594511884400      h
        8.04781657492200       -1.68222168806000       -7.65658016578400      h
       -8.06874253364600       -4.55074122194900      -11.23788666410200      o
       -7.56407404524500       -4.02261615285600       -9.55828217580600      h
       -7.22106630848000       -3.35221350138900      -12.35708897298400      h
       17.53814039439300        4.97048102936200        7.01705349149000      o
       16.13799927041500        4.19224362626600        6.05282671122300      h
       17.94033709800800        3.75647598179100        8.32884986630000      h
[...]
   385   8 o      386   1 h                                       0.9835598
   385   8 o      387   1 h                                       0.9674008
   388   8 o      389   1 h                                       0.9586550
   388   8 o      390   1 h                                       0.9950664
   391   8 o      392   1 h                                       0.9595066
   391   8 o      393   1 h                                       0.9749801
   394   8 o      395   1 h                                       0.9714517
   394   8 o      396   1 h                                       0.9769899
   397   8 o      398   1 h                                       0.9638785
   397   8 o      399   1 h                                       0.9874463
   400   8 o      401   1 h                                       0.9656087
   400   8 o      402   1 h                                       0.9681757
   403   8 o      404   1 h                                       0.9857242
   403   8 o      405   1 h                                       0.9825809
   406   8 o      407   1 h                                       0.9784440
   406   8 o      408   1 h                                       0.9800452
   409   8 o      410   1 h                                       0.9722924
   409   8 o      411   1 h                                       0.9680591
   412   8 o      413   1 h                                       0.9722293
   412   8 o      414   1 h                                       0.9720510
   415   8 o      416   1 h                                       0.9773539
   415   8 o      417   1 h                                       0.9757950
   418   8 o      419   1 h                                       0.9857277
   418   8 o      420   1 h                                       0.9568730
   421   8 o      422   1 h                                       0.9819428
   421   8 o      423   1 h                                       0.9633319
   424   8 o      425   1 h                                       0.9664379
   424   8 o      426   1 h                                       0.9800334
   427   8 o      428   1 h                                       0.9715494
   427   8 o      429   1 h                                       0.9638237
   430   8 o      431   1 h                                       0.9706034
   430   8 o      432   1 h                                       0.9697401
   433   8 o      434   1 h                                       0.9840858
   433   8 o      435   1 h                                       0.9620002
   436   8 o      437   1 h                                       0.9803311
   436   8 o      438   1 h                                       0.9781056
   439   8 o      440   1 h                                       0.9771484
   439   8 o      441   1 h                                       0.9838199
   442   8 o      443   1 h                                       0.9681735
   442   8 o      444   1 h                                       0.9723671
   445   8 o      446   1 h                                       0.9789965
   445   8 o      447   1 h                                       0.9649882
   448   8 o      449   1 h                                       0.9829223
   448   8 o      450   1 h                                       0.9783027
   451   8 o      452   1 h                                       0.9775179
   451   8 o      453   1 h                                       0.9653975
   454   8 o      455   1 h                                       0.9722195
   454   8 o      456   1 h                                       0.9788523
   457   8 o      458   1 h                                       0.9705160
   457   8 o      459   1 h                                       0.9697123
   460   8 o      461   1 h                                       0.9725455
   460   8 o      462   1 h                                       0.9769639
   463   8 o      464   1 h                                       0.9804394
   463   8 o      465   1 h                                       0.9681696
   466   8 o      467   1 h                                       0.9702607
   466   8 o      468   1 h                                       0.9590918
   469   8 o      470   1 h                                       0.9849727
   469   8 o      471   1 h                                       0.9693644
   472   8 o      473   1 h                                       0.9696284
   472   8 o      474   1 h                                       0.9877801
   475   8 o      476   1 h                                       0.9764035
   475   8 o      477   1 h                                       0.9796633
   478   8 o      479   1 h                                       0.9736796
   478   8 o      480   1 h                                       0.9681584
   481   8 o      482   1 h                                       0.9747535
   481   8 o      483   1 h                                       0.9816301
   484   8 o      485   1 h                                       0.9647631
   484   8 o      486   1 h                                       0.9678879
   487   8 o      488   1 h                                       0.9725014
   487   8 o      489   1 h                                       0.9773435
   490   8 o      491   1 h                                       0.9790700
   490   8 o      492   1 h                                       0.9702062
   493   8 o      494   1 h                                       0.9686030
   493   8 o      495   1 h                                       0.9740079
   496   8 o      497   1 h                                       0.9847724
   496   8 o      498   1 h                                       0.9757716
   499   8 o      500   1 h                                       0.9819619
   499   8 o      501   1 h                                       0.9735621
   502   8 o      503   1 h                                       0.9612493
   502   8 o      504   1 h                                       0.9653870
   505   8 o      506   1 h                                       0.9761537
   505   8 o      507   1 h                                       0.9691257
   508   8 o      509   1 h                                       0.9712807
   508   8 o      510   1 h                                       0.9769301
   511   8 o      512   1 h                                       0.9699920
   511   8 o      513   1 h                                       0.9821390
   514   8 o      515   1 h                                       0.9571484
   514   8 o      516   1 h                                       0.9746082
   517   8 o      518   1 h                                       0.9758634
   517   8 o      519   1 h                                       0.9730171
   520   8 o      521   1 h                                       0.9782320
   520   8 o      522   1 h                                       0.9687140
   523   8 o      524   1 h                                       0.9611618
   523   8 o      525   1 h                                       0.9739057
   526   8 o      527   1 h                                       0.9897900
   526   8 o      528   1 h                                       0.9565425
   529   8 o      530   1 h                                       0.9733370
   529   8 o      531   1 h                                       0.9797670
   532   8 o      533   1 h                                       0.9778471
   532   8 o      534   1 h                                       0.9691773
   535   8 o      536   1 h                                       0.9624786
   535   8 o      537   1 h                                       0.9740019
   538   8 o      539   1 h                                       0.9711250
   538   8 o      540   1 h                                       0.9714231
   541   8 o      542   1 h                                       0.9846520
   541   8 o      543   1 h                                       0.9713942
   544   8 o      545   1 h                                       0.9723123
   544   8 o      546   1 h                                       0.9802038
   547   8 o      548   1 h                                       0.9646887
   547   8 o      549   1 h                                       0.9860107
   550   8 o      551   1 h                                       0.9755443
   550   8 o      552   1 h                                       0.9906962
   553   8 o      554   1 h                                       0.9639676
   553   8 o      555   1 h                                       0.9713725
   556   8 o      557   1 h                                       0.9674282
   556   8 o      558   1 h                                       0.9830006
   559   8 o      560   1 h                                       0.9801658
   559   8 o      561   1 h                                       0.9670031
   562   8 o      563   1 h                                       0.9856481
   562   8 o      564   1 h                                       0.9614027
   565   8 o      566   1 h                                       0.9781058
   565   8 o      567   1 h                                       0.9757527
   568   8 o      569   1 h                                       0.9585190
   568   8 o      570   1 h                                       0.9794911
   571   8 o      572   1 h                                       0.9911676
   571   8 o      573   1 h                                       0.9576918
   574   8 o      575   1 h                                       0.9702782
   574   8 o      576   1 h                                       0.9834131
   577   8 o      578   1 h                                       0.9692294
   577   8 o      579   1 h                                       0.9768500
   580   8 o      581   1 h                                       0.9894033
   580   8 o      582   1 h                                       0.9694753
   583   8 o      584   1 h                                       0.9684004
   583   8 o      585   1 h                                       0.9621710
   586   8 o      587   1 h                                       0.9737946
   586   8 o      588   1 h                                       0.9619900
   589   8 o      590   1 h                                       0.9621410
   589   8 o      591   1 h                                       0.9639811
   592   8 o      593   1 h                                       0.9821268
   592   8 o      594   1 h                                       0.9698196
   595   8 o      596   1 h                                       0.9643345
   595   8 o      597   1 h                                       0.9837352
   598   8 o      599   1 h                                       0.9832730
   598   8 o      600   1 h                                       0.9740435
   601   8 o      602   1 h                                       0.9718042
   601   8 o      603   1 h                                       0.9741825
   604   8 o      605   1 h                                       0.9885674
   604   8 o      606   1 h                                       0.9796442
   607   8 o      608   1 h                                       0.9618573
   607   8 o      609   1 h                                       0.9783115
   610   8 o      611   1 h                                       0.9992000
   610   8 o      612   1 h                                       0.9842534
   613   8 o      614   1 h                                       0.9574119
   613   8 o      615   1 h                                       0.9816690
   616   8 o      617   1 h                                       0.9934641
   616   8 o      618   1 h                                       0.9564241
   619   8 o      620   1 h                                       0.9825993
   619   8 o      621   1 h                                       0.9856952
   622   8 o      623   1 h                                       0.9837613
   622   8 o      624   1 h                                       0.9679309
   625   8 o      626   1 h                                       0.9771531
   625   8 o      627   1 h                                       0.9709775
   628   8 o      629   1 h                                       0.9715151
   628   8 o      630   1 h                                       0.9749551
   631   8 o      632   1 h                                       0.9746130
   631   8 o      633   1 h                                       0.9668237
   634   8 o      635   1 h                                       0.9654193
   634   8 o      636   1 h                                       0.9777488
   637   8 o      638   1 h                                       0.9640581
   637   8 o      639   1 h                                       0.9778324
   640   8 o      641   1 h                                       0.9709243
   640   8 o      642   1 h                                       0.9662830
   643   8 o      644   1 h                                       0.9798075
   643   8 o      645   1 h                                       0.9802257
   646   8 o      647   1 h                                       0.9847793
   646   8 o      648   1 h                                       0.9625910
   649   8 o      650   1 h                                       0.9666599
   649   8 o      651   1 h                                       0.9669865
   652   8 o      653   1 h                                       0.9846880
   652   8 o      654   1 h                                       0.9758389
   655   8 o      656   1 h                                       0.9588995
   655   8 o      657   1 h                                       0.9769300
   658   8 o      659   1 h                                       0.9883646
   658   8 o      660   1 h                                       0.9858884
   661   8 o      662   1 h                                       0.9748915
   661   8 o      663   1 h                                       0.9685128
   664   8 o      665   1 h                                       0.9593550
   664   8 o      666   1 h                                       0.9703670
   667   8 o      668   1 h                                       0.9892146
   667   8 o      669   1 h                                       0.9593307
   670   8 o      671   1 h                                       0.9698915
   670   8 o      672   1 h                                       0.9749532
   673   8 o      674   1 h                                       0.9740997
   673   8 o      675   1 h                                       0.9612179
   676   8 o      677   1 h                                       0.9773622
   676   8 o      678   1 h                                       0.9874570
   679   8 o      680   1 h                                       0.9730946
   679   8 o      681   1 h                                       0.9765142
   682   8 o      683   1 h                                       0.9863156
   682   8 o      684   1 h                                       0.9560325
   685   8 o      686   1 h                                       0.9757483
   685   8 o      687   1 h                                       0.9831282
   688   8 o      689   1 h                                       0.9747906
   688   8 o      690   1 h                                       0.9796163
   691   8 o      692   1 h                                       0.9705246
   691   8 o      693   1 h                                       0.9809765
   694   8 o      695   1 h                                       0.9729461
   694   8 o      696   1 h                                       0.9692148
   697   8 o      698   1 h                                       0.9645316
   697   8 o      699   1 h                                       0.9838400
   700   8 o      701   1 h                                       0.9695760
   700   8 o      702   1 h                                       0.9745883
   703   8 o      704   1 h                                       0.9601138
   703   8 o      705   1 h                                       0.9902202
   706   8 o      707   1 h                                       0.9732437
   706   8 o      708   1 h                                       0.9701829
   709   8 o      710   1 h                                       0.9858058
   709   8 o      711   1 h                                       0.9598241
   712   8 o      713   1 h                                       0.9660378
   712   8 o      714   1 h                                       0.9819384
   715   8 o      716   1 h                                       0.9784386
   715   8 o      717   1 h                                       0.9712867
   718   8 o      719   1 h                                       0.9880230
   718   8 o      720   1 h                                       0.9737090
   721   8 o      722   1 h                                       0.9637925
   721   8 o      723   1 h                                       0.9682506
   724   8 o      725   1 h                                       0.9714817
   724   8 o      726   1 h                                       0.9805648
   727   8 o      728   1 h                                       0.9830460
   727   8 o      729   1 h                                       0.9635099
   730   8 o      731   1 h                                       0.9711698
   730   8 o      732   1 h                                       0.9660862
   733   8 o      734   1 h                                       0.9844492
   733   8 o      735   1 h                                       0.9588755
   736   8 o      737   1 h                                       0.9702525
   736   8 o      738   1 h                                       0.9770846
   739   8 o      740   1 h                                       0.9825965
   739   8 o      741   1 h                                       0.9770251
   742   8 o      743   1 h                                       0.9569715
   742   8 o      744   1 h                                       0.9691856
   745   8 o      746   1 h                                       0.9724426
   745   8 o      747   1 h                                       0.9660047
   748   8 o      749   1 h                                       0.9692140
   748   8 o      750   1 h                                       0.9806695
   751   8 o      752   1 h                                       0.9848146
   751   8 o      753   1 h                                       0.9592412
   754   8 o      755   1 h                                       0.9695144
   754   8 o      756   1 h                                       0.9607208

 * 1 distinct bonds (by element types)

   Z      Z             #   av. dist./Å        max./Å        min./Å
   1 H    8 O         504     0.9739012     1.0005374     0.9556917


optimized geometry written to: xtbopt.coord


           -------------------------------------------------
          | TOTAL ENERGY            -1283.348878695899 Eh   |
          | GRADIENT NORM               0.004120403121 Eh/α |
          | HOMO-LUMO GAP               7.916603227569 eV   |
           -------------------------------------------------

------------------------------------------------------------------------
 * finished run on 2022/11/24 at 09:13:40.878     
------------------------------------------------------------------------
 total:
 * wall-time:     0 d,  0 h,  5 min, 48.512 sec
 *  cpu-time:     0 d,  0 h,  8 min, 37.983 sec
 * ratio c/w:     1.486 speedup
 SCF:
 * wall-time:     0 d,  0 h,  0 min, 21.606 sec
 *  cpu-time:     0 d,  0 h,  0 min, 35.020 sec
 * ratio c/w:     1.621 speedup
 ANC optimizer:
 * wall-time:     0 d,  0 h,  5 min, 25.867 sec
 *  cpu-time:     0 d,  0 h,  8 min,  1.225 sec
 * ratio c/w:     1.477 speedup

