      -----------------------------------------------------------      
     |                   =====================                   |     
     |                           x T B                           |     
     |                   =====================                   |     
     |                         S. Grimme                         |     
     |          Mulliken Center for Theoretical Chemistry        |     
     |                    University of Bonn                     |     
      -----------------------------------------------------------      

   * xtb version 6.5.1 (579679a) compiled by 'ehlert@majestix' on 2022-07-11

   xtb is free software: you can redistribute it and/or modify it under
   the terms of the GNU Lesser General Public License as published by
   the Free Software Foundation, either version 3 of the License, or
   (at your option) any later version.
   
   xtb is distributed in the hope that it will be useful,
   but WITHOUT ANY WARRANTY; without even the implied warranty of
   MERCHANTABILITY or FITNESS FOR A PARTICULAR PURPOSE.  See the
   GNU Lesser General Public License for more details.
   
   Cite this work as:
   * C. Bannwarth, E. Caldeweyher, S. Ehlert, A. Hansen, P. Pracht,
     J. Seibert, S. Spicher, S. Grimme, WIREs Comput. Mol. Sci., 2020, 11,
     e01493. DOI: 10.1002/wcms.1493
   
   for GFN2-xTB:
   * C. Bannwarth, S. Ehlert and S. Grimme., J. Chem. Theory Comput., 2019,
     15, 1652-1671. DOI: 10.1021/acs.jctc.8b01176
   for GFN1-xTB:
   * S. Grimme, C. Bannwarth, P. Shushkov, J. Chem. Theory Comput., 2017,
     13, 1989-2009. DOI: 10.1021/acs.jctc.7b00118
   for GFN0-xTB:
   * P. Pracht, E. Caldeweyher, S. Ehlert, S. Grimme, ChemRxiv, 2019, preprint.
     DOI: 10.26434/chemrxiv.8326202.v1
   for GFN-FF:
   * S. Spicher and S. Grimme, Angew. Chem. Int. Ed., 2020, 59, 15665-15673.
     DOI: 10.1002/anie.202004239
   
   for ALPB and GBSA implicit solvation:
   * S. Ehlert, M. Stahn, S. Spicher, S. Grimme, J. Chem. Theory Comput.,
     2021, 17, 4250-4261. DOI: 10.1021/acs.jctc.1c00471
   
   for DFT-D4:
   * E. Caldeweyher, C. Bannwarth and S. Grimme, J. Chem. Phys., 2017,
     147, 034112. DOI: 10.1063/1.4993215
   * E. Caldeweyher, S. Ehlert, A. Hansen, H. Neugebauer, S. Spicher,
     C. Bannwarth and S. Grimme, J. Chem. Phys., 2019, 150, 154122.
     DOI: 10.1063/1.5090222
   * E. Caldeweyher, J.-M. Mewes, S. Ehlert and S. Grimme, Phys. Chem. Chem. Phys.
     2020, 22, 8499-8512. DOI: 10.1039/D0CP00502A
   
   for sTDA-xTB:
   * S. Grimme and C. Bannwarth, J. Chem. Phys., 2016, 145, 054103.
     DOI: 10.1063/1.4959605
   
   in the mass-spec context:
   * V. Asgeirsson, C. Bauer and S. Grimme, Chem. Sci., 2017, 8, 4879.
     DOI: 10.1039/c7sc00601b
   * J. Koopman and S. Grimme, ACS Omega 2019, 4, 12, 15120-15133.
     DOI: 10.1021/acsomega.9b02011
   
   for metadynamics refer to:
   * S. Grimme, J. Chem. Theory Comput., 2019, 155, 2847-2862
     DOI: 10.1021/acs.jctc.9b00143
   
   for SPH calculations refer to:
   * S. Spicher and S. Grimme, J. Chem. Theory Comput., 2021, 17, 1701-1714
     DOI: 10.1021/acs.jctc.0c01306
   
   with help from (in alphabetical order)
   P. Atkinson, C. Bannwarth, F. Bohle, G. Brandenburg, E. Caldeweyher
   M. Checinski, S. Dohm, S. Ehlert, S. Ehrlich, I. Gerasimov, C. Hölzer
   A. Katbashev, J. Koopman, C. Lavigne, S. Lehtola, F. März, M. Müller,
   F. Musil, H. Neugebauer, J. Pisarek, C. Plett, P. Pracht, F. Pultar,
   J. Seibert, P. Shushkov, S. Spicher, M. Stahn, M. Steiner, T. Strunk,
   J. Stückrath, T. Rose, and J. Unsleber
   
 * started run on 2022/11/24 at 09:28:10.077     

           -------------------------------------------------
          |                Calculation Setup                |
           -------------------------------------------------

          program call               : xtb solvent_cluster.coord --gfn2 --sp --lmo --chrg 0
          hostname                   : cn0341
          coordinate file            : solvent_cluster.coord
          omp threads                :                     2

   ID    Z sym.   atoms
    1    8 o      1, 4, 7, 10, 13, 16, 19, 22, 25, 28, 31, 34, 37, 40, 43,
                  46, 49, 52, 55, 58, 61, 64, 67, 70, 73, 76, 79, 82, 85, 88,
                  91, 94, 97, 100, 103, 106, 109, 112, 115, 118, 121, 124,
                  127, 130, 133, 136, 139, 142, 145, 148, 151, 154, 157, 160,
                  163, 166, 169, 172, 175, 178, 181, 184, 187, 190, 193, 196,
                  199, 202, 205, 208, 211, 214, 217, 220, 223, 226, 229, 232,
                  235, 238, 241, 244, 247, 250, 253, 256, 259, 262, 265, 268,
                  271, 274, 277, 280, 283, 286, 289, 292, 295, 298, 301, 304,
                  307, 310, 313, 316, 319, 322, 325, 328, 331, 334, 337, 340,
                  343, 346, 349, 352, 355, 358, 361, 364, 367, 370, 373, 376,
                  379, 382, 385, 388, 391, 394, 397, 400, 403, 406, 409, 412,
                  415, 418, 421, 424, 427, 430, 433, 436, 439, 442, 445, 448,
                  451, 454, 457, 460, 463, 466, 469, 472, 475, 478, 481, 484,
                  487, 490, 493, 496, 499, 502, 505, 508, 511, 514, 517, 520,
                  523, 526, 529, 532, 535, 538, 541, 544, 547, 550, 553, 556,
                  559, 562, 565, 568, 571, 574, 577, 580, 583, 586, 589, 592,
                  595, 598, 601, 604, 607, 610, 613, 616, 619, 622, 625, 628,
                  631, 634, 637, 640, 643, 646, 649, 652, 655, 658, 661, 664,
                  667, 670, 673, 676, 679, 682, 685, 688, 691, 694, 697, 700,
                  703, 706, 709, 712, 715, 718, 721, 724, 727, 730, 733, 736,
                  739, 742, 745, 748, 751, 754
    2    1 h      2, 3, 5, 6, 8, 9, 11, 12, 14, 15, 17, 18, 20, 21, 23, 24,
                  26, 27, 29, 30, 32, 33, 35, 36, 38, 39, 41, 42, 44, 45, 47,
                  48, 50, 51, 53, 54, 56, 57, 59, 60, 62, 63, 65, 66, 68, 69,
                  71, 72, 74, 75, 77, 78, 80, 81, 83, 84, 86, 87, 89, 90, 92,
                  93, 95, 96, 98, 99, 101, 102, 104, 105, 107, 108, 110, 111,
                  113, 114, 116, 117, 119, 120, 122, 123, 125, 126, 128, 129,
                  131, 132, 134, 135, 137, 138, 140, 141, 143, 144, 146, 147,
                  149, 150, 152, 153, 155, 156, 158, 159, 161, 162, 164, 165,
                  167, 168, 170, 171, 173, 174, 176, 177, 179, 180, 182, 183,
                  185, 186, 188, 189, 191, 192, 194, 195, 197, 198, 200, 201,
                  203, 204, 206, 207, 209, 210, 212, 213, 215, 216, 218, 219,
                  221, 222, 224, 225, 227, 228, 230, 231, 233, 234, 236, 237,
                  239, 240, 242, 243, 245, 246, 248, 249, 251, 252, 254, 255,
                  257, 258, 260, 261, 263, 264, 266, 267, 269, 270, 272, 273,
                  275, 276, 278, 279, 281, 282, 284, 285, 287, 288, 290, 291,
                  293, 294, 296, 297, 299, 300, 302, 303, 305, 306, 308, 309,
                  311, 312, 314, 315, 317, 318, 320, 321, 323, 324, 326, 327,
                  329, 330, 332, 333, 335, 336, 338, 339, 341, 342, 344, 345,
                  347, 348, 350, 351, 353, 354, 356, 357, 359, 360, 362, 363,
                  365, 366, 368, 369, 371, 372, 374, 375, 377, 378, 380, 381,
                  383, 384, 386, 387, 389, 390, 392, 393, 395, 396, 398, 399,
                  401, 402, 404, 405, 407, 408, 410, 411, 413, 414, 416, 417,
                  419, 420, 422, 423, 425, 426, 428, 429, 431, 432, 434, 435,
                  437, 438, 440, 441, 443, 444, 446, 447, 449, 450, 452, 453,
                  455, 456, 458, 459, 461, 462, 464, 465, 467, 468, 470, 471,
                  473, 474, 476, 477, 479, 480, 482, 483, 485, 486, 488, 489,
                  491, 492, 494, 495, 497, 498, 500, 501, 503, 504, 506, 507,
                  509, 510, 512, 513, 515, 516, 518, 519, 521, 522, 524, 525,
                  527, 528, 530, 531, 533, 534, 536, 537, 539, 540, 542, 543,
                  545, 546, 548, 549, 551, 552, 554, 555, 557, 558, 560, 561,
                  563, 564, 566, 567, 569, 570, 572, 573, 575, 576, 578, 579,
                  581, 582, 584, 585, 587, 588, 590, 591, 593, 594, 596, 597,
                  599, 600, 602, 603, 605, 606, 608, 609, 611, 612, 614, 615,
                  617, 618, 620, 621, 623, 624, 626, 627, 629, 630, 632, 633,
                  635, 636, 638, 639, 641, 642, 644, 645, 647, 648, 650, 651,
                  653, 654, 656, 657, 659, 660, 662, 663, 665, 666, 668, 669,
                  671, 672, 674, 675, 677, 678, 680, 681, 683, 684, 686, 687,
                  689, 690, 692, 693, 695, 696, 698, 699, 701, 702, 704, 705,
                  707, 708, 710, 711, 713, 714, 716, 717, 719, 720, 722, 723,
                  725, 726, 728, 729, 731, 732, 734, 735, 737, 738, 740, 741,
                  743, 744, 746, 747, 749, 750, 752, 753, 755, 756

molecular fragmentation (1/2 indicates fragments):
111222222222222222222222222222222222222222222222222222222222222222222222
222222222222222222222222222222222222222222222222222222222222222222222222
222222222222222222222222222222222222222222222222222222222222222222222222
222222222222222222222222222222222222222222222222222222222222222222222222
222222222222222222222222222222222222222222222222222222222222222222222222
222222222222222222222222222222222222222222222222222222222222222222222222
222222222222222222222222222222222222222222222222222222222222222222222222
222222222222222222222222222222222222222222222222222222222222222222222222
222222222222222222222222222222222222222222222222222222222222222222222222
222222222222222222222222222222222222222222222222222222222222222222222222
222222222222222222222222222222222222
# atoms in fragment 1/2:     3   753
 fragment masses (1/2) :       18.02     4521.84
CMA distance (Bohr)    :  18.768
constraining FC (au)   :  0.0500

           -------------------------------------------------
          |                 G F N 2 - x T B                 |
           -------------------------------------------------

        Reference                      10.1021/acs.jctc.8b01176
      * Hamiltonian:
        H0-scaling (s, p, d)           1.850000    2.230000    2.230000
        zeta-weighting                 0.500000
      * Dispersion:
        s8                             2.700000
        a1                             0.520000
        a2                             5.000000
        s9                             5.000000
      * Repulsion:
        kExp                           1.500000    1.000000
        rExp                           1.000000
      * Coulomb:
        alpha                          2.000000
        third order                    shell-resolved
        anisotropic                    true
        a3                             3.000000
        a5                             4.000000
        cn-shift                       1.200000
        cn-exp                         4.000000
        max-rad                        5.000000


          ...................................................
          :                      SETUP                      :
          :.................................................:
          :  # basis functions                1512          :
          :  # atomic orbitals                1512          :
          :  # shells                         1008          :
          :  # electrons                      2016          :
          :  max. iterations                   250          :
          :  Hamiltonian                  GFN2-xTB          :
          :  restarted?                      false          :
          :  GBSA solvation                  false          :
          :  PC potential                    false          :
          :  electronic temp.          300.0000000     K    :
          :  accuracy                    1.0000000          :
          :  -> integral cutoff          0.2500000E+02      :
          :  -> integral neglect         0.1000000E-07      :
          :  -> SCF convergence          0.1000000E-05 Eh   :
          :  -> wf. convergence          0.1000000E-03 e    :
          :  Broyden damping             0.4000000          :
          ...................................................

 iter      E             dE          RMSdq      gap      omega  full diag
   1  -1291.0166695 -0.129102E+04  0.406E+00    8.44       0.0  T
   2  -1291.0867340 -0.700646E-01  0.241E+00    8.32       1.0  T
   3  -1291.1172342 -0.305002E-01  0.208E-01    7.71       1.0  T
   4  -1291.1222045 -0.497035E-02  0.452E-02    7.94       1.0  T
   5  -1291.1222795 -0.749270E-04  0.306E-02    7.90       1.0  T
   6  -1291.1223171 -0.376443E-04  0.403E-03    7.92       1.0  T
   7  -1291.1223192 -0.207364E-05  0.762E-04    7.92       4.8  T
   8  -1291.1223192 -0.322673E-07  0.402E-04    7.92       9.0  T
   9  -1291.1223192 -0.158457E-07  0.631E-05    7.92      57.6  T

   *** convergence criteria satisfied after 9 iterations ***

         #    Occupation            Energy/Eh            Energy/eV
      -------------------------------------------------------------
         1        2.0000           -0.6908414             -18.7988
       ...           ...                  ...                  ...
      1002        2.0000           -0.4093089             -11.1379
      1003        2.0000           -0.4089051             -11.1269
      1004        2.0000           -0.4084142             -11.1135
      1005        2.0000           -0.4082074             -11.1079
      1006        2.0000           -0.4066250             -11.0648
      1007        2.0000           -0.4028362             -10.9617
      1008        2.0000           -0.3980090             -10.8304 (HOMO)
      1009                         -0.1070805              -2.9138 (LUMO)
      1010                         -0.0919088              -2.5010
      1011                         -0.0849711              -2.3122
      1012                         -0.0819392              -2.2297
      1013                         -0.0727411              -1.9794
       ...                                ...                  ...
      1512                          0.4337743              11.8036
      -------------------------------------------------------------
                  HL-Gap            0.2909286 Eh            7.9166 eV
             Fermi-level           -0.2525447 Eh           -6.8721 eV
 
 localization/xTB-IFF output generation
 averaging CT terms over            3  occ. levels
 averaging CT terms over            1  virt. levels
 dipole moment from electron density (au)
     X       Y       Z   
   2.3979   1.8728  -2.0176  total (Debye):    9.279
cpu  time for init local    0.82 s
wall time for init local    0.42 s
 doing rotations ...
 initialization of trafo matrix to unity

 converged in     16 iterations, threshold :   0.99997900D-06
 doing transformations ...
 lmo centers(Z=2) and atoms on file <lmocent.coord>
 LMO Fii/eV  ncent    charge center   contributions...
    1 LP   *******   0.00  -9.45814 -14.70781 -10.03944    1O : 36.66   25O : 24.25   79O : 23.93  532O : 22.14  523O : 22.00  352O : 21.51   91O : 18.19  463O : 17.64  664O : 16.23  721O : 16.22  601O : 15.85  376O : 15.62
  232O : 15.59  715O : 14.77  316O : 14.52   97O : 14.41  442O : 14.40  208O : 14.16  337O : 14.00  406O : 13.66  184O : 13.45  460O : 13.32  199O : 12.71  277O : 12.62
  115O : 12.37  397O : 11.93  469O : 11.76  712O : 11.68  181O : 11.60  553O : 11.45   67O : 11.41  262O : 10.95  151O : 10.40  271O : 10.31  127O : 10.09  421O : 10.07
   94O :  9.99  727O :  9.96  226O :  9.91  112O :  9.85   85O :  9.84  286O :  9.83  292O :  9.82  478O :  9.43  514O :  9.42  358O :  9.38  424O :  9.31  667O :  9.30
  229O :  9.26  367O :  9.01  493O :  8.99  739O :  8.98   28O :  8.87  583O :  8.85  355O :  8.48  412O :  8.38  415O :  8.25   58O :  8.23  217O :  8.14   82O :  7.98
   55O :  7.92  568O :  7.67  409O :  7.64  742O :  7.64  709O :  7.58  244O :  7.56  223O :  7.45   88O :  7.43  289O :  7.43  541O :  7.40  736O :  7.33  433O :  7.32
  751O :  7.16  466O :  7.15  187O :  7.10  154O :  7.02  418O :  6.98  331O :  6.94  319O :  6.90  148O :  6.82  334O :  6.75  403O :  6.73  430O :  6.69  106O :  6.68
  670O :  6.68  487O :  6.62  121O :  6.54  673O :  6.51  592O :  6.45  490O :  6.45  214O :  6.39  436O :  6.36  616O :  6.33  574O :  6.32  697O :  6.17  688O :  6.17
  589O :  6.13  139O :  6.13  202O :  6.11  343O :  6.02  118O :  5.86  361O :  5.70  481O :  5.67  265O :  5.67  604O :  5.63  544O :  5.61  637O :  5.46  100O :  5.31
  166O :  5.21  253O :  5.07  547O :  5.05  304O :  5.04  346O :  5.02  724O :  4.87   61O :  4.76  577O :  4.74  256O :  4.72  538O :  4.69   76O :  4.67  328O :  4.66
   16O :  4.63  718O :  4.58  706O :  4.49  511O :  4.47  310O :  4.42  235O :  4.39  340O :  4.37  529O :  4.36  373O :  4.36  220O :  4.27    4O :  4.11  646O :  4.06
  457O :  4.06  451O :  3.94  238O :  3.92  130O :  3.91  313O :  3.90  259O :  3.85  691O :  3.69   64O :  3.68  676O :  3.66  157O :  3.64  520O :  3.55  652O :  3.55
  196O :  3.52  379O :  3.51  580O :  3.46  655O :  3.38  178O :  3.36  748O :  3.33  619O :  3.32  280O :  3.32  586O :  3.28  109O :  3.28  745O :  3.24  628O :  3.22
  385O :  3.18  364O :  3.13  625O :  3.13  661O :  3.08  622O :  3.02  370O :  2.98   73O :  2.92   31O :  2.92  172O :  2.82  103O :  2.82  382O :  2.76  694O :  2.76
  250O :  2.75  730O :  2.74  679O :  2.73   43O :  2.63  283O :  2.57  448O :  2.54   37O :  2.53  205O :  2.49   13O :  2.47  163O :  2.46  554H :  2.44  556O :  2.38
  475O :  2.38  117H :  2.30  607O :  2.30   40O :  2.28  391O :  2.27   93H :  2.25  610O :  2.24  517O :  2.23  354H :  2.16  190O :  2.16  658O :  2.10  142O :  2.10
  508O :  2.09  703O :  2.08  445O :  2.00    7O :  1.99  499O :  1.98  454O :  1.95  682O :  1.95  123H :  1.93  301O :  1.93   27H :  1.93  550O :  1.91  388O :  1.86
  182H :  1.84  733O :  1.78  634O :  1.78  578H :  1.72  700O :  1.71  400O :  1.68  462H :  1.67  290H :  1.67  512H :  1.64   34O :  1.62  247O :  1.62  294H :  1.57
  505O :  1.52  169O :  1.48  268O :  1.48  317H :  1.45  584H :  1.41  439O :  1.40  685O :  1.36  438H :  1.35  167H :  1.34   46O :  1.29   99H :  1.28  193O :  1.26
  120H :  1.26   66H :  1.26   49O :  1.24   68H :  1.21   83H :  1.20   70O :  1.19  211O :  1.18  263H :  1.17  368H :  1.16  521H :  1.14  378H :  1.13  234H :  1.13
  690H :  1.12  349O :  1.12  531H :  1.11   42H :  1.09  649O :  1.08   44H :  1.08  230H :  1.05  640O :  1.04  613O :  1.03   80H :  1.00  133O :  0.99  526O :  0.99
  239H :  0.99  295O :  0.98  489H :  0.97  559O :  0.97  160O :  0.96   19O :  0.93  394O :  0.93  241O :  0.91   98H :  0.90  710H :  0.89  562O :  0.88  356H :  0.87
  643O :  0.83  525H :  0.82  398H :  0.82  666H :  0.82  737H :  0.81  494H :  0.79  325O :  0.79  145O :  0.78  483H :  0.78  416H :  0.77  591H :  0.77  183H :  0.76
  677H :  0.75  411H :  0.74   30H :  0.74  754O :  0.73   81H :  0.71  179H :  0.70  302H :  0.69  344H :  0.69  453H :  0.69   52O :  0.69  404H :  0.68  405H :  0.68
  369H :  0.68   75H :  0.67  180H :  0.66  307O :  0.66  563H :  0.66  565O :  0.66  164H :  0.65  175O :  0.65  417H :  0.64   24H :  0.64  480H :  0.64  722H :  0.63
  472O :  0.62   87H :  0.62  467H :  0.61  627H :  0.60  362H :  0.60  386H :  0.60   10O :  0.59  443H :  0.59  136O :  0.58  221H :  0.57  322O :  0.57  128H :  0.56
  704H :  0.56  435H :  0.56  282H :  0.55  359H :  0.55  533H :  0.54  377H :  0.54  335H :  0.54  458H :  0.54   72H :  0.53  605H :  0.53  413H :  0.52  297H :  0.52
  716H :  0.52  209H :  0.52  401H :  0.50   57H :  0.49  284H :  0.49  269H :  0.49   63H :  0.48  144H :  0.48  546H :  0.48  633H :  0.48  738H :  0.48  245H :  0.46
   22O :  0.46  656H :  0.46  502O :  0.45  495H :  0.45  408H :  0.45  381H :  0.45   60H :  0.45  341H :  0.45   69H :  0.44  663H :  0.44  188H :  0.43  450H :  0.43
  500H :  0.43  534H :  0.42  333H :  0.42   33H :  0.42  309H :  0.42  639H :  0.42  598O :  0.41  513H :  0.41  156H :  0.40  675H :  0.40  711H :  0.39   39H :  0.39
   89H :  0.39  595O :  0.38  537H :  0.38  278H :  0.38  257H :  0.38  476H :  0.38  407H :  0.37  236H :  0.37  176H :  0.37  353H :  0.36  393H :  0.36  249H :  0.35
  744H :  0.35  427O :  0.34  113H :  0.34  132H :  0.34  575H :  0.34  149H :  0.34  720H :  0.33  674H :  0.33  306H :  0.33  134H :  0.33  273H :  0.33  207H :  0.32
    9H :  0.32   71H :  0.31   29H :  0.31  680H :  0.31  647H :  0.31  741H :  0.30  363H :  0.30  392H :  0.30  471H :  0.30  654H :  0.30  414H :  0.30  119H :  0.30
  653H :  0.29  746H :  0.29  549H :  0.29  497H :  0.29  298O :  0.29  732H :  0.28  338H :  0.28  714H :  0.28  267H :  0.28  326H :  0.27  272H :  0.27  104H :  0.27
  116H :  0.26  110H :  0.26  726H :  0.25  522H :  0.25  542H :  0.24  611H :  0.24  279H :  0.24  315H :  0.24  638H :  0.24  755H :  0.24  185H :  0.24  422H :  0.24
  696H :  0.23  617H :  0.23  540H :  0.23  348H :  0.22  291H :  0.22  350H :  0.22  543H :  0.22  729H :  0.22  496O :  0.21  212H :  0.21  582H :  0.21  455H :  0.21
  324H :  0.21  194H :  0.21  484O :  0.21  631O :  0.21   78H :  0.21  561H :  0.21  648H :  0.20  609H :  0.20  274O :  0.20  281H :  0.19  641H :  0.19  707H :  0.19
  402H :  0.19  440H :  0.19  747H :  0.18  233H :  0.18  429H :  0.18  384H :  0.18  567H :  0.18   84H :  0.18  410H :  0.18  571O :  0.18  665H :  0.18  108H :  0.17
  678H :  0.17  327H :  0.17  155H :  0.17  246H :  0.17   47H :  0.17  170H :  0.17  231H :  0.17  518H :  0.17  588H :  0.16   51H :  0.16  752H :  0.16  713H :  0.16
  312H :  0.16  396H :  0.16   18H :  0.16  734H :  0.16  492H :  0.16  173H :  0.16  576H :  0.16  251H :  0.15  252H :  0.15  293H :  0.15   96H :  0.15   36H :  0.14
  594H :  0.14  266H :  0.14  557H :  0.14  477H :  0.13  204H :  0.13  657H :  0.13  717H :  0.13  143H :  0.13  140H :  0.12  602H :  0.12  681H :  0.12  159H :  0.12
  731H :  0.12  258H :  0.12  135H :  0.12  287H :  0.12  228H :  0.12  105H :  0.12  509H :  0.11  470H :  0.11  303H :  0.11  535O :  0.11  101H :  0.11  420H :  0.11
  606H :  0.11  126H :  0.11  486H :  0.11  371H :  0.11   17H :  0.11  468H :  0.10   90H :  0.10  551H :  0.10  740H :  0.10   77H :  0.10  552H :  0.10  501H :  0.10
  437H :  0.10  626H :  0.10    2H :  0.10  585H :  0.09  222H :  0.09  428H :  0.09   65H :  0.09  701H :  0.09   54H :  0.09  698H :  0.09  305H :  0.09   92H :  0.09
  630H :  0.09  198H :  0.08  299H :  0.08  150H :  0.08  210H :  0.08  636H :  0.08  137H :  0.08  750H :  0.08  242H :  0.08  270H :  0.08  138H :  0.08  122H :  0.08
  311H :  0.08  213H :  0.08  426H :  0.08  555H :  0.08  504H :  0.07  345H :  0.07  728H :  0.07  618H :  0.07   15H :  0.07  515H :  0.07
    2 LP   *******   0.00 -34.47313  52.03650   0.37247    1O : 34.08  532O : 25.55   25O : 23.88   79O : 23.56  523O : 21.66  352O : 21.18   91O : 17.91  463O : 17.37  721O : 15.97  664O : 15.86  601O : 15.60  376O : 15.38
  232O : 15.35  715O : 14.54  316O : 14.27   97O : 14.19  442O : 14.18  208O : 13.94  337O : 13.79  406O : 13.45  184O : 13.22  460O : 13.11  199O : 12.52  277O : 12.43
  115O : 12.19  397O : 11.74  469O : 11.58  712O : 11.49  181O : 11.42  553O : 11.28   67O : 11.23  262O : 10.79  151O : 10.23  271O : 10.15  127O :  9.93  421O :  9.92
   94O :  9.84  727O :  9.80  226O :  9.74  112O :  9.70   85O :  9.69  286O :  9.68  292O :  9.67  478O :  9.29  514O :  9.27  358O :  9.24  424O :  9.17  667O :  9.16
  229O :  9.12  367O :  8.87  493O :  8.86  739O :  8.85   28O :  8.73  583O :  8.71  355O :  8.35  412O :  8.25  415O :  8.13   58O :  8.11  217O :  8.01   82O :  7.86
   55O :  7.80  742O :  7.61  568O :  7.55  409O :  7.55  709O :  7.46  244O :  7.44  223O :  7.34   88O :  7.32  289O :  7.32  541O :  7.29  736O :  7.22  433O :  7.20
  751O :  7.05  466O :  7.04  187O :  6.99  154O :  6.91  418O :  6.86  331O :  6.84  319O :  6.79  148O :  6.71  334O :  6.64  403O :  6.63  430O :  6.59  106O :  6.58
  670O :  6.58  487O :  6.52  121O :  6.44  673O :  6.41  592O :  6.35  490O :  6.35  214O :  6.29  436O :  6.26  616O :  6.23  574O :  6.22  697O :  6.08  688O :  6.07
  589O :  6.04  139O :  6.03  202O :  6.02  343O :  5.93  118O :  5.77  361O :  5.62  265O :  5.58  481O :  5.57  604O :  5.54  544O :  5.53  637O :  5.38  100O :  5.23
  166O :  5.13  253O :  5.00  547O :  4.97  304O :  4.96  346O :  4.93  724O :  4.80   61O :  4.68  577O :  4.67  256O :  4.65  538O :  4.61   76O :  4.61  328O :  4.59
   16O :  4.56  718O :  4.51  340O :  4.44  706O :  4.42  511O :  4.40  310O :  4.36  235O :  4.32  529O :  4.30  373O :  4.29  220O :  4.20    4O :  4.05  646O :  4.00
  457O :  4.00  451O :  3.88  238O :  3.87  130O :  3.85  313O :  3.84  259O :  3.79  691O :  3.64   64O :  3.62  676O :  3.60  157O :  3.58  520O :  3.50  652O :  3.49
  196O :  3.46  379O :  3.46  580O :  3.41  655O :  3.33  178O :  3.31  748O :  3.28  619O :  3.27  280O :  3.26  628O :  3.23  586O :  3.23  109O :  3.23  745O :  3.19
  385O :  3.13  364O :  3.08  625O :  3.08  661O :  3.03  622O :  2.98  370O :  2.94   73O :  2.88   31O :  2.87  172O :  2.78  103O :  2.78  382O :  2.72  694O :  2.72
  250O :  2.71  730O :  2.70  679O :  2.69   43O :  2.58  283O :  2.53  448O :  2.50   37O :  2.49  205O :  2.44   13O :  2.43  163O :  2.42  554H :  2.40  556O :  2.34
  475O :  2.34  117H :  2.27  607O :  2.27   40O :  2.25  391O :  2.23  517O :  2.22   93H :  2.22  610O :  2.21  354H :  2.13  190O :  2.12  658O :  2.06  508O :  2.06
  142O :  2.05  703O :  2.04  445O :  1.96    7O :  1.96  499O :  1.95  454O :  1.92  682O :  1.92  123H :  1.90  301O :  1.90   27H :  1.90  550O :  1.88  388O :  1.83
  182H :  1.81  634O :  1.75  733O :  1.72  578H :  1.69  700O :  1.69  400O :  1.65  462H :  1.64  290H :  1.64  512H :  1.62   34O :  1.60  247O :  1.59  294H :  1.54
  505O :  1.50  169O :  1.46  268O :  1.46  317H :  1.43  584H :  1.39  439O :  1.38  685O :  1.34  438H :  1.33  167H :  1.32   46O :  1.27   99H :  1.26  193O :  1.25
  120H :  1.25   66H :  1.24   49O :  1.22   68H :  1.19   83H :  1.19   70O :  1.17  211O :  1.16  263H :  1.15  368H :  1.14  521H :  1.12  349O :  1.12  378H :  1.12
  234H :  1.11  690H :  1.11  531H :  1.09   42H :  1.07  649O :  1.06   44H :  1.06  230H :  1.04  640O :  1.03  613O :  1.02   80H :  0.98  133O :  0.98  526O :  0.97
  239H :  0.97  295O :  0.96  562O :  0.96  489H :  0.95  559O :  0.95  160O :  0.94   19O :  0.92  394O :  0.91  563H :  0.91  241O :  0.90   98H :  0.88  710H :  0.87
  356H :  0.85  643O :  0.82  666H :  0.82  525H :  0.81  398H :  0.81  737H :  0.80  494H :  0.78  325O :  0.78  145O :  0.76  483H :  0.76  416H :  0.76  591H :  0.75
  183H :  0.75  677H :  0.74   30H :  0.73  754O :  0.72   81H :  0.70  179H :  0.69  302H :  0.68  344H :  0.68  453H :  0.67   52O :  0.67  404H :  0.67  405H :  0.67
  369H :  0.67  411H :  0.66   75H :  0.66  180H :  0.65  307O :  0.65  565O :  0.65  164H :  0.64  175O :  0.64  417H :  0.63   24H :  0.63  480H :  0.63  722H :  0.62
  472O :  0.61   87H :  0.61  467H :  0.60  627H :  0.60  362H :  0.59  386H :  0.59   10O :  0.58  443H :  0.58  136O :  0.57  221H :  0.57  322O :  0.56  128H :  0.55
  704H :  0.55  435H :  0.55  282H :  0.54  359H :  0.54  335H :  0.53  377H :  0.53  458H :  0.53   72H :  0.53  605H :  0.52  413H :  0.52  297H :  0.51  716H :  0.51
  209H :  0.51  401H :  0.49   57H :  0.48  284H :  0.48  269H :  0.48   63H :  0.47  633H :  0.47  546H :  0.47  144H :  0.47  738H :  0.47   22O :  0.46  245H :  0.45
  656H :  0.45  502O :  0.45  495H :  0.45  408H :  0.44  381H :  0.44   60H :  0.44  341H :  0.44   69H :  0.44  533H :  0.43  663H :  0.43  188H :  0.43  450H :  0.43
  500H :  0.42  333H :  0.41   33H :  0.41  309H :  0.41  639H :  0.41  598O :  0.41  513H :  0.41  156H :  0.40  675H :  0.39  711H :  0.38   39H :  0.38   89H :  0.38
  595O :  0.38  537H :  0.37  278H :  0.37  257H :  0.37  476H :  0.37  407H :  0.37  236H :  0.36  176H :  0.36  353H :  0.36  393H :  0.35  744H :  0.35  249H :  0.35
  427O :  0.34  113H :  0.34  132H :  0.34  575H :  0.33  149H :  0.33  720H :  0.33  534H :  0.33  674H :  0.32  306H :  0.32  134H :  0.32  273H :  0.32    9H :  0.32
  207H :  0.31   71H :  0.31   29H :  0.31  680H :  0.30  647H :  0.30  741H :  0.30  363H :  0.30  392H :  0.30  471H :  0.29  654H :  0.29  414H :  0.29  119H :  0.29
  549H :  0.29  653H :  0.29  746H :  0.29  497H :  0.28  298O :  0.28  732H :  0.28  338H :  0.27  267H :  0.27  326H :  0.27  714H :  0.27  272H :  0.27  104H :  0.26
  116H :  0.26  110H :  0.26  726H :  0.25  522H :  0.25  542H :  0.24  611H :  0.24  279H :  0.24  315H :  0.24  638H :  0.24  755H :  0.24  185H :  0.23  422H :  0.23
  696H :  0.23  617H :  0.23  540H :  0.22  350H :  0.22  291H :  0.21  543H :  0.21  729H :  0.21  496O :  0.21  212H :  0.21  348H :  0.21  582H :  0.21  455H :  0.21
  324H :  0.21  194H :  0.21  484O :  0.21  631O :  0.20   78H :  0.20  561H :  0.20  648H :  0.20  609H :  0.20  274O :  0.20  281H :  0.19  641H :  0.19  707H :  0.18
  440H :  0.18  402H :  0.18  747H :  0.18  233H :  0.18  429H :  0.18  384H :  0.18  567H :  0.18   84H :  0.18  571O :  0.17  518H :  0.17  108H :  0.17  410H :  0.17
  678H :  0.17  327H :  0.17  155H :  0.17  246H :  0.17  665H :  0.17   47H :  0.17  170H :  0.17  231H :  0.17  588H :  0.16   51H :  0.16  752H :  0.16  713H :  0.16
  312H :  0.16  396H :  0.16   18H :  0.16  734H :  0.15  492H :  0.15  173H :  0.15  576H :  0.15  251H :  0.15  252H :  0.15  293H :  0.15   96H :  0.15   36H :  0.14
  594H :  0.14  266H :  0.14    2H :  0.14  557H :  0.14  477H :  0.13  204H :  0.13  657H :  0.13  717H :  0.13  143H :  0.13  140H :  0.12  602H :  0.12  159H :  0.12
  681H :  0.12  731H :  0.12  258H :  0.12  135H :  0.11  287H :  0.11  105H :  0.11  228H :  0.11  509H :  0.11  470H :  0.11  303H :  0.11  535O :  0.11  420H :  0.11
  101H :  0.11  606H :  0.11  126H :  0.11  486H :  0.11  371H :  0.10   17H :  0.10  468H :  0.10   90H :  0.10  551H :  0.10   77H :  0.10  740H :  0.10  552H :  0.10
  501H :  0.10  437H :  0.10  626H :  0.10  585H :  0.09  222H :  0.09  428H :  0.09   65H :  0.09  701H :  0.09   54H :  0.09  698H :  0.09  305H :  0.09   92H :  0.09
  198H :  0.08  299H :  0.08  150H :  0.08  210H :  0.08  636H :  0.08  137H :  0.08  750H :  0.08  242H :  0.08  270H :  0.08  138H :  0.08  122H :  0.08  311H :  0.08
  213H :  0.08  426H :  0.08  630H :  0.07  555H :  0.07  504H :  0.07  345H :  0.07  728H :  0.07
    3 LP   *******   0.00  40.88800  18.60558 -23.02231    1O : 30.40   79O : 25.31   25O : 21.30  532O : 19.45  523O : 19.32  352O : 18.89   91O : 15.97  463O : 15.52  721O : 14.24  664O : 14.15  601O : 13.92  376O : 13.72
  232O : 13.69  715O : 12.97  316O : 12.75   97O : 12.65  442O : 12.65  208O : 12.45  337O : 12.30  406O : 12.00  184O : 11.81  460O : 11.69  199O : 11.16  277O : 11.09
  115O : 10.87  397O : 10.47  469O : 10.33  712O : 10.26  181O : 10.19  553O : 10.06   67O : 10.02  262O :  9.62  271O :  9.05  127O :  8.86  421O :  8.85  151O :  8.83
   94O :  8.78  727O :  8.74  226O :  8.69  112O :  8.65   85O :  8.65  286O :  8.63  292O :  8.62  478O :  8.28  514O :  8.27  358O :  8.24  424O :  8.17  667O :  8.17
  229O :  8.13  367O :  7.91  493O :  7.90  739O :  7.89   28O :  7.79  583O :  7.77  355O :  7.45  412O :  7.36  415O :  7.25   58O :  7.23  217O :  7.15   82O :  7.01
   55O :  6.96  742O :  6.79  568O :  6.74  409O :  6.71  709O :  6.66  244O :  6.64  223O :  6.54   88O :  6.53  289O :  6.53  541O :  6.50  736O :  6.44  433O :  6.43
  751O :  6.29  466O :  6.28  187O :  6.23  154O :  6.17  418O :  6.13  331O :  6.10  319O :  6.06  148O :  5.99  334O :  5.93  403O :  5.91  430O :  5.88  670O :  5.87
  106O :  5.87  487O :  5.82  121O :  5.73  673O :  5.72  490O :  5.67  592O :  5.67  214O :  5.61  436O :  5.59  616O :  5.56  574O :  5.48  697O :  5.42  688O :  5.42
  589O :  5.39  139O :  5.38  202O :  5.37  343O :  5.29  118O :  5.14  361O :  5.01  265O :  4.98  481O :  4.98  604O :  4.94  544O :  4.93  637O :  4.80  100O :  4.66
  166O :  4.56  253O :  4.46  547O :  4.43  304O :  4.43  346O :  4.41  724O :  4.28   61O :  4.18  256O :  4.17  577O :  4.17  538O :  4.12   76O :  4.11  328O :  4.09
   16O :  4.07  718O :  4.02  340O :  3.96  706O :  3.95  511O :  3.93  310O :  3.89  235O :  3.85  529O :  3.83  373O :  3.83  220O :  3.75    4O :  3.61  646O :  3.57
  457O :  3.57  451O :  3.46  238O :  3.44  130O :  3.43  313O :  3.42  259O :  3.38  691O :  3.24   64O :  3.24  676O :  3.21  157O :  3.20  520O :  3.12  652O :  3.11
  196O :  3.09  379O :  3.08  580O :  3.04  655O :  2.97  178O :  2.96  748O :  2.93  619O :  2.92  280O :  2.91  628O :  2.88  586O :  2.88  109O :  2.88  385O :  2.79
  364O :  2.75  625O :  2.75  661O :  2.70  745O :  2.67  622O :  2.65  370O :  2.62   73O :  2.57   31O :  2.56  172O :  2.48  103O :  2.48  382O :  2.43  694O :  2.42
  250O :  2.42  730O :  2.41  679O :  2.40   43O :  2.30  283O :  2.25  448O :  2.23   37O :  2.21  205O :  2.19   13O :  2.17  163O :  2.16  554H :  2.14  556O :  2.09
  475O :  2.09  117H :  2.02  607O :  2.02   40O :  2.01  391O :  1.99   93H :  1.98  610O :  1.97  517O :  1.96  354H :  1.90  190O :  1.89  658O :  1.84  142O :  1.84
  508O :  1.84  703O :  1.82  445O :  1.75    7O :  1.75  499O :  1.74  454O :  1.71  682O :  1.71  123H :  1.70  301O :  1.69   27H :  1.69  550O :  1.68  388O :  1.64
  182H :  1.62  733O :  1.56  634O :  1.56  578H :  1.51  700O :  1.51  400O :  1.47  462H :  1.47  290H :  1.46  512H :  1.44   34O :  1.42  247O :  1.42  294H :  1.38
  505O :  1.34  169O :  1.30  268O :  1.30  317H :  1.27  584H :  1.24  439O :  1.23  685O :  1.19  438H :  1.18  167H :  1.18   46O :  1.12   99H :  1.12  193O :  1.11
  120H :  1.11   66H :  1.10   49O :  1.09   68H :  1.07   83H :  1.06   70O :  1.05  211O :  1.03  263H :  1.02  368H :  1.02  521H :  1.00  349O :  1.00  378H :  1.00
  234H :  0.99  690H :  0.99  531H :  0.97   42H :  0.95  649O :  0.95   44H :  0.95  230H :  0.93  640O :  0.92  613O :  0.91  133O :  0.87  526O :  0.87  239H :  0.87
  295O :  0.86  489H :  0.85  559O :  0.85  160O :  0.84   19O :  0.82  394O :  0.81  241O :  0.80   98H :  0.79  710H :  0.78  562O :  0.78   80H :  0.77  356H :  0.76
  643O :  0.73  666H :  0.73  525H :  0.72  398H :  0.72  737H :  0.71  494H :  0.70  325O :  0.69  145O :  0.68  483H :  0.68  416H :  0.68  591H :  0.67  183H :  0.67
  677H :  0.66  411H :  0.65   30H :  0.65  754O :  0.64  179H :  0.62  302H :  0.61  344H :  0.60  453H :  0.60   52O :  0.60  404H :  0.60  405H :  0.59  369H :  0.59
   75H :  0.59  180H :  0.58  307O :  0.58  563H :  0.58  565O :  0.58  164H :  0.57  175O :  0.57  417H :  0.57   24H :  0.56  480H :  0.56  722H :  0.56  472O :  0.55
   87H :  0.54  467H :  0.54   81H :  0.53  627H :  0.53  362H :  0.53  386H :  0.53   10O :  0.52  443H :  0.51  136O :  0.51  221H :  0.50  322O :  0.50  128H :  0.49
  704H :  0.49  435H :  0.49  282H :  0.48  359H :  0.48  533H :  0.48  377H :  0.47  335H :  0.47  458H :  0.47   72H :  0.47  605H :  0.46  413H :  0.46  297H :  0.45
  716H :  0.45  209H :  0.45  401H :  0.44   57H :  0.43  284H :  0.43  269H :  0.43   63H :  0.42  144H :  0.42  546H :  0.42  633H :  0.42  738H :  0.42   22O :  0.41
  245H :  0.41  656H :  0.40  502O :  0.40  495H :  0.40  408H :  0.40  381H :  0.40   60H :  0.39  341H :  0.39   69H :  0.39  663H :  0.38  188H :  0.38  450H :  0.38
  500H :  0.38  534H :  0.37  333H :  0.37  309H :  0.37   33H :  0.37  639H :  0.36  598O :  0.36  513H :  0.36  156H :  0.35  675H :  0.35  257H :  0.35  711H :  0.34
   39H :  0.34   89H :  0.34  595O :  0.34  537H :  0.33  278H :  0.33  476H :  0.33  407H :  0.33  236H :  0.32  176H :  0.32  353H :  0.32  393H :  0.32  744H :  0.31
  249H :  0.31  427O :  0.30  113H :  0.30  132H :  0.30  575H :  0.30  149H :  0.30  720H :  0.29  674H :  0.29  306H :  0.29  273H :  0.29  134H :  0.29  207H :  0.28
    9H :  0.28   71H :  0.28   29H :  0.27  680H :  0.27  647H :  0.27  741H :  0.27  363H :  0.26  392H :  0.26  471H :  0.26  654H :  0.26  414H :  0.26  119H :  0.26
  653H :  0.26  549H :  0.26  497H :  0.25  298O :  0.25  746H :  0.25  732H :  0.25  338H :  0.24  714H :  0.24  267H :  0.24  326H :  0.24  272H :  0.24  104H :  0.23
  116H :  0.23  110H :  0.23  726H :  0.22  522H :  0.22  542H :  0.21  611H :  0.21  279H :  0.21  315H :  0.21  638H :  0.21  755H :  0.21  185H :  0.21  422H :  0.21
  696H :  0.21  617H :  0.20  540H :  0.20  350H :  0.20  348H :  0.19  291H :  0.19  543H :  0.19  729H :  0.19  496O :  0.19  212H :  0.19  582H :  0.19  455H :  0.18
  324H :  0.18  194H :  0.18  484O :  0.18   78H :  0.18  631O :  0.18  561H :  0.18  648H :  0.18  609H :  0.18  274O :  0.17  281H :  0.17  641H :  0.17  707H :  0.16
   47H :  0.16  440H :  0.16  402H :  0.16  571O :  0.16  233H :  0.16  429H :  0.16  384H :  0.16  567H :  0.16   84H :  0.16  410H :  0.16  108H :  0.15  678H :  0.15
  327H :  0.15  155H :  0.15  246H :  0.15  665H :  0.15  170H :  0.15  231H :  0.15  518H :  0.15  588H :  0.14   51H :  0.14  752H :  0.14  713H :  0.14  312H :  0.14
  396H :  0.14   18H :  0.14  734H :  0.14  492H :  0.14  173H :  0.14  576H :  0.13  251H :  0.13  252H :  0.13  293H :  0.13   96H :  0.13   36H :  0.13  594H :  0.13
  266H :  0.13    2H :  0.12  557H :  0.12  477H :  0.12  204H :  0.12  657H :  0.12  717H :  0.12  143H :  0.11  140H :  0.11  602H :  0.11  681H :  0.11  159H :  0.11
  731H :  0.10  135H :  0.10  287H :  0.10  258H :  0.10  105H :  0.10  228H :  0.10  509H :  0.10  470H :  0.10  303H :  0.10  535O :  0.10  420H :  0.10  101H :  0.10
  606H :  0.09  747H :  0.09  126H :  0.09  486H :  0.09  371H :  0.09   17H :  0.09  468H :  0.09   90H :  0.09  551H :  0.09  740H :  0.09   77H :  0.09  552H :  0.09
  501H :  0.09  437H :  0.09  626H :  0.08  585H :  0.08  222H :  0.08  428H :  0.08   65H :  0.08  701H :  0.08   54H :  0.08  698H :  0.08  305H :  0.08   92H :  0.08
  198H :  0.07  299H :  0.07  150H :  0.07  210H :  0.07  636H :  0.07  137H :  0.07  750H :  0.07  242H :  0.07
    4 LP   *******   0.00  49.53214  -2.33534  40.80708    1O : 28.97   25O : 23.87   79O : 20.03  532O : 18.53  523O : 18.42  352O : 18.01   91O : 15.23  463O : 14.77  721O : 13.57  664O : 13.48  601O : 13.31  376O : 13.08
  232O : 13.05  715O : 12.36  316O : 12.15   97O : 12.06  442O : 12.05  208O : 11.85  337O : 11.72  406O : 11.43  184O : 11.26  460O : 11.15  199O : 10.64  277O : 10.57
  115O : 10.36  397O :  9.98  469O :  9.85  712O :  9.77  553O :  9.59   67O :  9.55  181O :  9.22  262O :  9.17  151O :  8.70  271O :  8.63  127O :  8.44  421O :  8.43
   94O :  8.37  727O :  8.34  226O :  8.28  112O :  8.24   85O :  8.24  286O :  8.23  292O :  8.22  478O :  7.90  514O :  7.88  358O :  7.86  424O :  7.79  667O :  7.79
  229O :  7.75  367O :  7.54  493O :  7.53  739O :  7.52   28O :  7.42  583O :  7.41  355O :  7.10  412O :  7.01  415O :  6.91   58O :  6.89   82O :  6.84  217O :  6.81
   55O :  6.63  742O :  6.47  568O :  6.42  409O :  6.40  709O :  6.34  244O :  6.33  223O :  6.24   88O :  6.22  289O :  6.22  541O :  6.20  736O :  6.14  433O :  6.13
  751O :  6.00  466O :  5.98  187O :  5.94  154O :  5.88  418O :  5.84  331O :  5.81  319O :  5.77  148O :  5.71  334O :  5.65  403O :  5.64  430O :  5.60  670O :  5.59
  106O :  5.59  487O :  5.54  121O :  5.47  673O :  5.45  592O :  5.40  490O :  5.36  214O :  5.34  436O :  5.32  616O :  5.30  574O :  5.29  697O :  5.17  688O :  5.16
  589O :  5.15  202O :  5.12  139O :  5.09  343O :  5.04  118O :  4.90  361O :  4.78  265O :  4.74  481O :  4.74  604O :  4.71  544O :  4.70  637O :  4.57  100O :  4.45
  166O :  4.36  253O :  4.25  547O :  4.22  304O :  4.22  346O :  4.20  724O :  4.08   61O :  3.98  577O :  3.97  256O :  3.95  538O :  3.92   76O :  3.91  328O :  3.90
   16O :  3.88  718O :  3.84  340O :  3.77  706O :  3.76  511O :  3.74  310O :  3.70  235O :  3.67  529O :  3.65  373O :  3.65  220O :  3.57    4O :  3.49  646O :  3.40
  457O :  3.40  451O :  3.30  238O :  3.28  130O :  3.27  313O :  3.26  259O :  3.22  691O :  3.09   64O :  3.08  676O :  3.06  157O :  3.05  520O :  2.98  652O :  2.97
  196O :  2.95  379O :  2.94  580O :  2.90  655O :  2.83  178O :  2.82  748O :  2.79  619O :  2.78  280O :  2.77  628O :  2.75  586O :  2.74  109O :  2.74  745O :  2.71
  385O :  2.66  364O :  2.62  625O :  2.62  661O :  2.58  622O :  2.54  370O :  2.50   73O :  2.45   31O :  2.44  172O :  2.36  103O :  2.34  382O :  2.31  694O :  2.31
  250O :  2.31  730O :  2.29  679O :  2.29   43O :  2.20  283O :  2.15  448O :  2.13   37O :  2.12  205O :  2.09   13O :  2.07  163O :  2.06  554H :  2.04  556O :  1.99
  475O :  1.99  117H :  1.93  607O :  1.93   40O :  1.91  391O :  1.90   93H :  1.89  610O :  1.88  517O :  1.87  354H :  1.81  190O :  1.80  658O :  1.75  142O :  1.75
  508O :  1.75  703O :  1.74  445O :  1.67    7O :  1.67  499O :  1.66  454O :  1.63  682O :  1.63  123H :  1.62  301O :  1.62  550O :  1.60  388O :  1.56  733O :  1.49
  634O :  1.49   27H :  1.49  578H :  1.44  700O :  1.43  400O :  1.41  462H :  1.40  290H :  1.40  512H :  1.37   34O :  1.36  247O :  1.35  294H :  1.31  505O :  1.28
  169O :  1.24  268O :  1.24  182H :  1.23  317H :  1.21  584H :  1.18  439O :  1.16  685O :  1.14  438H :  1.13  167H :  1.13   46O :  1.08   99H :  1.07  193O :  1.06
  120H :  1.06   66H :  1.05   49O :  1.04   83H :  1.02   68H :  1.02   70O :  1.00  211O :  0.98  263H :  0.98  368H :  0.97  521H :  0.96  349O :  0.95  378H :  0.95
  234H :  0.94  690H :  0.94  531H :  0.93   42H :  0.91  649O :  0.90   44H :  0.90  230H :  0.88  640O :  0.87  613O :  0.86   80H :  0.83  133O :  0.83  526O :  0.83
  239H :  0.83  295O :  0.82  489H :  0.81  559O :  0.81  160O :  0.80   19O :  0.78  394O :  0.78  241O :  0.76   98H :  0.75  710H :  0.74  562O :  0.74  356H :  0.72
  643O :  0.70  666H :  0.69  525H :  0.69  398H :  0.69  737H :  0.68  494H :  0.66  325O :  0.66  145O :  0.65  483H :  0.65  416H :  0.65  591H :  0.64  183H :  0.63
  677H :  0.63  411H :  0.62   30H :  0.62  754O :  0.61   81H :  0.59  179H :  0.59  302H :  0.58  344H :  0.58  453H :  0.57   52O :  0.57  404H :  0.57  405H :  0.57
  369H :  0.57   75H :  0.56  180H :  0.55  307O :  0.55  563H :  0.55  565O :  0.55  164H :  0.55  175O :  0.54  417H :  0.54   24H :  0.54  480H :  0.53  722H :  0.53
  472O :  0.52   87H :  0.52  467H :  0.51  627H :  0.51  362H :  0.50  386H :  0.50  443H :  0.49   10O :  0.49  136O :  0.49  221H :  0.48  322O :  0.47  128H :  0.47
  704H :  0.47  435H :  0.46  282H :  0.46  359H :  0.46  533H :  0.46  377H :  0.45  335H :  0.45  458H :  0.45   72H :  0.45  605H :  0.44  413H :  0.44  297H :  0.43
  716H :  0.43  209H :  0.43  401H :  0.42   57H :  0.41  284H :  0.41  269H :  0.41   63H :  0.40  144H :  0.40  546H :  0.40  633H :  0.40  738H :  0.40   22O :  0.39
  245H :  0.39  656H :  0.39  502O :  0.38  495H :  0.38  408H :  0.38  381H :  0.38   60H :  0.37  341H :  0.37   69H :  0.37  663H :  0.36  188H :  0.36  450H :  0.36
  500H :  0.36  534H :  0.36  333H :  0.35   33H :  0.35  309H :  0.35  639H :  0.35  598O :  0.35  513H :  0.35  156H :  0.34  675H :  0.33  711H :  0.33   39H :  0.32
   89H :  0.32  595O :  0.32  537H :  0.32  278H :  0.32  257H :  0.32  476H :  0.32  407H :  0.31  236H :  0.31  176H :  0.31  353H :  0.30  393H :  0.30  744H :  0.30
  249H :  0.29  427O :  0.29  113H :  0.29  132H :  0.29  575H :  0.28  149H :  0.28  720H :  0.28  674H :  0.28  306H :  0.28  273H :  0.27  134H :  0.27  207H :  0.27
    9H :  0.27   71H :  0.26   29H :  0.26  680H :  0.26  647H :  0.26  741H :  0.26  363H :  0.25  392H :  0.25  471H :  0.25  654H :  0.25  414H :  0.25  119H :  0.25
  653H :  0.24  746H :  0.24  549H :  0.24  497H :  0.24  298O :  0.24  732H :  0.24  338H :  0.23  714H :  0.23  267H :  0.23  326H :  0.23  272H :  0.23  116H :  0.22
  104H :  0.22  110H :  0.22  726H :  0.21  522H :  0.21  542H :  0.20  611H :  0.20  279H :  0.20  315H :  0.20  638H :  0.20  755H :  0.20  185H :  0.20  422H :  0.20
  696H :  0.20  617H :  0.20  540H :  0.19  350H :  0.19  348H :  0.18  291H :  0.18  543H :  0.18  729H :  0.18  496O :  0.18  212H :  0.18  582H :  0.18  455H :  0.18
  324H :  0.18  194H :  0.17  484O :  0.17   78H :  0.17  631O :  0.17  561H :  0.17  648H :  0.17  609H :  0.17  274O :  0.17  281H :  0.16  641H :  0.16  707H :  0.16
   84H :  0.16  440H :  0.16  402H :  0.16  747H :  0.15  233H :  0.15  429H :  0.15  384H :  0.15  567H :  0.15  410H :  0.15  571O :  0.15  108H :  0.15  678H :  0.15
  327H :  0.15  155H :  0.15  246H :  0.14  665H :  0.14   47H :  0.14  170H :  0.14  231H :  0.14  518H :  0.14  588H :  0.14   51H :  0.14  752H :  0.14  713H :  0.14
  312H :  0.14  396H :  0.14   18H :  0.13  734H :  0.13  492H :  0.13  173H :  0.13  576H :  0.13  251H :  0.13  252H :  0.12  293H :  0.12   96H :  0.12   36H :  0.12
  594H :  0.12  266H :  0.12    2H :  0.12  557H :  0.12  477H :  0.11  204H :  0.11  657H :  0.11  717H :  0.11  143H :  0.11  602H :  0.10  140H :  0.10  159H :  0.10
  681H :  0.10  731H :  0.10  258H :  0.10  105H :  0.10  135H :  0.10  287H :  0.10  228H :  0.10  509H :  0.10  470H :  0.09  303H :  0.09  535O :  0.09  420H :  0.09
  101H :  0.09  606H :  0.09  126H :  0.09  486H :  0.09  371H :  0.09   17H :  0.09  468H :  0.09   90H :  0.09  551H :  0.09  740H :  0.08   77H :  0.08  552H :  0.08
  501H :  0.08  437H :  0.08  626H :  0.08  585H :  0.08  222H :  0.08  428H :  0.08   65H :  0.08  701H :  0.08   54H :  0.07  698H :  0.07  305H :  0.07   92H :  0.07
  198H :  0.07  299H :  0.07  150H :  0.07
    5 LP   *******   0.00  87.81921  12.83597  42.22125    1O : 25.64  352O : 19.75   25O : 17.97   79O : 17.73  532O : 16.40  523O : 16.30   91O : 13.47  463O : 13.07  721O : 11.95  664O : 11.93  601O : 11.74  376O : 11.57
  232O : 11.55  715O : 10.94  316O : 10.76   97O : 10.67  442O : 10.52  208O : 10.49  337O : 10.37  406O : 10.12  184O :  9.96  460O :  9.86  199O :  9.42  277O :  9.35
  115O :  9.17  397O :  8.84  469O :  8.71  712O :  8.65  181O :  8.59  553O :  8.49   67O :  8.45  262O :  8.12  151O :  7.70  271O :  7.63  127O :  7.47  421O :  7.46
   94O :  7.40  727O :  7.38  226O :  7.33  112O :  7.30   85O :  7.29  286O :  7.28  292O :  7.27  478O :  6.99  514O :  6.98  358O :  6.95  424O :  6.90  667O :  6.89
  229O :  6.86  367O :  6.67  493O :  6.67  739O :  6.66   28O :  6.57  583O :  6.56  355O :  6.28  412O :  6.21  415O :  6.11   58O :  6.10  217O :  6.03   82O :  5.91
   55O :  5.87  742O :  5.72  568O :  5.68  409O :  5.66  709O :  5.61  244O :  5.60  223O :  5.52   88O :  5.50  289O :  5.50  541O :  5.48  736O :  5.43  433O :  5.42
  751O :  5.31  466O :  5.30  187O :  5.26  154O :  5.20  418O :  5.17  331O :  5.14  319O :  5.11  148O :  5.05  334O :  5.00  403O :  4.99  430O :  4.96  670O :  4.95
  106O :  4.95  487O :  4.91  121O :  4.84  673O :  4.83  592O :  4.78  490O :  4.78  214O :  4.73  436O :  4.71  574O :  4.68  697O :  4.57  688O :  4.57  589O :  4.54
  139O :  4.54  202O :  4.53  616O :  4.52  343O :  4.46  118O :  4.34  361O :  4.23  265O :  4.20  481O :  4.20  604O :  4.17  544O :  4.16  637O :  4.05  100O :  3.93
  166O :  3.86  253O :  3.76  547O :  3.74  304O :  3.73  346O :  3.72   61O :  3.52  577O :  3.51  256O :  3.50  538O :  3.47  724O :  3.47   76O :  3.46  328O :  3.45
   16O :  3.43  718O :  3.39  340O :  3.34  706O :  3.32  511O :  3.31  310O :  3.28  235O :  3.25  529O :  3.23  373O :  3.23  220O :  3.16    4O :  3.04  646O :  3.01
  457O :  3.01  451O :  2.92  238O :  2.90  130O :  2.89  313O :  2.89  259O :  2.85  691O :  2.74   64O :  2.72  676O :  2.71  157O :  2.70  520O :  2.63  652O :  2.63
  196O :  2.61  379O :  2.60  580O :  2.57  655O :  2.51  178O :  2.49  748O :  2.47  619O :  2.46  280O :  2.45  628O :  2.43  586O :  2.43  109O :  2.43  745O :  2.40
  385O :  2.35  625O :  2.32  364O :  2.32  661O :  2.28  622O :  2.24  370O :  2.21   73O :  2.16   31O :  2.16  172O :  2.09  103O :  2.09  382O :  2.05  694O :  2.04
  250O :  2.04  730O :  2.03  679O :  2.02   43O :  1.95  283O :  1.90  448O :  1.88   37O :  1.87  205O :  1.85   13O :  1.83  163O :  1.82  554H :  1.80  556O :  1.76
  475O :  1.76  607O :  1.71  117H :  1.71   40O :  1.69  391O :  1.68   93H :  1.67  610O :  1.66  517O :  1.65  190O :  1.60  658O :  1.55  142O :  1.55  508O :  1.55
  703O :  1.54  445O :  1.48  354H :  1.48    7O :  1.47  499O :  1.47  454O :  1.45  682O :  1.44  123H :  1.43  301O :  1.43   27H :  1.43  550O :  1.42  388O :  1.38
  182H :  1.36  733O :  1.32  634O :  1.32  578H :  1.27  700O :  1.27  400O :  1.24  462H :  1.24  290H :  1.23  512H :  1.22   34O :  1.20  247O :  1.20  294H :  1.16
  505O :  1.13  169O :  1.10  268O :  1.10  317H :  1.07  584H :  1.04  439O :  1.04  685O :  1.01  438H :  1.00  167H :  1.00   46O :  0.95   99H :  0.95  193O :  0.94
  120H :  0.94   66H :  0.93   49O :  0.92   68H :  0.90   83H :  0.89   70O :  0.88  211O :  0.87  263H :  0.86  368H :  0.86  521H :  0.85  349O :  0.84  378H :  0.84
  234H :  0.83  690H :  0.83  531H :  0.82   42H :  0.80  649O :  0.80   44H :  0.80  230H :  0.78  640O :  0.77  613O :  0.76   80H :  0.74  133O :  0.73  526O :  0.73
  239H :  0.73  295O :  0.72  489H :  0.72  559O :  0.71  394O :  0.71  160O :  0.71   19O :  0.69  241O :  0.68   98H :  0.66  710H :  0.66  562O :  0.65  356H :  0.64
  643O :  0.62  666H :  0.61  525H :  0.61  398H :  0.61  737H :  0.60  494H :  0.59  325O :  0.58  145O :  0.58  483H :  0.57  416H :  0.57  591H :  0.57  183H :  0.56
  677H :  0.55  411H :  0.55   30H :  0.55  754O :  0.54   81H :  0.53  179H :  0.52  302H :  0.51  344H :  0.51  453H :  0.51   52O :  0.51  404H :  0.50  405H :  0.50
  369H :  0.50   75H :  0.50  180H :  0.49  307O :  0.49  563H :  0.49  565O :  0.49  164H :  0.48  175O :  0.48  417H :  0.48   24H :  0.48  480H :  0.47  722H :  0.47
  472O :  0.46   87H :  0.46  467H :  0.45  627H :  0.45  362H :  0.45  386H :  0.45   10O :  0.43  136O :  0.43  221H :  0.43  322O :  0.42  128H :  0.42  704H :  0.41
  435H :  0.41  282H :  0.41  359H :  0.40  533H :  0.40  377H :  0.40  335H :  0.40  458H :  0.40   72H :  0.40  605H :  0.39  413H :  0.39  297H :  0.38  716H :  0.38
  209H :  0.38  401H :  0.37   57H :  0.36  284H :  0.36  269H :  0.36   63H :  0.36  144H :  0.36  633H :  0.36  546H :  0.36  738H :  0.35   22O :  0.34  245H :  0.34
  656H :  0.34  502O :  0.34  495H :  0.34  443H :  0.34  408H :  0.33  381H :  0.33   60H :  0.33  341H :  0.33   69H :  0.33  663H :  0.32  188H :  0.32  450H :  0.32
  500H :  0.32  534H :  0.31  333H :  0.31   33H :  0.31  309H :  0.31  639H :  0.31  598O :  0.31  513H :  0.31  156H :  0.30  675H :  0.29  711H :  0.29   39H :  0.29
   89H :  0.29  595O :  0.28  537H :  0.28  278H :  0.28  257H :  0.28  476H :  0.28  407H :  0.28  236H :  0.27  176H :  0.27  393H :  0.27  744H :  0.26  249H :  0.26
  427O :  0.25  113H :  0.25  132H :  0.25  575H :  0.25  149H :  0.25  720H :  0.25  674H :  0.24  306H :  0.24  273H :  0.24  134H :  0.24  207H :  0.24    9H :  0.24
   71H :  0.23   29H :  0.23  680H :  0.23  647H :  0.23  741H :  0.23  363H :  0.22  392H :  0.22  471H :  0.22  654H :  0.22  414H :  0.22  119H :  0.22  353H :  0.22
  653H :  0.22  746H :  0.22  549H :  0.22  298O :  0.21  732H :  0.21  497H :  0.21  338H :  0.20  714H :  0.20  267H :  0.20  326H :  0.20  272H :  0.20  104H :  0.20
  116H :  0.19  110H :  0.19  522H :  0.19  542H :  0.18  611H :  0.18  279H :  0.18  726H :  0.18  496O :  0.18  315H :  0.18  638H :  0.18  755H :  0.18  185H :  0.18
  422H :  0.17  696H :  0.17  540H :  0.17  350H :  0.17  348H :  0.16  291H :  0.16  543H :  0.16  729H :  0.16  212H :  0.16  582H :  0.16  455H :  0.16  324H :  0.16
  194H :  0.15  484O :  0.15  274O :  0.15  631O :  0.15   78H :  0.15  561H :  0.15  648H :  0.15  609H :  0.15  617H :  0.15  281H :  0.14  641H :  0.14  707H :  0.14
  440H :  0.14  402H :  0.14  747H :  0.14  396H :  0.14  233H :  0.13  429H :  0.13  384H :  0.13  567H :  0.13   84H :  0.13  410H :  0.13  571O :  0.13  108H :  0.13
  678H :  0.13  327H :  0.13  155H :  0.13  246H :  0.13  665H :  0.13   47H :  0.13  170H :  0.13  231H :  0.13  518H :  0.12  588H :  0.12   51H :  0.12  752H :  0.12
  713H :  0.12  312H :  0.12   18H :  0.12  734H :  0.12  492H :  0.12  173H :  0.12  576H :  0.11  251H :  0.11  252H :  0.11  293H :  0.11   96H :  0.11   36H :  0.11
  594H :  0.11  266H :  0.11    2H :  0.10  557H :  0.10  477H :  0.10  204H :  0.10  657H :  0.10  717H :  0.10  143H :  0.10  140H :  0.09  602H :  0.09  681H :  0.09
  159H :  0.09  258H :  0.09  731H :  0.09  135H :  0.09  287H :  0.09  105H :  0.09  228H :  0.09  509H :  0.08  470H :  0.08  303H :  0.08  535O :  0.08  420H :  0.08
  101H :  0.08  606H :  0.08  126H :  0.08  486H :  0.08  371H :  0.08   17H :  0.08  468H :  0.08   90H :  0.08  551H :  0.08  740H :  0.07   77H :  0.07  552H :  0.07
  501H :  0.07  437H :  0.07  626H :  0.07  585H :  0.07  222H :  0.07
    6 LP   *******   0.00 -59.02370  29.22987  16.70415    1O : 21.01   25O : 14.73   79O : 14.53  532O : 13.45  523O : 13.36   91O : 13.11  352O : 13.06  463O : 10.71  721O :  9.85  664O :  9.78  601O :  9.62  376O :  9.48
  232O :  9.46  715O :  8.97  316O :  8.82   97O :  8.75  442O :  8.74  208O :  8.60  337O :  8.50  406O :  8.29  184O :  8.16  460O :  8.09  199O :  7.72  277O :  7.66
  115O :  7.51  397O :  7.24  469O :  7.14  712O :  7.09  181O :  7.04  553O :  6.96   67O :  6.93  262O :  6.65  151O :  6.31  271O :  6.26  127O :  6.12  421O :  6.12
   94O :  6.07  727O :  6.05  226O :  6.01  112O :  5.98   85O :  5.98  286O :  5.97  292O :  5.96  478O :  5.73  514O :  5.72  358O :  5.70  667O :  5.66  424O :  5.65
  229O :  5.62  367O :  5.47  493O :  5.46  739O :  5.45   28O :  5.38  583O :  5.37  355O :  5.15  412O :  5.09  415O :  5.01   58O :  5.00  217O :  4.94   82O :  4.85
   55O :  4.81  742O :  4.69  568O :  4.66  409O :  4.62  709O :  4.60  244O :  4.59  223O :  4.52   88O :  4.51  289O :  4.51  541O :  4.49  736O :  4.45  433O :  4.44
  751O :  4.35  466O :  4.34  187O :  4.31  154O :  4.26  418O :  4.24  331O :  4.22  319O :  4.19  148O :  4.14  334O :  4.10  403O :  4.09  430O :  4.06  670O :  4.06
  106O :  4.06  487O :  4.02  121O :  3.97  673O :  3.95  592O :  3.92  490O :  3.92  214O :  3.88  436O :  3.86  616O :  3.84  574O :  3.84  697O :  3.75  688O :  3.74
  589O :  3.72  139O :  3.72  202O :  3.71  343O :  3.65  118O :  3.56  265O :  3.44  481O :  3.44  604O :  3.42  544O :  3.41  637O :  3.32  361O :  3.28  100O :  3.22
  166O :  3.16  253O :  3.08  547O :  3.06  304O :  3.06  346O :  3.04  724O :  2.96   61O :  2.89  577O :  2.88  256O :  2.86  538O :  2.85   76O :  2.84  328O :  2.83
   16O :  2.81  718O :  2.78  340O :  2.74  706O :  2.72  511O :  2.72  310O :  2.68  235O :  2.66  529O :  2.65  373O :  2.65  220O :  2.59    4O :  2.50  646O :  2.47
  457O :  2.46  451O :  2.39  130O :  2.37  313O :  2.36  259O :  2.34  238O :  2.33  691O :  2.24   64O :  2.23  676O :  2.22  157O :  2.21  520O :  2.16  652O :  2.15
  196O :  2.14  379O :  2.13  580O :  2.10  655O :  2.05  748O :  2.02  178O :  2.02  619O :  2.02  280O :  2.01  628O :  1.99  586O :  1.99  109O :  1.99  745O :  1.97
  385O :  1.93  364O :  1.90  625O :  1.90  661O :  1.87  622O :  1.84  370O :  1.81   73O :  1.77   31O :  1.77  172O :  1.71  103O :  1.71  382O :  1.68  694O :  1.67
  250O :  1.67  730O :  1.66  679O :  1.66   43O :  1.59  283O :  1.56  448O :  1.54   37O :  1.54  205O :  1.51   13O :  1.50  163O :  1.50  554H :  1.48  556O :  1.44
  475O :  1.44  117H :  1.40  607O :  1.40   40O :  1.39  391O :  1.38  610O :  1.36  517O :  1.36  354H :  1.31  190O :  1.31  142O :  1.27  658O :  1.27  508O :  1.27
  703O :  1.26   93H :  1.22  445O :  1.21    7O :  1.21  499O :  1.20  454O :  1.19  682O :  1.18  123H :  1.17  301O :  1.17   27H :  1.17  550O :  1.16  388O :  1.13
  182H :  1.12  733O :  1.08  634O :  1.08  578H :  1.04  700O :  1.04  400O :  1.02  462H :  1.01  290H :  1.01  512H :  1.00   34O :  0.98  247O :  0.98  294H :  0.95
  505O :  0.92  169O :  0.90  268O :  0.90  317H :  0.88  584H :  0.86  439O :  0.85  685O :  0.82  438H :  0.82  167H :  0.82   46O :  0.78   99H :  0.78  193O :  0.77
  120H :  0.77   66H :  0.76   49O :  0.75   68H :  0.74   83H :  0.73   70O :  0.72  211O :  0.71  263H :  0.71  368H :  0.70  521H :  0.69  349O :  0.69  378H :  0.69
  234H :  0.68  690H :  0.68  531H :  0.67   42H :  0.66  649O :  0.66   44H :  0.65  230H :  0.64  640O :  0.63  613O :  0.63   80H :  0.61  133O :  0.60  526O :  0.60
  295O :  0.59  239H :  0.59  489H :  0.59  559O :  0.58  160O :  0.58   19O :  0.57  394O :  0.56  241O :  0.55   98H :  0.54  710H :  0.54  562O :  0.54  356H :  0.53
  643O :  0.51  666H :  0.50  525H :  0.50  398H :  0.50  737H :  0.49  494H :  0.48  325O :  0.48  145O :  0.47  483H :  0.47  416H :  0.47  591H :  0.47  183H :  0.46
  677H :  0.45  411H :  0.45   30H :  0.45  754O :  0.44   81H :  0.43  302H :  0.42  344H :  0.42  179H :  0.42  453H :  0.42   52O :  0.42  404H :  0.41  405H :  0.41
  369H :  0.41   75H :  0.41  180H :  0.41  307O :  0.40  563H :  0.40  565O :  0.40  164H :  0.40  175O :  0.40  417H :  0.39   24H :  0.39  480H :  0.39  722H :  0.38
  472O :  0.38   87H :  0.38  467H :  0.37  627H :  0.37  386H :  0.37  362H :  0.36   10O :  0.36  443H :  0.36  136O :  0.35  221H :  0.35  322O :  0.34  128H :  0.34
  704H :  0.34  435H :  0.34  282H :  0.33  359H :  0.33  533H :  0.33  377H :  0.33  335H :  0.33  458H :  0.33   72H :  0.32  605H :  0.32  413H :  0.32  297H :  0.31
  716H :  0.31  209H :  0.31  401H :  0.30   57H :  0.30  284H :  0.30  269H :  0.30   63H :  0.29  144H :  0.29  633H :  0.29  546H :  0.29  738H :  0.29   22O :  0.28
  245H :  0.28  656H :  0.28  502O :  0.28  495H :  0.27  408H :  0.27  381H :  0.27   60H :  0.27  341H :  0.27   69H :  0.27  663H :  0.26  188H :  0.26  450H :  0.26
  500H :  0.26  534H :  0.26  333H :  0.26   33H :  0.25  309H :  0.25  639H :  0.25  598O :  0.25  513H :  0.25  156H :  0.24  675H :  0.24  711H :  0.24   39H :  0.24
   89H :  0.23  595O :  0.23  537H :  0.23  278H :  0.23  257H :  0.23  476H :  0.23  407H :  0.23  236H :  0.22  176H :  0.22  353H :  0.22  393H :  0.22  744H :  0.21
  249H :  0.21  427O :  0.21  113H :  0.21  132H :  0.21  575H :  0.21  149H :  0.20  720H :  0.20  674H :  0.20  306H :  0.20  134H :  0.20  273H :  0.20  207H :  0.20
    9H :  0.19   71H :  0.19   29H :  0.19  680H :  0.19  647H :  0.19  741H :  0.18  392H :  0.18  471H :  0.18  654H :  0.18  414H :  0.18  119H :  0.18  653H :  0.18
  746H :  0.18  549H :  0.18  497H :  0.17  298O :  0.17  732H :  0.17  338H :  0.17  714H :  0.17  267H :  0.17  326H :  0.17  272H :  0.16  104H :  0.16  116H :  0.16
  110H :  0.16  726H :  0.15  522H :  0.15  542H :  0.15  611H :  0.15  279H :  0.15  315H :  0.15  638H :  0.15  755H :  0.15  185H :  0.14  422H :  0.14  696H :  0.14
  617H :  0.14  540H :  0.14  350H :  0.14  348H :  0.13  291H :  0.13  543H :  0.13  729H :  0.13  496O :  0.13  212H :  0.13  582H :  0.13  455H :  0.13  324H :  0.13
  194H :  0.13  484O :  0.13  631O :  0.13   78H :  0.13  561H :  0.12  648H :  0.12  609H :  0.12  274O :  0.12  281H :  0.12  641H :  0.11  707H :  0.11  440H :  0.11
  402H :  0.11  747H :  0.11  233H :  0.11  429H :  0.11  384H :  0.11  567H :  0.11   84H :  0.11  410H :  0.11  571O :  0.11  108H :  0.11  678H :  0.11  327H :  0.11
  246H :  0.11  155H :  0.11  665H :  0.10   47H :  0.10  170H :  0.10  231H :  0.10  518H :  0.10  588H :  0.10   51H :  0.10  752H :  0.10  713H :  0.10  396H :  0.10
  363H :  0.10   18H :  0.10  734H :  0.10  492H :  0.09  173H :  0.09  576H :  0.09  312H :  0.09  251H :  0.09  252H :  0.09  293H :  0.09   96H :  0.09   36H :  0.09
  594H :  0.09  266H :  0.09    2H :  0.08  557H :  0.08  477H :  0.08  204H :  0.08  657H :  0.08  717H :  0.08  143H :  0.08   92H :  0.08  140H :  0.07  602H :  0.07
  681H :  0.07  159H :  0.07  731H :  0.07  258H :  0.07  135H :  0.07  287H :  0.07
    7 LP   *******   0.00  -7.94957 -12.94237  -8.13983    1O : 22.11   25O : 14.62   79O : 14.42  532O : 13.34  523O : 13.26  352O : 12.97   91O : 10.96  463O : 10.63  721O :  9.77  664O :  9.71  601O :  9.55  376O :  9.41
  232O :  9.39  715O :  8.90  316O :  8.75   97O :  8.68  442O :  8.68  208O :  8.54  337O :  8.44  406O :  8.23  184O :  8.11  460O :  8.03  199O :  7.66  277O :  7.61
  115O :  7.46  397O :  7.19  469O :  7.09  712O :  7.04  181O :  6.99  553O :  6.90   67O :  6.88  262O :  6.60  151O :  6.27  271O :  6.21  127O :  6.08  421O :  6.07
   94O :  6.02  727O :  6.00  226O :  5.98  112O :  5.94   85O :  5.93  286O :  5.92  292O :  5.92  478O :  5.69  514O :  5.67  358O :  5.66  424O :  5.61  667O :  5.61
  229O :  5.58  367O :  5.43  493O :  5.42  739O :  5.41   28O :  5.34  583O :  5.33  355O :  5.11  412O :  5.05  415O :  4.97   58O :  4.96  217O :  4.91   82O :  4.81
   55O :  4.77  568O :  4.62  409O :  4.61  742O :  4.60  709O :  4.57  244O :  4.56  223O :  4.49   88O :  4.48  289O :  4.48  541O :  4.46  736O :  4.42  433O :  4.41
  751O :  4.32  466O :  4.31  187O :  4.28  154O :  4.23  418O :  4.21  331O :  4.19  319O :  4.16  148O :  4.11  334O :  4.07  403O :  4.06  430O :  4.03  670O :  4.03
  106O :  4.03  487O :  3.99  121O :  3.94  673O :  3.93  592O :  3.89  490O :  3.89  214O :  3.85  436O :  3.83  616O :  3.81  574O :  3.81  697O :  3.72  688O :  3.72
  589O :  3.70  139O :  3.69  202O :  3.68  343O :  3.63  118O :  3.53  361O :  3.44  481O :  3.41  265O :  3.41  604O :  3.39  544O :  3.38  637O :  3.29  100O :  3.20
  166O :  3.14  253O :  3.06  547O :  3.04  304O :  3.04  346O :  3.02  724O :  2.94   61O :  2.87  577O :  2.86  256O :  2.84  538O :  2.82   76O :  2.82  328O :  2.81
   16O :  2.79  718O :  2.76  706O :  2.70  511O :  2.70  310O :  2.67  340O :  2.66  235O :  2.64  529O :  2.63  373O :  2.63  220O :  2.57    4O :  2.48  646O :  2.45
  457O :  2.44  451O :  2.38  238O :  2.36  130O :  2.35  313O :  2.35  259O :  2.32  691O :  2.23   64O :  2.22  676O :  2.21  157O :  2.19  520O :  2.14  652O :  2.14
  196O :  2.12  379O :  2.12  580O :  2.09  655O :  2.04  178O :  2.03  748O :  2.01  619O :  2.00  280O :  2.00  586O :  1.98  109O :  1.97  745O :  1.95  385O :  1.91
  364O :  1.89  625O :  1.89  661O :  1.86  622O :  1.82  628O :  1.80  370O :  1.80   73O :  1.76   31O :  1.76  172O :  1.70  103O :  1.70  382O :  1.66  694O :  1.66
  250O :  1.66  730O :  1.65  679O :  1.65   43O :  1.58  283O :  1.55  448O :  1.53   37O :  1.52  205O :  1.50   13O :  1.49  163O :  1.48  554H :  1.47  556O :  1.43
  475O :  1.43  117H :  1.39  607O :  1.39   40O :  1.38  391O :  1.37   93H :  1.36  610O :  1.35  517O :  1.35  354H :  1.30  190O :  1.30  658O :  1.26  142O :  1.26
  508O :  1.26  703O :  1.25  445O :  1.20    7O :  1.20  499O :  1.19  454O :  1.18  682O :  1.17  123H :  1.16  301O :  1.16   27H :  1.16  550O :  1.15  388O :  1.12
  182H :  1.11  733O :  1.07  634O :  1.07  578H :  1.04  700O :  1.03  400O :  1.01  462H :  1.01  290H :  1.00  512H :  0.99   34O :  0.98  247O :  0.97  294H :  0.94
  505O :  0.92  169O :  0.89  268O :  0.89  317H :  0.87  584H :  0.85  439O :  0.84  685O :  0.82  438H :  0.81  167H :  0.81   46O :  0.78   99H :  0.77  193O :  0.76
  120H :  0.76   66H :  0.76   49O :  0.75   68H :  0.73   83H :  0.73   70O :  0.72  211O :  0.71  263H :  0.70  368H :  0.70  349O :  0.69  521H :  0.69  378H :  0.68
  234H :  0.68  690H :  0.68  531H :  0.67   42H :  0.65  649O :  0.65   44H :  0.65  230H :  0.64  640O :  0.63  613O :  0.62   80H :  0.60  133O :  0.60  526O :  0.60
  239H :  0.60  295O :  0.59  489H :  0.58  559O :  0.58  160O :  0.58   19O :  0.56  394O :  0.56  241O :  0.55   98H :  0.54  710H :  0.53  562O :  0.53  356H :  0.52
  666H :  0.51  643O :  0.50  525H :  0.50  398H :  0.50  737H :  0.49  494H :  0.48  325O :  0.47  145O :  0.47  483H :  0.47  416H :  0.47  591H :  0.46  183H :  0.46
  677H :  0.45  411H :  0.45   30H :  0.45  754O :  0.44   81H :  0.43  179H :  0.42  302H :  0.42  344H :  0.41  453H :  0.41   52O :  0.41  404H :  0.41  405H :  0.41
  369H :  0.41   75H :  0.41  180H :  0.40  307O :  0.40  563H :  0.40  565O :  0.40  164H :  0.39  175O :  0.39  417H :  0.39   24H :  0.39  480H :  0.38  722H :  0.38
  472O :  0.37   87H :  0.37  467H :  0.37  627H :  0.36  362H :  0.36  386H :  0.36   10O :  0.35  443H :  0.35  136O :  0.35  221H :  0.35  322O :  0.34  128H :  0.34
  704H :  0.34  435H :  0.33  282H :  0.33  359H :  0.33  533H :  0.33  377H :  0.33  335H :  0.33  458H :  0.32   72H :  0.32  605H :  0.32  413H :  0.32  297H :  0.31
  716H :  0.31  209H :  0.31  401H :  0.30   57H :  0.30  284H :  0.29  269H :  0.29   63H :  0.29  144H :  0.29  633H :  0.29  546H :  0.29  738H :  0.29  245H :  0.28
   22O :  0.28  656H :  0.28  502O :  0.27  495H :  0.27  408H :  0.27  381H :  0.27   60H :  0.27  341H :  0.27   69H :  0.27  663H :  0.26  188H :  0.26  450H :  0.26
  500H :  0.26  534H :  0.26  333H :  0.25   33H :  0.25  309H :  0.25  639H :  0.25  598O :  0.25  513H :  0.25  156H :  0.24  675H :  0.24  711H :  0.23   39H :  0.23
   89H :  0.23  595O :  0.23  537H :  0.23  278H :  0.23  257H :  0.23  476H :  0.23  407H :  0.23  236H :  0.22  176H :  0.22  353H :  0.22  393H :  0.22  249H :  0.21
  744H :  0.21  427O :  0.21  113H :  0.21  132H :  0.21  575H :  0.20  149H :  0.20  720H :  0.20  674H :  0.20  306H :  0.20  134H :  0.20  273H :  0.20  207H :  0.19
    9H :  0.19   71H :  0.19   29H :  0.19  680H :  0.19  647H :  0.19  741H :  0.18  363H :  0.18  392H :  0.18  471H :  0.18  654H :  0.18  414H :  0.18  119H :  0.18
  653H :  0.18  746H :  0.18  549H :  0.18  497H :  0.17  298O :  0.17  732H :  0.17  338H :  0.17  714H :  0.17  267H :  0.17  326H :  0.17  272H :  0.16  104H :  0.16
  116H :  0.16  110H :  0.16  726H :  0.15  522H :  0.15  542H :  0.15  611H :  0.15  279H :  0.15  315H :  0.15  638H :  0.14  755H :  0.14  185H :  0.14  422H :  0.14
  696H :  0.14  617H :  0.14  540H :  0.14  350H :  0.14  348H :  0.13  291H :  0.13  543H :  0.13  729H :  0.13  496O :  0.13  212H :  0.13  582H :  0.13  455H :  0.13
  324H :  0.13  194H :  0.13  484O :  0.13  631O :  0.12   78H :  0.12  561H :  0.12  648H :  0.12  609H :  0.12  274O :  0.12    2H :  0.12  281H :  0.12  641H :  0.11
  707H :  0.11  440H :  0.11  402H :  0.11  747H :  0.11  233H :  0.11  429H :  0.11  384H :  0.11  567H :  0.11   84H :  0.11  410H :  0.11  571O :  0.11  108H :  0.11
  678H :  0.11  327H :  0.10  155H :  0.10  246H :  0.10   47H :  0.10  170H :  0.10  231H :  0.10  665H :  0.10  518H :  0.10  588H :  0.10   51H :  0.10  752H :  0.10
  713H :  0.10  312H :  0.10  396H :  0.10   18H :  0.10  734H :  0.10  492H :  0.09  173H :  0.09  576H :  0.09  251H :  0.09  252H :  0.09  293H :  0.09   96H :  0.09
   36H :  0.09  594H :  0.09  266H :  0.09  557H :  0.08  477H :  0.08  204H :  0.08  657H :  0.08  717H :  0.08  143H :  0.08  140H :  0.07  602H :  0.07  681H :  0.07
  159H :  0.07  731H :  0.07  258H :  0.07
    8 LP   *******   0.00  18.46034  50.98921  22.38557    1O : 20.69   25O : 14.50   79O : 14.31  532O : 13.24  523O : 13.15  352O : 12.86  715O : 11.53   91O : 10.87  463O : 10.55  721O :  9.69  664O :  9.63  601O :  9.47
  376O :  9.37  232O :  9.30  316O :  8.68   97O :  8.63  442O :  8.61  208O :  8.46  337O :  8.37  406O :  8.16  184O :  8.04  460O :  7.96  199O :  7.60  277O :  7.58
  115O :  7.39  397O :  7.13  469O :  7.04  712O :  6.97  181O :  6.94  553O :  6.85   67O :  6.82  262O :  6.55  151O :  6.21  271O :  6.16  127O :  6.03  421O :  6.02
   94O :  5.98  727O :  5.95  226O :  5.91  112O :  5.89   85O :  5.88  286O :  5.87  292O :  5.87  478O :  5.64  514O :  5.63  229O :  5.63  358O :  5.61  424O :  5.57
  667O :  5.56  367O :  5.39  493O :  5.38  739O :  5.37  583O :  5.29   28O :  5.25  355O :  5.07  412O :  5.01  415O :  4.93   58O :  4.91  217O :  4.81   82O :  4.77
   55O :  4.74  742O :  4.62  568O :  4.59  409O :  4.57  709O :  4.53  244O :  4.52  223O :  4.46   88O :  4.44  289O :  4.44  541O :  4.43  736O :  4.38  319O :  4.38
  433O :  4.37  751O :  4.28  466O :  4.27  187O :  4.24  154O :  4.23  418O :  4.17  331O :  4.15  148O :  4.08  334O :  4.04  403O :  4.03  430O :  4.00  106O :  4.00
  670O :  4.00  487O :  3.96  121O :  3.91  673O :  3.89  490O :  3.86  592O :  3.85  214O :  3.82  436O :  3.80  616O :  3.78  574O :  3.77  697O :  3.69  688O :  3.69
  589O :  3.67  139O :  3.66  202O :  3.66  343O :  3.60  118O :  3.50  361O :  3.41  265O :  3.39  481O :  3.39  604O :  3.37  544O :  3.36  637O :  3.26  100O :  3.17
  166O :  3.12  253O :  3.03  547O :  3.02  304O :  3.01  346O :  3.00  724O :  2.91   61O :  2.84  577O :  2.84  256O :  2.82  538O :  2.80   76O :  2.80  328O :  2.78
   16O :  2.77  340O :  2.69  706O :  2.68  718O :  2.67  511O :  2.66  310O :  2.64  235O :  2.62  529O :  2.61  373O :  2.61  220O :  2.55    4O :  2.46  646O :  2.43
  457O :  2.43  451O :  2.36  238O :  2.34  130O :  2.34  313O :  2.33  259O :  2.30  691O :  2.21   64O :  2.20  676O :  2.19  157O :  2.18  520O :  2.13  652O :  2.12
  196O :  2.11  379O :  2.10  580O :  2.07  655O :  2.02  178O :  2.01  748O :  1.99  619O :  1.99  280O :  1.98  109O :  1.97  628O :  1.96  586O :  1.96  745O :  1.94
  385O :  1.90  364O :  1.88  625O :  1.87  661O :  1.84  622O :  1.81  370O :  1.78   73O :  1.75   31O :  1.75  172O :  1.69  103O :  1.69  382O :  1.65  694O :  1.65
  250O :  1.65  730O :  1.64  679O :  1.63   43O :  1.57  283O :  1.53  448O :  1.52   37O :  1.51  205O :  1.49   13O :  1.48  163O :  1.47  554H :  1.46  556O :  1.42
  475O :  1.42   40O :  1.41  607O :  1.38  117H :  1.38  391O :  1.35   93H :  1.35  610O :  1.34  517O :  1.34  354H :  1.29  190O :  1.29  508O :  1.27  658O :  1.25
  142O :  1.25  703O :  1.24  445O :  1.19    7O :  1.19  499O :  1.19  454O :  1.17  682O :  1.16  123H :  1.15  301O :  1.15   27H :  1.15  550O :  1.14  388O :  1.11
  182H :  1.10  634O :  1.06  733O :  1.06  578H :  1.03  700O :  1.02  400O :  1.00  462H :  1.00  290H :  1.00  512H :  0.98   34O :  0.97  247O :  0.97  294H :  0.94
  505O :  0.91  169O :  0.89  268O :  0.89  317H :  0.87  584H :  0.84  439O :  0.84  685O :  0.81  438H :  0.81  167H :  0.80   46O :  0.77   99H :  0.76  193O :  0.76
  120H :  0.76   66H :  0.75   49O :  0.74   68H :  0.73   83H :  0.72   70O :  0.71  211O :  0.70  263H :  0.70  368H :  0.69  521H :  0.68  349O :  0.68  378H :  0.68
  234H :  0.67  690H :  0.67  531H :  0.66   42H :  0.65  649O :  0.64   44H :  0.64  230H :  0.64  640O :  0.62  613O :  0.62   80H :  0.60  133O :  0.59  526O :  0.59
  239H :  0.59  295O :  0.59  489H :  0.58  559O :  0.58  160O :  0.57   19O :  0.56  394O :  0.55  241O :  0.54   98H :  0.54  710H :  0.53  562O :  0.53  356H :  0.52
  643O :  0.50  666H :  0.50  525H :  0.49  398H :  0.49  737H :  0.49  494H :  0.47  325O :  0.47  145O :  0.47  483H :  0.46  416H :  0.46  591H :  0.46   30H :  0.46
  183H :  0.46  677H :  0.45  411H :  0.44  754O :  0.44   81H :  0.42  179H :  0.42  302H :  0.41  344H :  0.41  453H :  0.41   52O :  0.41  404H :  0.41  405H :  0.40
  369H :  0.40   75H :  0.40  180H :  0.40  307O :  0.40  563H :  0.39  565O :  0.39  164H :  0.39  175O :  0.39  417H :  0.38   24H :  0.38  480H :  0.38  722H :  0.38
  472O :  0.37   87H :  0.37  467H :  0.36  386H :  0.36  627H :  0.36  362H :  0.36   10O :  0.35  443H :  0.35  136O :  0.35  221H :  0.34  322O :  0.34  128H :  0.34
  704H :  0.33  435H :  0.33  282H :  0.33  359H :  0.33  533H :  0.32  335H :  0.32  458H :  0.32   72H :  0.32  605H :  0.32  413H :  0.31  297H :  0.31  209H :  0.31
  377H :  0.31  401H :  0.30   57H :  0.29  284H :  0.29  269H :  0.29   63H :  0.29  144H :  0.29  633H :  0.29  546H :  0.29  738H :  0.28   22O :  0.28  245H :  0.28
  656H :  0.28  502O :  0.27  495H :  0.27  408H :  0.27  381H :  0.27   60H :  0.27  341H :  0.27   69H :  0.26  663H :  0.26  188H :  0.26  450H :  0.26  500H :  0.26
  534H :  0.25  333H :  0.25   33H :  0.25  309H :  0.25  639H :  0.25  598O :  0.25  513H :  0.25  716H :  0.24  156H :  0.24  675H :  0.24  711H :  0.23   39H :  0.23
   89H :  0.23  595O :  0.23  278H :  0.23  537H :  0.23  257H :  0.23  476H :  0.23  407H :  0.22  236H :  0.22  176H :  0.22  353H :  0.22  393H :  0.22  744H :  0.21
  249H :  0.21  427O :  0.20  113H :  0.20  132H :  0.20  575H :  0.20  149H :  0.20  674H :  0.20  306H :  0.20  134H :  0.20  273H :  0.20  720H :  0.19  207H :  0.19
    9H :  0.19   71H :  0.19   29H :  0.19  680H :  0.18  647H :  0.18  741H :  0.18  363H :  0.18  392H :  0.18  471H :  0.18  654H :  0.18  414H :  0.18  119H :  0.18
  653H :  0.17  746H :  0.17  549H :  0.17  497H :  0.17  298O :  0.17  732H :  0.17  338H :  0.16  714H :  0.16  267H :  0.16  326H :  0.16  110H :  0.16  272H :  0.16
  104H :  0.16  116H :  0.16  726H :  0.15  522H :  0.15  542H :  0.15  611H :  0.15  279H :  0.15  315H :  0.14  638H :  0.14  755H :  0.14  185H :  0.14  422H :  0.14
  696H :  0.14  617H :  0.14  540H :  0.14  350H :  0.13  348H :  0.13  291H :  0.13  543H :  0.13  729H :  0.13  496O :  0.13  212H :  0.13  582H :  0.13  455H :  0.13
  324H :  0.13  194H :  0.12  484O :  0.12  631O :  0.12   78H :  0.12  561H :  0.12  648H :  0.12  609H :  0.12  274O :  0.12  281H :  0.12  641H :  0.11  707H :  0.11
  440H :  0.11  402H :  0.11  747H :  0.11  233H :  0.11  429H :  0.11  384H :  0.11  567H :  0.11   84H :  0.11  410H :  0.11  571O :  0.11  108H :  0.10  678H :  0.10
  327H :  0.10  155H :  0.10  231H :  0.10  246H :  0.10  665H :  0.10   47H :  0.10  170H :  0.10  518H :  0.10  588H :  0.10   51H :  0.10  752H :  0.10  713H :  0.10
  312H :  0.10  396H :  0.10   18H :  0.10  734H :  0.09  492H :  0.09  173H :  0.09  576H :  0.09  251H :  0.09  252H :  0.09  293H :  0.09   96H :  0.09   36H :  0.09
  594H :  0.09  266H :  0.09    2H :  0.08  557H :  0.08  477H :  0.08  204H :  0.08  657H :  0.08  143H :  0.08  140H :  0.07  602H :  0.07  159H :  0.07  681H :  0.07
  258H :  0.07  731H :  0.07
    9 LP   *******   0.00  16.58548  24.45318 -29.41949    1O : 19.65   25O : 13.77   79O : 13.60  532O : 12.57  523O : 12.49  352O : 12.21   91O : 10.32  208O : 10.08  463O : 10.02  721O :  9.21  664O :  9.14  601O :  9.00
  376O :  8.87  232O :  8.85  715O :  8.38  316O :  8.24   97O :  8.18  442O :  8.17  337O :  7.95  406O :  7.75  184O :  7.63  460O :  7.56  199O :  7.22  277O :  7.16
  115O :  7.02  397O :  6.77  469O :  6.68  712O :  6.63  181O :  6.59  553O :  6.50   67O :  6.48  262O :  6.22  151O :  5.90  271O :  5.85  127O :  5.73  421O :  5.72
   94O :  5.67  727O :  5.65  226O :  5.62  112O :  5.59   85O :  5.59  286O :  5.58  292O :  5.57  478O :  5.35  514O :  5.34  358O :  5.33  424O :  5.28  667O :  5.28
  229O :  5.26  367O :  5.11  493O :  5.11  739O :  5.10   28O :  5.03  583O :  5.02  355O :  4.82  412O :  4.76  415O :  4.68   58O :  4.67  217O :  4.62   82O :  4.53
   55O :  4.49  742O :  4.40  568O :  4.35  409O :  4.34  709O :  4.30  244O :  4.29  223O :  4.23   88O :  4.22  289O :  4.22  541O :  4.20  736O :  4.16  433O :  4.15
  751O :  4.07  466O :  4.06  187O :  4.02  154O :  3.99  418O :  3.96  331O :  3.94  319O :  3.91  148O :  3.87  334O :  3.83  403O :  3.82  430O :  3.80  670O :  3.79
  106O :  3.79  487O :  3.76  673O :  3.70  121O :  3.70  592O :  3.66  490O :  3.66  436O :  3.61  616O :  3.59  574O :  3.59  214O :  3.57  697O :  3.50  688O :  3.50
  589O :  3.48  139O :  3.48  202O :  3.47  343O :  3.42  118O :  3.32  361O :  3.24  481O :  3.22  265O :  3.22  604O :  3.20  544O :  3.19  637O :  3.10  100O :  3.01
  166O :  2.96  253O :  2.88  547O :  2.86  304O :  2.86  346O :  2.85  724O :  2.76   61O :  2.70  577O :  2.69  256O :  2.68  538O :  2.66   76O :  2.65  328O :  2.64
   16O :  2.63  718O :  2.60  340O :  2.56  706O :  2.55  511O :  2.54  310O :  2.51  235O :  2.49  529O :  2.48  373O :  2.47  220O :  2.42    4O :  2.33  646O :  2.31
  457O :  2.30  451O :  2.24  238O :  2.22  130O :  2.22  313O :  2.21  259O :  2.21  691O :  2.10   64O :  2.09  676O :  2.08  157O :  2.07  520O :  2.02  652O :  2.01
  196O :  2.00  379O :  1.99  580O :  1.97  655O :  1.92  178O :  1.91  748O :  1.89  619O :  1.89  280O :  1.88  628O :  1.86  586O :  1.86  109O :  1.86  745O :  1.85
  385O :  1.80  364O :  1.78  625O :  1.78  661O :  1.75  622O :  1.72  370O :  1.69   73O :  1.66   31O :  1.66  172O :  1.60  103O :  1.60  382O :  1.57  694O :  1.57
  250O :  1.56  730O :  1.55  679O :  1.55   43O :  1.49  283O :  1.46  448O :  1.44   37O :  1.44  205O :  1.42   13O :  1.40  163O :  1.40  554H :  1.38  556O :  1.35
  475O :  1.35  117H :  1.31  607O :  1.31   40O :  1.30  391O :  1.29   93H :  1.28  610O :  1.27  517O :  1.27  354H :  1.23  190O :  1.22  658O :  1.19  142O :  1.19
  508O :  1.19  703O :  1.18  445O :  1.13    7O :  1.13  499O :  1.13  454O :  1.11  682O :  1.10  123H :  1.10  301O :  1.10   27H :  1.09  550O :  1.09  388O :  1.06
  182H :  1.04  733O :  1.01  634O :  1.01  578H :  0.97  700O :  0.97  400O :  0.95  462H :  0.95  290H :  0.95  512H :  0.93   34O :  0.92  247O :  0.92  294H :  0.89
  505O :  0.86  169O :  0.84  268O :  0.84  317H :  0.82  584H :  0.80  439O :  0.79  685O :  0.77  438H :  0.77  167H :  0.76   46O :  0.73   99H :  0.73  193O :  0.72
  120H :  0.72   66H :  0.71   49O :  0.70   68H :  0.69   83H :  0.68   70O :  0.68  263H :  0.66  368H :  0.66  211O :  0.66  521H :  0.65  349O :  0.65  378H :  0.64
  234H :  0.64  690H :  0.64  531H :  0.63   42H :  0.62  649O :  0.61   44H :  0.61  230H :  0.60  640O :  0.59  613O :  0.59   80H :  0.57  133O :  0.56  526O :  0.56
  239H :  0.56  295O :  0.56  489H :  0.55  559O :  0.55  160O :  0.54   19O :  0.53  394O :  0.53  241O :  0.52   98H :  0.51  710H :  0.50  562O :  0.50  356H :  0.49
  643O :  0.47  666H :  0.47  525H :  0.47  398H :  0.47  737H :  0.46  494H :  0.45  325O :  0.45  145O :  0.44  483H :  0.44  416H :  0.44  591H :  0.43  183H :  0.43
  677H :  0.42  411H :  0.42   30H :  0.42  754O :  0.41   81H :  0.40  179H :  0.40  302H :  0.39  344H :  0.39  453H :  0.39   52O :  0.39  404H :  0.39  405H :  0.38
  369H :  0.38   75H :  0.38  180H :  0.38  307O :  0.38  563H :  0.37  565O :  0.37  164H :  0.37  175O :  0.37  417H :  0.37   24H :  0.36  480H :  0.36  722H :  0.36
  472O :  0.35   87H :  0.35  467H :  0.35  627H :  0.34  362H :  0.34  386H :  0.34   10O :  0.33  443H :  0.33  136O :  0.33  221H :  0.33  322O :  0.32  128H :  0.32
  704H :  0.32  435H :  0.32  282H :  0.31  359H :  0.31  533H :  0.31  377H :  0.31  335H :  0.31  458H :  0.30   72H :  0.30  605H :  0.30  413H :  0.30  297H :  0.29
  716H :  0.29  401H :  0.28   57H :  0.28  284H :  0.28  269H :  0.28   63H :  0.27  144H :  0.27  633H :  0.27  546H :  0.27  746H :  0.27  738H :  0.27  245H :  0.26
   22O :  0.26  656H :  0.26  502O :  0.26  495H :  0.26  408H :  0.26  381H :  0.26   60H :  0.25  341H :  0.25   69H :  0.25  663H :  0.25  188H :  0.25  450H :  0.25
  500H :  0.24  534H :  0.24  333H :  0.24   33H :  0.24  309H :  0.24  639H :  0.24  598O :  0.23  513H :  0.23  156H :  0.23  675H :  0.23  209H :  0.23  711H :  0.22
   39H :  0.22   89H :  0.22  257H :  0.22  595O :  0.22  537H :  0.22  278H :  0.22  476H :  0.22  407H :  0.21  236H :  0.21  176H :  0.21  353H :  0.21  393H :  0.20
  744H :  0.20  249H :  0.20  427O :  0.19  113H :  0.19  132H :  0.19  575H :  0.19  149H :  0.19  720H :  0.19  674H :  0.19  306H :  0.19  134H :  0.19  273H :  0.19
  207H :  0.18    9H :  0.18   29H :  0.18   71H :  0.18  680H :  0.18  647H :  0.17  741H :  0.17  363H :  0.17  392H :  0.17  471H :  0.17  654H :  0.17  414H :  0.17
[...]
   370   8 o    1.843 --   372 h    0.868   371 h    0.852
   371   1 h    0.892 --   370 o    0.852
   372   1 h    0.897 --   370 o    0.868
   373   8 o    1.836 --   374 h    0.866   375 h    0.844
   374   1 h    0.892 --   373 o    0.866
   375   1 h    0.892 --   373 o    0.844
   376   8 o    1.883 --   378 h    0.849   377 h    0.794
   377   1 h    0.874 --   376 o    0.794
   378   1 h    0.879 --   376 o    0.849
   379   8 o    1.860 --   381 h    0.874   380 h    0.760
   380   1 h    0.869 --   379 o    0.760
   381   1 h    0.899 --   379 o    0.874
   382   8 o    1.850 --   384 h    0.906   383 h    0.794
   383   1 h    0.868 --   382 o    0.794
   384   1 h    0.914 --   382 o    0.906
   385   8 o    1.870 --   387 h    0.849   386 h    0.805
   386   1 h    0.881 --   385 o    0.805
   387   1 h    0.895 --   385 o    0.849
   388   8 o    1.883 --   389 h    0.893   390 h    0.781
   389   1 h    0.904 --   388 o    0.893
   390   1 h    0.879 --   388 o    0.781
   391   8 o    1.870 --   392 h    0.899   393 h    0.838
   392   1 h    0.907 --   391 o    0.899
   393   1 h    0.886 --   391 o    0.838
   394   8 o    1.851 --   395 h    0.836   396 h    0.814
   395   1 h    0.881 --   394 o    0.836
   396   1 h    0.887 --   394 o    0.814
   397   8 o    1.866 --   398 h    0.861   399 h    0.795
   398   1 h    0.893 --   397 o    0.861
   399   1 h    0.876 --   397 o    0.795
   400   8 o    1.841 --   402 h    0.859   401 h    0.854
   401   1 h    0.884 --   400 o    0.854
   402   1 h    0.895 --   400 o    0.859
   403   8 o    1.866 --   405 h    0.808   404 h    0.794
   404   1 h    0.875 --   403 o    0.794
   405   1 h    0.885 --   403 o    0.808
   406   8 o    1.855 --   407 h    0.811   408 h    0.797
   407   1 h    0.881 --   406 o    0.811
   408   1 h    0.876 --   406 o    0.797
   409   8 o    1.857 --   411 h    0.866   410 h    0.850
   410   1 h    0.897 --   409 o    0.850
   411   1 h    0.895 --   409 o    0.866
   412   8 o    1.853 --   413 h    0.844   414 h    0.826
   413   1 h    0.894 --   412 o    0.844
   414   1 h    0.881 --   412 o    0.826
   415   8 o    1.872 --   416 h    0.835   417 h    0.833
   416   1 h    0.893 --   415 o    0.835
   417   1 h    0.885 --   415 o    0.833
   418   8 o    1.861 --   420 h    0.917   419 h    0.806
   419   1 h    0.878 --   418 o    0.806
   420   1 h    0.919 --   418 o    0.917
   421   8 o    1.860 --   423 h    0.882   422 h    0.818
   422   1 h    0.886 --   421 o    0.818
   423   1 h    0.901 --   421 o    0.882
   424   8 o    1.837 --   425 h    0.860   426 h    0.818
   425   1 h    0.896 --   424 o    0.860
   426   1 h    0.884 --   424 o    0.818
   427   8 o    1.875 --   429 h    0.869   428 h    0.844
   428   1 h    0.883 --   427 o    0.844
   429   1 h    0.894 --   427 o    0.869
   430   8 o    1.855 --   431 h    0.850   432 h    0.847
   431   1 h    0.889 --   430 o    0.850
   432   1 h    0.888 --   430 o    0.847
   433   8 o    1.840 --   435 h    0.881   434 h    0.809
   434   1 h    0.878 --   433 o    0.809
   435   1 h    0.900 --   433 o    0.881
   436   8 o    1.878 --   437 h    0.803   438 h    0.800
   437   1 h    0.877 --   436 o    0.803
   438   1 h    0.877 --   436 o    0.800
   439   8 o    1.861 --   440 h    0.811   441 h    0.797
   440   1 h    0.883 --   439 o    0.811
   441   1 h    0.879 --   439 o    0.797
   442   8 o    1.850 --   443 h    0.873   444 h    0.856
   443   1 h    0.902 --   442 o    0.873
   444   1 h    0.895 --   442 o    0.856
   445   8 o    1.855 --   447 h    0.865   446 h    0.822
   446   1 h    0.883 --   445 o    0.822
   447   1 h    0.895 --   445 o    0.865
   448   8 o    1.883 --   450 h    0.835   449 h    0.806
   449   1 h    0.880 --   448 o    0.806
   450   1 h    0.891 --   448 o    0.835
   451   8 o    1.842 --   453 h    0.875   452 h    0.836
   452   1 h    0.895 --   451 o    0.836
   453   1 h    0.900 --   451 o    0.875
   454   8 o    1.859 --   455 h    0.835   456 h    0.815
   455   1 h    0.894 --   454 o    0.835
   456   1 h    0.885 --   454 o    0.815
   457   8 o    1.825 --   459 h    0.859   458 h    0.853
   458   1 h    0.895 --   457 o    0.853
   459   1 h    0.894 --   457 o    0.859
   460   8 o    1.843 --   461 h    0.845   462 h    0.832
   461   1 h    0.893 --   460 o    0.845
   462   1 h    0.893 --   460 o    0.832
   463   8 o    1.863 --   465 h    0.852   464 h    0.810
   464   1 h    0.875 --   463 o    0.810
   465   1 h    0.887 --   463 o    0.852
   466   8 o    1.849 --   468 h    0.896   467 h    0.849
   467   1 h    0.885 --   466 o    0.849
   468   1 h    0.904 --   466 o    0.896
   469   8 o    1.847 --   471 h    0.857   470 h    0.809
   470   1 h    0.890 --   469 o    0.809
   471   1 h    0.894 --   469 o    0.857
   472   8 o    1.865 --   473 h    0.848   474 h    0.797
   473   1 h    0.892 --   472 o    0.848
   474   1 h    0.882 --   472 o    0.797
   475   8 o    1.797 --   476 h    0.823   477 h    0.820
   476   1 h    0.893 --   475 o    0.823
   477   1 h    0.888 --   475 o    0.820
   478   8 o    1.833 --   480 h    0.859   479 h    0.837
   479   1 h    0.880 --   478 o    0.837
   480   1 h    0.895 --   478 o    0.859
   481   8 o    1.851 --   482 h    0.821   483 h    0.801
   482   1 h    0.881 --   481 o    0.821
   483   1 h    0.877 --   481 o    0.801
   484   8 o    1.832 --   485 h    0.870   486 h    0.858
   485   1 h    0.894 --   484 o    0.870
   486   1 h    0.893 --   484 o    0.858
   487   8 o    1.855 --   488 h    0.843   489 h    0.825
   488   1 h    0.891 --   487 o    0.843
   489   1 h    0.882 --   487 o    0.825
   490   8 o    1.854 --   492 h    0.853   491 h    0.827
   491   1 h    0.886 --   490 o    0.827
   492   1 h    0.896 --   490 o    0.853
   493   8 o    1.850 --   494 h    0.853   495 h    0.835
   494   1 h    0.890 --   493 o    0.853
   495   1 h    0.887 --   493 o    0.835
   496   8 o    1.874 --   498 h    0.827   497 h    0.780
   497   1 h    0.873 --   496 o    0.780
   498   1 h    0.883 --   496 o    0.827
   499   8 o    1.841 --   501 h    0.839   500 h    0.819
   500   1 h    0.885 --   499 o    0.819
   501   1 h    0.891 --   499 o    0.839
   502   8 o    1.876 --   503 h    0.886   504 h    0.861
   503   1 h    0.898 --   502 o    0.886
   504   1 h    0.890 --   502 o    0.861
   505   8 o    1.876 --   507 h    0.837   506 h    0.819
   506   1 h    0.875 --   505 o    0.819
   507   1 h    0.880 --   505 o    0.837
   508   8 o    1.846 --   509 h    0.840   510 h    0.837
   509   1 h    0.889 --   508 o    0.840
   510   1 h    0.893 --   508 o    0.837
   511   8 o    1.872 --   512 h    0.829   513 h    0.794
   512   1 h    0.880 --   511 o    0.829
   513   1 h    0.869 --   511 o    0.794
   514   8 o    1.851 --   515 h    0.891   516 h    0.825
   515   1 h    0.906 --   514 o    0.891
   516   1 h    0.882 --   514 o    0.825
   517   8 o    1.848 --   519 h    0.819   518 h    0.818
   518   1 h    0.877 --   517 o    0.818
   519   1 h    0.879 --   517 o    0.819
   520   8 o    1.859 --   522 h    0.859   521 h    0.826
   521   1 h    0.880 --   520 o    0.826
   522   1 h    0.899 --   520 o    0.859
   523   8 o    1.820 --   524 h    0.894   525 h    0.838
   524   1 h    0.907 --   523 o    0.894
   525   1 h    0.888 --   523 o    0.838
   526   8 o    1.843 --   528 h    0.911   527 h    0.794
   527   1 h    0.876 --   526 o    0.794
   528   1 h    0.918 --   526 o    0.911
   529   8 o    1.835 --   530 h    0.845   531 h    0.823
   530   1 h    0.889 --   529 o    0.845
   531   1 h    0.891 --   529 o    0.823
   532   8 o    1.858 --   534 h    0.848   533 h    0.824
   533   1 h    0.880 --   532 o    0.824
   534   1 h    0.890 --   532 o    0.848
   535   8 o    1.831 --   536 h    0.865   537 h    0.836
   536   1 h    0.897 --   535 o    0.865
   537   1 h    0.888 --   535 o    0.836
   538   8 o    1.883 --   540 h    0.853   539 h    0.851
   539   1 h    0.892 --   538 o    0.851
   540   1 h    0.894 --   538 o    0.853
   541   8 o    1.856 --   543 h    0.846   542 h    0.813
   542   1 h    0.887 --   541 o    0.813
   543   1 h    0.896 --   541 o    0.846
   544   8 o    1.839 --   545 h    0.846   546 h    0.822
   545   1 h    0.894 --   544 o    0.846
   546   1 h    0.886 --   544 o    0.822
   547   8 o    1.857 --   548 h    0.857   549 h    0.803
   548   1 h    0.895 --   547 o    0.857
   549   1 h    0.877 --   547 o    0.803
   550   8 o    1.839 --   551 h    0.846   552 h    0.790
   551   1 h    0.896 --   550 o    0.846
   552   1 h    0.878 --   550 o    0.790
   553   8 o    1.846 --   554 h    0.881   555 h    0.854
   554   1 h    0.902 --   553 o    0.881
   555   1 h    0.893 --   553 o    0.854
   556   8 o    1.869 --   557 h    0.859   558 h    0.818
   557   1 h    0.896 --   556 o    0.859
   558   1 h    0.888 --   556 o    0.818
   559   8 o    1.813 --   561 h    0.860   560 h    0.813
   560   1 h    0.880 --   559 o    0.813
   561   1 h    0.895 --   559 o    0.860
   562   8 o    1.846 --   564 h    0.874   563 h    0.809
   563   1 h    0.884 --   562 o    0.809
   564   1 h    0.903 --   562 o    0.874
   565   8 o    1.890 --   567 h    0.822   566 h    0.813
   566   1 h    0.883 --   565 o    0.813
   567   1 h    0.875 --   565 o    0.822
   568   8 o    1.814 --   569 h    0.897   570 h    0.822
   569   1 h    0.910 --   568 o    0.897
   570   1 h    0.884 --   568 o    0.822
   571   8 o    1.831 --   573 h    0.907   572 h    0.786
   572   1 h    0.876 --   571 o    0.786
   573   1 h    0.915 --   571 o    0.907
   574   8 o    1.826 --   575 h    0.821   576 h    0.790
   575   1 h    0.885 --   574 o    0.821
   576   1 h    0.880 --   574 o    0.790
   577   8 o    1.842 --   578 h    0.838   579 h    0.828
   578   1 h    0.878 --   577 o    0.838
   579   1 h    0.888 --   577 o    0.828
   580   8 o    1.869 --   582 h    0.846   581 h    0.790
   581   1 h    0.871 --   580 o    0.790
   582   1 h    0.890 --   580 o    0.846
   583   8 o    1.855 --   585 h    0.854   584 h    0.821
   584   1 h    0.879 --   583 o    0.821
   585   1 h    0.887 --   583 o    0.854
   586   8 o    1.849 --   588 h    0.875   587 h    0.839
   587   1 h    0.887 --   586 o    0.839
   588   1 h    0.899 --   586 o    0.875
   589   8 o    1.846 --   590 h    0.886   591 h    0.874
   590   1 h    0.899 --   589 o    0.886
   591   1 h    0.897 --   589 o    0.874
   592   8 o    1.853 --   594 h    0.848   593 h    0.815
   593   1 h    0.884 --   592 o    0.815
   594   1 h    0.894 --   592 o    0.848
   595   8 o    1.869 --   596 h    0.866   597 h    0.800
   596   1 h    0.892 --   595 o    0.866
   597   1 h    0.886 --   595 o    0.800
   598   8 o    1.856 --   600 h    0.839   599 h    0.809
   599   1 h    0.884 --   598 o    0.809
   600   1 h    0.891 --   598 o    0.839
   601   8 o    1.827 --   602 h    0.841   603 h    0.840
   602   1 h    0.889 --   601 o    0.841
   603   1 h    0.893 --   601 o    0.840
   604   8 o    1.854 --   606 h    0.824   605 h    0.802
   605   1 h    0.879 --   604 o    0.802
   606   1 h    0.892 --   604 o    0.824
   607   8 o    1.843 --   608 h    0.889   609 h    0.829
   608   1 h    0.906 --   607 o    0.889
   609   1 h    0.889 --   607 o    0.829
   610   8 o    1.859 --   612 h    0.810   611 h    0.770
   611   1 h    0.875 --   610 o    0.770   685 o    0.100
   612   1 h    0.891 --   610 o    0.810
   613   8 o    1.877 --   614 h    0.909   615 h    0.808
   614   1 h    0.913 --   613 o    0.909
   615   1 h    0.875 --   613 o    0.808
   616   8 o    1.858 --   618 h    0.915   617 h    0.786
   617   1 h    0.877 --   616 o    0.786
   618   1 h    0.920 --   616 o    0.915
   619   8 o    1.856 --   620 h    0.806   621 h    0.778
   620   1 h    0.880 --   619 o    0.806
   621   1 h    0.872 --   619 o    0.778
   622   8 o    1.813 --   624 h    0.859   623 h    0.814
   623   1 h    0.886 --   622 o    0.814
   624   1 h    0.902 --   622 o    0.859
   625   8 o    1.820 --   627 h    0.851   626 h    0.836
   626   1 h    0.893 --   625 o    0.836
   627   1 h    0.900 --   625 o    0.851
   628   8 o    1.869 --   629 h    0.850   630 h    0.841
   629   1 h    0.890 --   628 o    0.850
   630   1 h    0.886 --   628 o    0.841
   631   8 o    1.860 --   633 h    0.831   632 h    0.814
   632   1 h    0.875 --   631 o    0.814
   633   1 h    0.885 --   631 o    0.831
   634   8 o    1.837 --   635 h    0.868   636 h    0.832
   635   1 h    0.897 --   634 o    0.868
   636   1 h    0.884 --   634 o    0.832
   637   8 o    1.841 --   638 h    0.873   639 h    0.835
   638   1 h    0.900 --   637 o    0.873
   639   1 h    0.893 --   637 o    0.835
   640   8 o    1.852 --   642 h    0.859   641 h    0.844
   641   1 h    0.887 --   640 o    0.844
   642   1 h    0.893 --   640 o    0.859
   643   8 o    1.859 --   644 h    0.806   645 h    0.805
   644   1 h    0.885 --   643 o    0.806
   645   1 h    0.877 --   643 o    0.805
   646   8 o    1.838 --   648 h    0.881   647 h    0.809
   647   1 h    0.881 --   646 o    0.809
   648   1 h    0.903 --   646 o    0.881
   649   8 o    1.810 --   651 h    0.869   650 h    0.861
   650   1 h    0.899 --   649 o    0.861
   651   1 h    0.903 --   649 o    0.869
   652   8 o    1.874 --   654 h    0.811   653 h    0.793
   653   1 h    0.876 --   652 o    0.793
   654   1 h    0.888 --   652 o    0.811
   655   8 o    1.851 --   656 h    0.899   657 h    0.829
   656   1 h    0.908 --   655 o    0.899
   657   1 h    0.883 --   655 o    0.829
   658   8 o    1.837 --   660 h    0.793   659 h    0.768
   659   1 h    0.872 --   658 o    0.768
   660   1 h    0.878 --   658 o    0.793
   661   8 o    1.858 --   663 h    0.863   662 h    0.846
   662   1 h    0.893 --   661 o    0.846
   663   1 h    0.897 --   661 o    0.863
   664   8 o    1.829 --   665 h    0.890   666 h    0.844
   665   1 h    0.903 --   664 o    0.890
   666   1 h    0.884 --   664 o    0.844
   667   8 o    1.864 --   669 h    0.902   668 h    0.792
   668   1 h    0.874 --   667 o    0.792
   669   1 h    0.909 --   667 o    0.902
   670   8 o    1.819 --   671 h    0.844   672 h    0.823
   671   1 h    0.900 --   670 o    0.844
   672   1 h    0.882 --   670 o    0.823
   673   8 o    1.836 --   675 h    0.893   674 h    0.835
   674   1 h    0.883 --   673 o    0.835
   675   1 h    0.904 --   673 o    0.893
   676   8 o    1.865 --   677 h    0.815   678 h    0.789
   677   1 h    0.879 --   676 o    0.815
   678   1 h    0.878 --   676 o    0.789
   679   8 o    1.854 --   680 h    0.826   681 h    0.816
   680   1 h    0.880 --   679 o    0.826
   681   1 h    0.883 --   679 o    0.816
   682   8 o    1.863 --   684 h    0.910   683 h    0.802
   683   1 h    0.876 --   682 o    0.802
   684   1 h    0.917 --   682 o    0.910
   685   8 o    1.879 --   686 h    0.822   687 h    0.792   611 h    0.100
   686   1 h    0.882 --   685 o    0.822
   687   1 h    0.876 --   685 o    0.792
   688   8 o    1.829 --   689 h    0.806   690 h    0.803
   689   1 h    0.881 --   688 o    0.806
   690   1 h    0.875 --   688 o    0.803
   691   8 o    1.876 --   692 h    0.844   693 h    0.812
   692   1 h    0.894 --   691 o    0.844
   693   1 h    0.891 --   691 o    0.812
   694   8 o    1.870 --   696 h    0.836   695 h    0.825
   695   1 h    0.877 --   694 o    0.825
   696   1 h    0.885 --   694 o    0.836
   697   8 o    1.880 --   698 h    0.859   699 h    0.804
   698   1 h    0.885 --   697 o    0.859
   699   1 h    0.886 --   697 o    0.804
   700   8 o    1.842 --   701 h    0.859   702 h    0.849
   701   1 h    0.898 --   700 o    0.859
   702   1 h    0.895 --   700 o    0.849
   703   8 o    1.828 --   704 h    0.901   705 h    0.795
   704   1 h    0.910 --   703 o    0.901
   705   1 h    0.882 --   703 o    0.795
   706   8 o    1.793 --   708 h    0.859   707 h    0.842
   707   1 h    0.898 --   706 o    0.842
   708   1 h    0.897 --   706 o    0.859
   709   8 o    1.849 --   711 h    0.886   710 h    0.800
   710   1 h    0.874 --   709 o    0.800
   711   1 h    0.904 --   709 o    0.886
   712   8 o    1.836 --   713 h    0.869   714 h    0.825
   713   1 h    0.897 --   712 o    0.869
   714   1 h    0.886 --   712 o    0.825
   715   8 o    1.858 --   717 h    0.822   716 h    0.806
   716   1 h    0.876 --   715 o    0.806
   717   1 h    0.877 --   715 o    0.822
   718   8 o    1.836 --   720 h    0.822   719 h    0.786
   719   1 h    0.879 --   718 o    0.786
   720   1 h    0.882 --   718 o    0.822
   721   8 o    1.866 --   722 h    0.879   723 h    0.863
   722   1 h    0.899 --   721 o    0.879
   723   1 h    0.894 --   721 o    0.863
   724   8 o    1.856 --   725 h    0.846   726 h    0.821
   725   1 h    0.893 --   724 o    0.846
   726   1 h    0.891 --   724 o    0.821
   727   8 o    1.807 --   729 h    0.874   728 h    0.814
   728   1 h    0.884 --   727 o    0.814
   729   1 h    0.905 --   727 o    0.874
   730   8 o    1.829 --   732 h    0.856   731 h    0.841
   731   1 h    0.889 --   730 o    0.841
   732   1 h    0.897 --   730 o    0.856
   733   8 o    1.862 --   735 h    0.893   734 h    0.799
   734   1 h    0.869 --   733 o    0.799
   735   1 h    0.905 --   733 o    0.893
   736   8 o    1.824 --   737 h    0.854   738 h    0.826
   737   1 h    0.895 --   736 o    0.854
   738   1 h    0.887 --   736 o    0.826
   739   8 o    1.889 --   741 h    0.825   740 h    0.814
   740   1 h    0.881 --   739 o    0.814
   741   1 h    0.879 --   739 o    0.825
   742   8 o    1.860 --   743 h    0.898   744 h    0.843
   743   1 h    0.908 --   742 o    0.898
   744   1 h    0.884 --   742 o    0.843
   745   8 o    1.865 --   747 h    0.870   746 h    0.846
   746   1 h    0.889 --   745 o    0.846
   747   1 h    0.898 --   745 o    0.870
   748   8 o    1.825 --   749 h    0.855   750 h    0.819
   749   1 h    0.893 --   748 o    0.855
   750   1 h    0.887 --   748 o    0.819
   751   8 o    1.841 --   753 h    0.883   752 h    0.803
   752   1 h    0.877 --   751 o    0.803
   753   1 h    0.893 --   751 o    0.883
   754   8 o    1.859 --   756 h    0.870   755 h    0.830
   755   1 h    0.890 --   754 o    0.830
   756   1 h    0.889 --   754 o    0.870
 ---------------------------------------------------------------------------

Topologies differ in total number of bonds
Writing topology from bond orders to xtbtopo.mol

molecular dipole:
                 x           y           z       tot (Debye)
 q only:        1.929       0.511      -0.738
   full:        2.398       1.873      -2.018       9.279
molecular quadrupole (traceless):
                xx          xy          yy          xz          yz          zz
 q only:      -90.067     -47.514      55.332       7.397      13.593      34.734
  q+dip:     -120.319     -63.950      62.015      11.140       6.690      58.305
   full:     -119.267     -63.918      61.819      11.400       6.449      57.449


           -------------------------------------------------
          | TOTAL ENERGY            -1283.348878695525 Eh   |
          | GRADIENT NORM               0.037046662647 Eh/α |
          | HOMO-LUMO GAP               7.916569352187 eV   |
           -------------------------------------------------

------------------------------------------------------------------------
 * finished run on 2022/11/24 at 09:29:07.942     
------------------------------------------------------------------------
 total:
 * wall-time:     0 d,  0 h,  0 min, 57.865 sec
 *  cpu-time:     0 d,  0 h,  1 min, 13.512 sec
 * ratio c/w:     1.270 speedup
 SCF:
 * wall-time:     0 d,  0 h,  0 min, 56.770 sec
 *  cpu-time:     0 d,  0 h,  1 min, 11.706 sec
 * ratio c/w:     1.263 speedup

