      -----------------------------------------------------------      
     |                   =====================                   |     
     |                           x T B                           |     
     |                   =====================                   |     
     |                         S. Grimme                         |     
     |          Mulliken Center for Theoretical Chemistry        |     
     |                    University of Bonn                     |     
      -----------------------------------------------------------      

   * xtb version 6.5.1 (579679a) compiled by 'ehlert@majestix' on 2022-07-11

   xtb is free software: you can redistribute it and/or modify it under
   the terms of the GNU Lesser General Public License as published by
   the Free Software Foundation, either version 3 of the License, or
   (at your option) any later version.
   
   xtb is distributed in the hope that it will be useful,
   but WITHOUT ANY WARRANTY; without even the implied warranty of
   MERCHANTABILITY or FITNESS FOR A PARTICULAR PURPOSE.  See the
   GNU Lesser General Public License for more details.
   
   Cite this work as:
   * C. Bannwarth, E. Caldeweyher, S. Ehlert, A. Hansen, P. Pracht,
     J. Seibert, S. Spicher, S. Grimme, WIREs Comput. Mol. Sci., 2020, 11,
     e01493. DOI: 10.1002/wcms.1493
   
   for GFN2-xTB:
   * C. Bannwarth, S. Ehlert and S. Grimme., J. Chem. Theory Comput., 2019,
     15, 1652-1671. DOI: 10.1021/acs.jctc.8b01176
   for GFN1-xTB:
   * S. Grimme, C. Bannwarth, P. Shushkov, J. Chem. Theory Comput., 2017,
     13, 1989-2009. DOI: 10.1021/acs.jctc.7b00118
   for GFN0-xTB:
   * P. Pracht, E. Caldeweyher, S. Ehlert, S. Grimme, ChemRxiv, 2019, preprint.
     DOI: 10.26434/chemrxiv.8326202.v1
   for GFN-FF:
   * S. Spicher and S. Grimme, Angew. Chem. Int. Ed., 2020, 59, 15665-15673.
     DOI: 10.1002/anie.202004239
   
   for ALPB and GBSA implicit solvation:
   * S. Ehlert, M. Stahn, S. Spicher, S. Grimme, J. Chem. Theory Comput.,
     2021, 17, 4250-4261. DOI: 10.1021/acs.jctc.1c00471
   
   for DFT-D4:
   * E. Caldeweyher, C. Bannwarth and S. Grimme, J. Chem. Phys., 2017,
     147, 034112. DOI: 10.1063/1.4993215
   * E. Caldeweyher, S. Ehlert, A. Hansen, H. Neugebauer, S. Spicher,
     C. Bannwarth and S. Grimme, J. Chem. Phys., 2019, 150, 154122.
     DOI: 10.1063/1.5090222
   * E. Caldeweyher, J.-M. Mewes, S. Ehlert and S. Grimme, Phys. Chem. Chem. Phys.
     2020, 22, 8499-8512. DOI: 10.1039/D0CP00502A
   
   for sTDA-xTB:
   * S. Grimme and C. Bannwarth, J. Chem. Phys., 2016, 145, 054103.
     DOI: 10.1063/1.4959605
   
   in the mass-spec context:
   * V. Asgeirsson, C. Bauer and S. Grimme, Chem. Sci., 2017, 8, 4879.
     DOI: 10.1039/c7sc00601b
   * J. Koopman and S. Grimme, ACS Omega 2019, 4, 12, 15120-15133.
     DOI: 10.1021/acsomega.9b02011
   
   for metadynamics refer to:
   * S. Grimme, J. Chem. Theory Comput., 2019, 155, 2847-2862
     DOI: 10.1021/acs.jctc.9b00143
   
   for SPH calculations refer to:
   * S. Spicher and S. Grimme, J. Chem. Theory Comput., 2021, 17, 1701-1714
     DOI: 10.1021/acs.jctc.0c01306
   
   with help from (in alphabetical order)
   P. Atkinson, C. Bannwarth, F. Bohle, G. Brandenburg, E. Caldeweyher
   M. Checinski, S. Dohm, S. Ehlert, S. Ehrlich, I. Gerasimov, C. Hölzer
   A. Katbashev, J. Koopman, C. Lavigne, S. Lehtola, F. März, M. Müller,
   F. Musil, H. Neugebauer, J. Pisarek, C. Plett, P. Pracht, F. Pultar,
   J. Seibert, P. Shushkov, S. Spicher, M. Stahn, M. Steiner, T. Strunk,
   J. Stückrath, T. Rose, and J. Unsleber
   
 * started run on 2022/11/24 at 09:27:46.527     

           -------------------------------------------------
          |                Calculation Setup                |
           -------------------------------------------------

          program call               : xtb xtbopt.coord --gfn2 --sp --gbsa water
          hostname                   : cn0341
          coordinate file            : xtbopt.coord
          omp threads                :                     2

   ID    Z sym.   atoms
    1    8 o      1, 4, 7, 10, 13, 16, 19, 22, 25, 28, 31, 34, 37, 40, 43,
                  46, 49, 52, 55, 58, 61, 64, 67, 70, 73, 76, 79, 82, 85, 88,
                  91, 94, 97, 100, 103, 106, 109, 112, 115, 118, 121, 124,
                  127, 130, 133, 136, 139, 142, 145, 148, 151, 154, 157, 160,
                  163, 166, 169, 172, 175, 178, 181, 184, 187, 190, 193, 196,
                  199, 202, 205, 208, 211, 214, 217, 220, 223, 226, 229, 232,
                  235, 238, 241, 244, 247, 250, 253, 256, 259, 262, 265, 268,
                  271, 274, 277, 280, 283, 286, 289, 292, 295, 298, 301, 304,
                  307, 310, 313, 316, 319, 322, 325, 328, 331, 334, 337, 340,
                  343, 346, 349, 352, 355, 358, 361, 364, 367, 370, 373, 376,
                  379, 382, 385, 388, 391, 394, 397, 400, 403, 406, 409, 412,
                  415, 418, 421, 424, 427, 430, 433, 436, 439, 442, 445, 448,
                  451, 454, 457, 460, 463, 466, 469, 472, 475, 478, 481, 484,
                  487, 490, 493, 496, 499, 502, 505, 508, 511, 514, 517, 520,
                  523, 526, 529, 532, 535, 538, 541, 544, 547, 550, 553, 556,
                  559, 562, 565, 568, 571, 574, 577, 580, 583, 586, 589, 592,
                  595, 598, 601, 604, 607, 610, 613, 616, 619, 622, 625, 628,
                  631, 634, 637, 640, 643, 646, 649, 652, 655, 658, 661, 664,
                  667, 670, 673, 676, 679, 682, 685, 688, 691, 694, 697, 700,
                  703, 706, 709, 712, 715, 718, 721, 724, 727, 730, 733, 736,
                  739, 742, 745, 748, 751, 754
    2    1 h      2, 3, 5, 6, 8, 9, 11, 12, 14, 15, 17, 18, 20, 21, 23, 24,
                  26, 27, 29, 30, 32, 33, 35, 36, 38, 39, 41, 42, 44, 45, 47,
                  48, 50, 51, 53, 54, 56, 57, 59, 60, 62, 63, 65, 66, 68, 69,
                  71, 72, 74, 75, 77, 78, 80, 81, 83, 84, 86, 87, 89, 90, 92,
                  93, 95, 96, 98, 99, 101, 102, 104, 105, 107, 108, 110, 111,
                  113, 114, 116, 117, 119, 120, 122, 123, 125, 126, 128, 129,
                  131, 132, 134, 135, 137, 138, 140, 141, 143, 144, 146, 147,
                  149, 150, 152, 153, 155, 156, 158, 159, 161, 162, 164, 165,
                  167, 168, 170, 171, 173, 174, 176, 177, 179, 180, 182, 183,
                  185, 186, 188, 189, 191, 192, 194, 195, 197, 198, 200, 201,
                  203, 204, 206, 207, 209, 210, 212, 213, 215, 216, 218, 219,
                  221, 222, 224, 225, 227, 228, 230, 231, 233, 234, 236, 237,
                  239, 240, 242, 243, 245, 246, 248, 249, 251, 252, 254, 255,
                  257, 258, 260, 261, 263, 264, 266, 267, 269, 270, 272, 273,
                  275, 276, 278, 279, 281, 282, 284, 285, 287, 288, 290, 291,
                  293, 294, 296, 297, 299, 300, 302, 303, 305, 306, 308, 309,
                  311, 312, 314, 315, 317, 318, 320, 321, 323, 324, 326, 327,
                  329, 330, 332, 333, 335, 336, 338, 339, 341, 342, 344, 345,
                  347, 348, 350, 351, 353, 354, 356, 357, 359, 360, 362, 363,
                  365, 366, 368, 369, 371, 372, 374, 375, 377, 378, 380, 381,
                  383, 384, 386, 387, 389, 390, 392, 393, 395, 396, 398, 399,
                  401, 402, 404, 405, 407, 408, 410, 411, 413, 414, 416, 417,
                  419, 420, 422, 423, 425, 426, 428, 429, 431, 432, 434, 435,
                  437, 438, 440, 441, 443, 444, 446, 447, 449, 450, 452, 453,
                  455, 456, 458, 459, 461, 462, 464, 465, 467, 468, 470, 471,
                  473, 474, 476, 477, 479, 480, 482, 483, 485, 486, 488, 489,
                  491, 492, 494, 495, 497, 498, 500, 501, 503, 504, 506, 507,
                  509, 510, 512, 513, 515, 516, 518, 519, 521, 522, 524, 525,
                  527, 528, 530, 531, 533, 534, 536, 537, 539, 540, 542, 543,
                  545, 546, 548, 549, 551, 552, 554, 555, 557, 558, 560, 561,
                  563, 564, 566, 567, 569, 570, 572, 573, 575, 576, 578, 579,
                  581, 582, 584, 585, 587, 588, 590, 591, 593, 594, 596, 597,
                  599, 600, 602, 603, 605, 606, 608, 609, 611, 612, 614, 615,
                  617, 618, 620, 621, 623, 624, 626, 627, 629, 630, 632, 633,
                  635, 636, 638, 639, 641, 642, 644, 645, 647, 648, 650, 651,
                  653, 654, 656, 657, 659, 660, 662, 663, 665, 666, 668, 669,
                  671, 672, 674, 675, 677, 678, 680, 681, 683, 684, 686, 687,
                  689, 690, 692, 693, 695, 696, 698, 699, 701, 702, 704, 705,
                  707, 708, 710, 711, 713, 714, 716, 717, 719, 720, 722, 723,
                  725, 726, 728, 729, 731, 732, 734, 735, 737, 738, 740, 741,
                  743, 744, 746, 747, 749, 750, 752, 753, 755, 756

molecular fragmentation (1/2 indicates fragments):
111222222222222222222222222222222222222222222222222222222222222222222222
222222222222222222222222222222222222222222222222222222222222222222222222
222222222222222222222222222222222222222222222222222222222222222222222222
222222222222222222222222222222222222222222222222222222222222222222222222
222222222222222222222222222222222222222222222222222222222222222222222222
222222222222222222222222222222222222222222222222222222222222222222222222
222222222222222222222222222222222222222222222222222222222222222222222222
222222222222222222222222222222222222222222222222222222222222222222222222
222222222222222222222222222222222222222222222222222222222222222222222222
222222222222222222222222222222222222222222222222222222222222222222222222
222222222222222222222222222222222222
# atoms in fragment 1/2:     3   753
 fragment masses (1/2) :       18.02     4521.84
CMA distance (Bohr)    :  18.768
constraining FC (au)   :  0.0500

           -------------------------------------------------
          |                 G F N 2 - x T B                 |
           -------------------------------------------------

        Reference                      10.1021/acs.jctc.8b01176
      * Hamiltonian:
        H0-scaling (s, p, d)           1.850000    2.230000    2.230000
        zeta-weighting                 0.500000
      * Dispersion:
        s8                             2.700000
        a1                             0.520000
        a2                             5.000000
        s9                             5.000000
      * Repulsion:
        kExp                           1.500000    1.000000
        rExp                           1.000000
      * Coulomb:
        alpha                          2.000000
        third order                    shell-resolved
        anisotropic                    true
        a3                             3.000000
        a5                             4.000000
        cn-shift                       1.200000
        cn-exp                         4.000000
        max-rad                        5.000000

      * Solvation model:               GBSA
        Solvent                        water
        Parameter file                 internal GFN2-xTB/GBSA
        Dielectric constant                8.0200E+01
        Reference state                gsolv [1 M gas/solution]
        Free energy shift                  1.8574E-03 Eh       1.1656E+00 kcal/mol
        Temperature                        2.9815E+02 K
        Density                            1.0000E+00 kg/L
        Solvent mass                       1.8000E+01 g/mol
        Interaction kernel             Still
        Born radius scaling (c1)           1.5524E+00
        Born radii integrator          GBOBC
        Born offset                        2.4628E-02 a0       4.6540E-02 AA
        H-bond correction              true
        Ion screening                  false
        Surface tension                    1.0000E-05 Eh       1.5569E+01 dyn/cm
        Grid points                               230 per atom

          ...................................................
          :                      SETUP                      :
          :.................................................:
          :  # basis functions                1512          :
          :  # atomic orbitals                1512          :
          :  # shells                         1008          :
          :  # electrons                      2016          :
          :  max. iterations                   250          :
          :  Hamiltonian                  GFN2-xTB          :
          :  restarted?                      false          :
          :  GBSA solvation                   true          :
          :  PC potential                    false          :
          :  electronic temp.          300.0000000     K    :
          :  accuracy                    1.0000000          :
          :  -> integral cutoff          0.2500000E+02      :
          :  -> integral neglect         0.1000000E-07      :
          :  -> SCF convergence          0.1000000E-05 Eh   :
          :  -> wf. convergence          0.1000000E-03 e    :
          :  Broyden damping             0.4000000          :
          ...................................................

 iter      E             dE          RMSdq      gap      omega  full diag
   1  -1291.2588189 -0.129126E+04  0.408E+00    8.30       0.0  T
   2  -1291.3418142 -0.829952E-01  0.242E+00    8.22       1.0  T
   3  -1291.3774795 -0.356653E-01  0.225E-01    7.76       1.0  T
   4  -1291.3829135 -0.543402E-02  0.486E-02    7.94       1.0  T
   5  -1291.3830786 -0.165041E-03  0.310E-02    7.89       1.0  T
   6  -1291.3831288 -0.502767E-04  0.388E-03    7.89       1.0  T
   7  -1291.3831306 -0.176771E-05  0.966E-04    7.89       3.8  T
   8  -1291.3831307 -0.124270E-06  0.469E-04    7.89       7.7  T
   9  -1291.3831308 -0.381642E-07  0.135E-04    7.89      26.9  T

   *** convergence criteria satisfied after 9 iterations ***

         #    Occupation            Energy/Eh            Energy/eV
      -------------------------------------------------------------
         1        2.0000           -0.6505118             -17.7013
       ...           ...                  ...                  ...
      1002        2.0000           -0.3537291              -9.6255
      1003        2.0000           -0.3533753              -9.6158
      1004        2.0000           -0.3528093              -9.6004
      1005        2.0000           -0.3523286              -9.5873
      1006        2.0000           -0.3498580              -9.5201
      1007        2.0000           -0.3490619              -9.4985
      1008        2.0000           -0.3467748              -9.4362 (HOMO)
      1009                         -0.0569371              -1.5493 (LUMO)
      1010                         -0.0483559              -1.3158
      1011                         -0.0381220              -1.0374
      1012                         -0.0366732              -0.9979
      1013                         -0.0302882              -0.8242
       ...                                ...                  ...
      1512                          0.4891103              13.3094
      -------------------------------------------------------------
                  HL-Gap            0.2898378 Eh            7.8869 eV
             Fermi-level           -0.2018560 Eh           -5.4928 eV

 SCC (total)                   0 d,  0 h,  0 min, 21.316 sec
 SCC setup                      ...        0 min,  0.117 sec (  0.548%)
 Dispersion                     ...        0 min,  0.110 sec (  0.514%)
 classical contributions        ...        0 min,  0.023 sec (  0.109%)
 integral evaluation            ...        0 min,  0.616 sec (  2.889%)
 iterations                     ...        0 min,  8.076 sec ( 37.886%)
 molecular gradient             ...        0 min, 12.308 sec ( 57.743%)
 printout                       ...        0 min,  0.066 sec (  0.311%)

         :::::::::::::::::::::::::::::::::::::::::::::::::::::
         ::                     SUMMARY                     ::
         :::::::::::::::::::::::::::::::::::::::::::::::::::::
         :: total energy           -1283.609690226003 Eh    ::
         :: total w/o Gsasa/hb     -1283.383041226466 Eh    ::
         :: gradient norm              0.095222891214 Eh/a0 ::
         :: HOMO-LUMO gap              7.886886879687 eV    ::
         ::.................................................::
         :: SCC energy             -1291.383130770207 Eh    ::
         :: -> isotropic ES            7.350756207890 Eh    ::
         :: -> anisotropic ES         -1.653026968260 Eh    ::
         :: -> anisotropic XC         -0.120043759349 Eh    ::
         :: -> dispersion             -0.793968815865 Eh    ::
         :: -> Gsolv                  -0.282419291045 Eh    ::
         ::    -> Gelec               -0.055770291509 Eh    ::
         ::    -> Gsasa                0.007456741232 Eh    ::
         ::    -> Ghb                 -0.235963183896 Eh    ::
         ::    -> Gshift               0.001857443127 Eh    ::
         :: repulsion energy           7.617013277662 Eh    ::
         :: add. restraining           0.000000000000 Eh    ::
         :: total charge               0.000000000000 e     ::
         :::::::::::::::::::::::::::::::::::::::::::::::::::::

           -------------------------------------------------
          |                Property Printout                |
           -------------------------------------------------

    * Orbital Energies and Occupations

         #    Occupation            Energy/Eh            Energy/eV
      -------------------------------------------------------------
         1        2.0000           -0.6505118             -17.7013
       ...           ...                  ...                  ...
       996        2.0000           -0.3590396              -9.7700
       997        2.0000           -0.3582232              -9.7477
       998        2.0000           -0.3573823              -9.7249
       999        2.0000           -0.3563724              -9.6974
      1000        2.0000           -0.3552279              -9.6662
      1001        2.0000           -0.3549817              -9.6595
      1002        2.0000           -0.3537291              -9.6255
      1003        2.0000           -0.3533753              -9.6158
      1004        2.0000           -0.3528093              -9.6004
      1005        2.0000           -0.3523286              -9.5873
      1006        2.0000           -0.3498580              -9.5201
      1007        2.0000           -0.3490619              -9.4985
      1008        2.0000           -0.3467748              -9.4362 (HOMO)
      1009                         -0.0569371              -1.5493 (LUMO)
      1010                         -0.0483559              -1.3158
      1011                         -0.0381220              -1.0374
      1012                         -0.0366732              -0.9979
      1013                         -0.0302882              -0.8242
      1014                         -0.0240583              -0.6547
      1015                         -0.0205938              -0.5604
      1016                         -0.0120754              -0.3286
      1017                         -0.0104130              -0.2834
      1018                         -0.0086667              -0.2358
      1019                         -0.0022608              -0.0615
       ...                                ...                  ...
      1512                          0.4891103              13.3094
      -------------------------------------------------------------
                  HL-Gap            0.2898378 Eh            7.8869 eV
             Fermi-level           -0.2018560 Eh           -5.4928 eV

     #   Z          covCN         q      C6AA      α(0)
     1   8 o        1.609    -0.665    26.784     6.985
     2   1 h        0.806     0.318     0.670     1.286
     3   1 h        0.804     0.345     0.600     1.217
     4   8 o        1.606    -0.673    27.009     7.014
     5   1 h        0.802     0.358     0.570     1.187
     6   1 h        0.804     0.322     0.660     1.276
     7   8 o        1.609    -0.674    27.038     7.018
     8   1 h        0.804     0.337     0.618     1.235
     9   1 h        0.805     0.338     0.618     1.234
    10   8 o        1.608    -0.687    27.359     7.059
    11   1 h        0.804     0.346     0.597     1.214
    12   1 h        0.803     0.356     0.574     1.190
    13   8 o        1.608    -0.649    26.396     6.934
    14   1 h        0.805     0.352     0.582     1.199
    15   1 h        0.803     0.348     0.593     1.210
    16   8 o        1.606    -0.710    27.967     7.137
    17   1 h        0.803     0.361     0.564     1.180
    18   1 h        0.803     0.345     0.600     1.217
    19   8 o        1.608    -0.692    27.492     7.077
    20   1 h        0.804     0.347     0.594     1.211
    21   1 h        0.804     0.352     0.584     1.200
    22   8 o        1.604    -0.701    27.742     7.109
    23   1 h        0.801     0.365     0.556     1.171
    24   1 h        0.804     0.337     0.618     1.235
    25   8 o        1.606    -0.703    27.799     7.116
    26   1 h        0.803     0.351     0.586     1.203
    27   1 h        0.803     0.359     0.568     1.183
    28   8 o        1.610    -0.685    27.323     7.055
    29   1 h        0.804     0.352     0.583     1.200
    30   1 h        0.804     0.340     0.611     1.228
    31   8 o        1.607    -0.672    26.991     7.012
    32   1 h        0.804     0.335     0.626     1.243
    33   1 h        0.803     0.359     0.567     1.183
    34   8 o        1.608    -0.680    27.190     7.038
    35   1 h        0.804     0.352     0.583     1.199
    36   1 h        0.803     0.353     0.581     1.197
    37   8 o        1.602    -0.740    28.789     7.241
    38   1 h        0.803     0.361     0.562     1.178
    39   1 h        0.802     0.359     0.569     1.185
    40   8 o        1.608    -0.683    27.262     7.047
    41   1 h        0.804     0.349     0.592     1.208
    42   1 h        0.803     0.348     0.594     1.211
    43   8 o        1.607    -0.702    27.752     7.110
    44   1 h        0.803     0.357     0.573     1.189
    45   1 h        0.804     0.358     0.569     1.185
    46   8 o        1.608    -0.684    27.293     7.051
    47   1 h        0.803     0.334     0.628     1.245
    48   1 h        0.805     0.350     0.589     1.205
    49   8 o        1.607    -0.679    27.159     7.034
    50   1 h        0.805     0.318     0.670     1.286
    51   1 h        0.803     0.367     0.551     1.166
    52   8 o        1.609    -0.675    27.057     7.020
    53   1 h        0.805     0.354     0.580     1.196
    54   1 h        0.804     0.349     0.590     1.206
    55   8 o        1.609    -0.665    26.799     6.987
    56   1 h        0.804     0.337     0.620     1.237
    57   1 h        0.805     0.319     0.667     1.283
    58   8 o        1.608    -0.699    27.671     7.100
    59   1 h        0.803     0.362     0.562     1.177
    60   1 h        0.805     0.345     0.599     1.216
    61   8 o        1.609    -0.664    26.773     6.983
    62   1 h        0.805     0.338     0.618     1.235
    63   1 h        0.805     0.321     0.662     1.278
    64   8 o        1.609    -0.694    27.539     7.083
    65   1 h        0.803     0.368     0.549     1.164
    66   1 h        0.803     0.341     0.609     1.226
    67   8 o        1.608    -0.677    27.102     7.026
    68   1 h        0.804     0.342     0.608     1.225
    69   1 h        0.805     0.351     0.586     1.202
    70   8 o        1.605    -0.700    27.712     7.105
    71   1 h        0.802     0.354     0.579     1.195
    72   1 h        0.804     0.357     0.572     1.189
    73   8 o        1.607    -0.698    27.647     7.096
    74   1 h        0.804     0.347     0.595     1.211
    75   1 h        0.803     0.351     0.587     1.203
    76   8 o        1.607    -0.706    27.871     7.125
    77   1 h        0.803     0.349     0.590     1.207
    78   1 h        0.804     0.339     0.616     1.232
    79   8 o        1.609    -0.671    26.955     7.007
    80   1 h        0.804     0.358     0.569     1.185
    81   1 h        0.805     0.312     0.686     1.301
    82   8 o        1.606    -0.701    27.726     7.107
    83   1 h        0.802     0.363     0.559     1.174
    84   1 h        0.803     0.351     0.586     1.203
    85   8 o        1.609    -0.665    26.791     6.986
    86   1 h        0.805     0.317     0.673     1.289
    87   1 h        0.805     0.330     0.637     1.254
    88   8 o        1.608    -0.673    27.003     7.013
    89   1 h        0.804     0.328     0.644     1.260
    90   1 h        0.804     0.333     0.631     1.248
    91   8 o        1.609    -0.669    26.899     7.000
    92   1 h        0.804     0.337     0.618     1.235
    93   1 h        0.805     0.326     0.649     1.265
    94   8 o        1.610    -0.663    26.757     6.981
    95   1 h        0.804     0.331     0.635     1.252
    96   1 h        0.805     0.324     0.652     1.268
    97   8 o        1.607    -0.706    27.867     7.125
    98   1 h        0.804     0.352     0.583     1.200
    99   1 h        0.803     0.349     0.590     1.207
   100   8 o        1.608    -0.680    27.192     7.038
   101   1 h        0.804     0.340     0.612     1.229
   102   1 h        0.804     0.334     0.626     1.243
   103   8 o        1.609    -0.661    26.700     6.974
   104   1 h        0.805     0.322     0.659     1.276
   105   1 h        0.804     0.338     0.617     1.234
   106   8 o        1.609    -0.641    26.184     6.906
   107   1 h        0.805     0.319     0.668     1.283
   108   1 h        0.804     0.332     0.633     1.250
   109   8 o        1.608    -0.674    27.025     7.016
   110   1 h        0.804     0.328     0.643     1.260
   111   1 h        0.804     0.345     0.601     1.217
   112   8 o        1.607    -0.688    27.395     7.064
   113   1 h        0.804     0.351     0.586     1.202
   114   1 h        0.804     0.353     0.582     1.199
   115   8 o        1.608    -0.701    27.726     7.107
   116   1 h        0.804     0.350     0.588     1.204
   117   1 h        0.804     0.349     0.591     1.208
   118   8 o        1.610    -0.658    26.617     6.963
   119   1 h        0.805     0.333     0.629     1.246
   120   1 h        0.803     0.341     0.610     1.227
   121   8 o        1.607    -0.659    26.654     6.968
   122   1 h        0.806     0.307     0.700     1.314
   123   1 h        0.802     0.349     0.592     1.209
   124   8 o        1.603    -0.718    28.187     7.165
   125   1 h        0.803     0.353     0.582     1.199
   126   1 h        0.803     0.360     0.565     1.181
   127   8 o        1.609    -0.687    27.358     7.059
   128   1 h        0.805     0.343     0.604     1.221
   129   1 h        0.804     0.351     0.585     1.202
   130   8 o        1.609    -0.688    27.402     7.065
   131   1 h        0.805     0.323     0.655     1.272
   132   1 h        0.803     0.350     0.589     1.206
   133   8 o        1.607    -0.699    27.690     7.102
   134   1 h        0.803     0.358     0.571     1.187
   135   1 h        0.804     0.330     0.637     1.254
   136   8 o        1.608    -0.700    27.719     7.106
   137   1 h        0.804     0.328     0.643     1.260
   138   1 h        0.804     0.354     0.578     1.195
   139   8 o        1.609    -0.689    27.423     7.068
   140   1 h        0.804     0.336     0.621     1.238
   141   1 h        0.805     0.335     0.625     1.242
   142   8 o        1.607    -0.669    26.906     7.001
   143   1 h        0.803     0.343     0.604     1.221
   144   1 h        0.804     0.325     0.651     1.267
   145   8 o        1.607    -0.673    27.004     7.013
   146   1 h        0.805     0.328     0.643     1.259
   147   1 h        0.802     0.341     0.609     1.226
   148   8 o        1.606    -0.710    27.978     7.139
   149   1 h        0.802     0.369     0.546     1.161
   150   1 h        0.803     0.343     0.605     1.222
   151   8 o        1.609    -0.632    25.968     6.878
   152   1 h        0.804     0.332     0.632     1.249
   153   1 h        0.806     0.295     0.737     1.348
   154   8 o        1.609    -0.680    27.192     7.038
   155   1 h        0.804     0.347     0.594     1.211
   156   1 h        0.804     0.330     0.636     1.253
   157   8 o        1.608    -0.675    27.047     7.019
   158   1 h        0.804     0.340     0.613     1.230
   159   1 h        0.805     0.334     0.626     1.243
   160   8 o        1.609    -0.652    26.457     6.942
   161   1 h        0.806     0.323     0.656     1.272
   162   1 h        0.803     0.352     0.584     1.201
   163   8 o        1.610    -0.661    26.703     6.974
   164   1 h        0.805     0.333     0.629     1.246
   165   1 h        0.805     0.325     0.649     1.266
   166   8 o        1.608    -0.678    27.127     7.029
   167   1 h        0.804     0.337     0.621     1.238
   168   1 h        0.804     0.359     0.567     1.183
   169   8 o        1.606    -0.695    27.586     7.089
   170   1 h        0.803     0.357     0.573     1.190
   171   1 h        0.804     0.334     0.626     1.243
   172   8 o        1.603    -0.717    28.162     7.162
   173   1 h        0.803     0.338     0.618     1.235
   174   1 h        0.801     0.367     0.551     1.166
   175   8 o        1.608    -0.653    26.500     6.948
   176   1 h        0.803     0.351     0.585     1.202
   177   1 h        0.805     0.303     0.712     1.325
   178   8 o        1.607    -0.655    26.534     6.952
   179   1 h        0.803     0.331     0.635     1.252
   180   1 h        0.804     0.322     0.659     1.275
   181   8 o        1.609    -0.683    27.253     7.046
   182   1 h        0.804     0.343     0.604     1.221
   183   1 h        0.805     0.324     0.652     1.269
   184   8 o        1.608    -0.693    27.514     7.079
   185   1 h        0.803     0.351     0.585     1.202
   186   1 h        0.804     0.357     0.573     1.189
   187   8 o        1.605    -0.722    28.317     7.182
   188   1 h        0.804     0.322     0.658     1.274
   189   1 h        0.802     0.364     0.556     1.172
   190   8 o        1.604    -0.707    27.900     7.129
   191   1 h        0.803     0.332     0.632     1.248
   192   1 h        0.802     0.338     0.616     1.233
   193   8 o        1.608    -0.670    26.924     7.003
   194   1 h        0.805     0.347     0.595     1.212
   195   1 h        0.803     0.352     0.583     1.200
   196   8 o        1.607    -0.680    27.172     7.035
   197   1 h        0.805     0.350     0.589     1.206
   198   1 h        0.803     0.334     0.627     1.244
   199   8 o        1.606    -0.691    27.479     7.075
   200   1 h        0.804     0.339     0.616     1.233
   201   1 h        0.803     0.371     0.542     1.157
   202   8 o        1.608    -0.662    26.730     6.978
   203   1 h        0.804     0.342     0.607     1.224
   204   1 h        0.804     0.337     0.620     1.236
   205   8 o        1.607    -0.693    27.539     7.083
   206   1 h        0.804     0.349     0.590     1.207
   207   1 h        0.803     0.347     0.597     1.213
   208   8 o        1.609    -0.679    27.160     7.034
   209   1 h        0.805     0.330     0.636     1.253
   210   1 h        0.804     0.339     0.613     1.230
   211   8 o        1.609    -0.650    26.427     6.938
   212   1 h        0.804     0.335     0.625     1.242
   213   1 h        0.805     0.334     0.627     1.244
   214   8 o        1.610    -0.681    27.213     7.041
   215   1 h        0.805     0.339     0.615     1.232
   216   1 h        0.804     0.347     0.595     1.212
   217   8 o        1.607    -0.692    27.493     7.077
   218   1 h        0.803     0.360     0.565     1.180
   219   1 h        0.804     0.351     0.586     1.202
   220   8 o        1.608    -0.669    26.902     7.000
   221   1 h        0.804     0.356     0.574     1.190
   222   1 h        0.804     0.331     0.636     1.252
   223   8 o        1.606    -0.712    28.031     7.146
   224   1 h        0.804     0.340     0.611     1.228
   225   1 h        0.804     0.349     0.590     1.207
   226   8 o        1.606    -0.701    27.752     7.110
   227   1 h        0.803     0.344     0.604     1.220
   228   1 h        0.803     0.359     0.568     1.184
   229   8 o        1.608    -0.664    26.768     6.983
   230   1 h        0.804     0.332     0.633     1.250
   231   1 h        0.804     0.335     0.625     1.242
   232   8 o        1.606    -0.694    27.565     7.086
   233   1 h        0.805     0.313     0.684     1.299
   234   1 h        0.802     0.370     0.543     1.158
   235   8 o        1.607    -0.685    27.305     7.052
   236   1 h        0.803     0.351     0.586     1.203
   237   1 h        0.803     0.356     0.575     1.192
   238   8 o        1.607    -0.676    27.087     7.024
   239   1 h        0.802     0.335     0.624     1.241
   240   1 h        0.804     0.332     0.633     1.249
   241   8 o        1.609    -0.681    27.205     7.040
   242   1 h        0.805     0.327     0.645     1.262
   243   1 h        0.804     0.341     0.609     1.226
   244   8 o        1.609    -0.677    27.106     7.027
   245   1 h        0.805     0.324     0.654     1.270
   246   1 h        0.804     0.342     0.606     1.223
   247   8 o        1.606    -0.681    27.213     7.041
   248   1 h        0.803     0.330     0.636     1.253
   249   1 h        0.803     0.359     0.568     1.184
   250   8 o        1.607    -0.697    27.643     7.096
   251   1 h        0.804     0.361     0.564     1.180
   252   1 h        0.803     0.340     0.612     1.229
   253   8 o        1.607    -0.683    27.256     7.046
   254   1 h        0.806     0.316     0.676     1.291
   255   1 h        0.803     0.365     0.554     1.169
   256   8 o        1.608    -0.688    27.404     7.065
   257   1 h        0.803     0.355     0.576     1.192
   258   1 h        0.804     0.356     0.575     1.191
   259   8 o        1.607    -0.694    27.562     7.086
   260   1 h        0.804     0.363     0.560     1.175
   261   1 h        0.804     0.325     0.650     1.266
   262   8 o        1.609    -0.683    27.265     7.047
   263   1 h        0.805     0.321     0.660     1.276
   264   1 h        0.804     0.350     0.587     1.204
   265   8 o        1.605    -0.684    27.303     7.052
   266   1 h        0.803     0.333     0.630     1.247
   267   1 h        0.802     0.336     0.621     1.238
   268   8 o        1.608    -0.684    27.285     7.050
   269   1 h        0.804     0.334     0.628     1.245
   270   1 h        0.803     0.351     0.586     1.203
   271   8 o        1.607    -0.698    27.671     7.100
   272   1 h        0.804     0.350     0.588     1.205
   273   1 h        0.803     0.356     0.574     1.191
   274   8 o        1.608    -0.658    26.613     6.963
   275   1 h        0.805     0.313     0.684     1.299
   276   1 h        0.803     0.351     0.587     1.203
   277   8 o        1.609    -0.683    27.250     7.045
   278   1 h        0.805     0.332     0.633     1.250
   279   1 h        0.804     0.350     0.588     1.204
   280   8 o        1.608    -0.679    27.148     7.032
   281   1 h        0.804     0.353     0.580     1.197
   282   1 h        0.804     0.330     0.638     1.255
   283   8 o        1.608    -0.656    26.556     6.955
   284   1 h        0.804     0.324     0.654     1.271
   285   1 h        0.804     0.336     0.622     1.239
   286   8 o        1.606    -0.704    27.817     7.118
   287   1 h        0.803     0.358     0.571     1.187
   288   1 h        0.803     0.357     0.573     1.189
   289   8 o        1.609    -0.672    26.980     7.010
   290   1 h        0.804     0.346     0.597     1.214
   291   1 h        0.805     0.318     0.669     1.285
   292   8 o        1.610    -0.630    25.908     6.870
   293   1 h        0.806     0.313     0.683     1.298
   294   1 h        0.804     0.335     0.624     1.241
   295   8 o        1.608    -0.688    27.388     7.063
   296   1 h        0.804     0.354     0.579     1.196
   297   1 h        0.803     0.358     0.570     1.186
   298   8 o        1.609    -0.666    26.827     6.991
   299   1 h        0.804     0.356     0.575     1.191
   300   1 h        0.805     0.350     0.588     1.204
   301   8 o        1.607    -0.673    27.008     7.014
   302   1 h        0.804     0.323     0.657     1.273
   303   1 h        0.803     0.355     0.577     1.193
   304   8 o        1.606    -0.668    26.865     6.995
   305   1 h        0.801     0.356     0.574     1.190
   306   1 h        0.806     0.313     0.683     1.298
   307   8 o        1.607    -0.690    27.440     7.070
   308   1 h        0.803     0.359     0.569     1.185
   309   1 h        0.804     0.325     0.650     1.266
   310   8 o        1.608    -0.665    26.786     6.985
   311   1 h        0.803     0.332     0.634     1.250
   312   1 h        0.804     0.346     0.598     1.215
   313   8 o        1.608    -0.660    26.661     6.969
   314   1 h        0.803     0.350     0.587     1.204
   315   1 h        0.806     0.314     0.681     1.296
   316   8 o        1.607    -0.697    27.642     7.096
   317   1 h        0.803     0.327     0.645     1.262
   318   1 h        0.803     0.356     0.574     1.190
   319   8 o        1.610    -0.667    26.845     6.993
   320   1 h        0.805     0.341     0.609     1.226
   321   1 h        0.805     0.326     0.649     1.265
   322   8 o        1.608    -0.655    26.533     6.952
   323   1 h        0.805     0.332     0.632     1.249
   324   1 h        0.804     0.338     0.618     1.235
   325   8 o        1.607    -0.698    27.660     7.098
   326   1 h        0.802     0.354     0.579     1.195
   327   1 h        0.805     0.321     0.662     1.278
   328   8 o        1.608    -0.663    26.737     6.979
   329   1 h        0.804     0.328     0.642     1.259
   330   1 h        0.804     0.321     0.662     1.278
   331   8 o        1.607    -0.692    27.499     7.077
   332   1 h        0.804     0.340     0.612     1.229
   333   1 h        0.803     0.329     0.639     1.256
   334   8 o        1.607    -0.696    27.605     7.091
   335   1 h        0.804     0.320     0.663     1.279
   336   1 h        0.802     0.355     0.576     1.192
   337   8 o        1.608    -0.686    27.352     7.059
   338   1 h        0.803     0.362     0.560     1.176
   339   1 h        0.803     0.334     0.627     1.244
   340   8 o        1.607    -0.684    27.290     7.050
   341   1 h        0.804     0.355     0.576     1.192
   342   1 h        0.803     0.347     0.596     1.212
   343   8 o        1.607    -0.674    27.036     7.018
   344   1 h        0.804     0.353     0.582     1.198
   345   1 h        0.803     0.331     0.635     1.252
   346   8 o        1.607    -0.692    27.494     7.077
   347   1 h        0.804     0.364     0.557     1.173
   348   1 h        0.803     0.344     0.603     1.220
   349   8 o        1.609    -0.661    26.706     6.975
   350   1 h        0.805     0.332     0.633     1.250
   351   1 h        0.804     0.337     0.620     1.237
   352   8 o        1.607    -0.689    27.415     7.067
   353   1 h        0.802     0.362     0.562     1.178
   354   1 h        0.804     0.332     0.633     1.250
   355   8 o        1.606    -0.714    28.079     7.152
   356   1 h        0.802     0.359     0.569     1.185
   357   1 h        0.804     0.325     0.651     1.267
   358   8 o        1.607    -0.676    27.081     7.023
   359   1 h        0.802     0.364     0.557     1.173
   360   1 h        0.804     0.314     0.680     1.295
   361   8 o        1.608    -0.662    26.723     6.977
   362   1 h        0.805     0.333     0.629     1.246
   363   1 h        0.804     0.337     0.620     1.237
   364   8 o        1.609    -0.670    26.931     7.004
   365   1 h        0.805     0.340     0.612     1.229
   366   1 h        0.804     0.309     0.694     1.308
   367   8 o        1.608    -0.689    27.428     7.068
   368   1 h        0.804     0.344     0.602     1.219
   369   1 h        0.804     0.334     0.627     1.243
   370   8 o        1.609    -0.684    27.283     7.050
   371   1 h        0.804     0.345     0.600     1.216
   372   1 h        0.805     0.333     0.630     1.247
   373   8 o        1.609    -0.678    27.128     7.030
   374   1 h        0.805     0.334     0.627     1.243
   375   1 h        0.804     0.342     0.608     1.225
   376   8 o        1.608    -0.673    26.994     7.012
   377   1 h        0.803     0.359     0.567     1.183
   378   1 h        0.805     0.339     0.614     1.230
   379   8 o        1.604    -0.685    27.311     7.053
   380   1 h        0.802     0.371     0.543     1.157
   381   1 h        0.805     0.311     0.688     1.303
   382   8 o        1.607    -0.677    27.106     7.027
   383   1 h        0.802     0.369     0.545     1.160
   384   1 h        0.806     0.309     0.694     1.308
   385   8 o        1.608    -0.663    26.734     6.978
   386   1 h        0.803     0.344     0.603     1.220
   387   1 h        0.805     0.318     0.669     1.285
   388   8 o        1.606    -0.647    26.351     6.928
   389   1 h        0.805     0.314     0.679     1.294
   390   1 h        0.802     0.343     0.606     1.223
   391   8 o        1.609    -0.661    26.688     6.972
   392   1 h        0.805     0.325     0.650     1.266
   393   1 h        0.804     0.349     0.591     1.208
   394   8 o        1.607    -0.675    27.058     7.020
   395   1 h        0.804     0.350     0.587     1.204
   396   1 h        0.803     0.328     0.643     1.259
   397   8 o        1.607    -0.683    27.267     7.048
   398   1 h        0.805     0.325     0.651     1.268
   399   1 h        0.802     0.364     0.557     1.173
   400   8 o        1.609    -0.669    26.889     6.999
   401   1 h        0.805     0.353     0.582     1.198
   402   1 h        0.804     0.323     0.655     1.271
   403   8 o        1.605    -0.701    27.740     7.108
   404   1 h        0.802     0.363     0.560     1.175
   405   1 h        0.803     0.338     0.619     1.236
   406   8 o        1.608    -0.690    27.446     7.071
   407   1 h        0.803     0.338     0.617     1.234
   408   1 h        0.803     0.352     0.583     1.199
   409   8 o        1.609    -0.684    27.279     7.049
   410   1 h        0.804     0.339     0.614     1.231
   411   1 h        0.804     0.341     0.610     1.227
   412   8 o        1.608    -0.677    27.109     7.027
   413   1 h        0.804     0.323     0.656     1.272
   414   1 h        0.804     0.358     0.569     1.185
   415   8 o        1.607    -0.684    27.301     7.052
   416   1 h        0.803     0.327     0.646     1.263
   417   1 h        0.803     0.357     0.572     1.188
   418   8 o        1.608    -0.652    26.466     6.943
   419   1 h        0.802     0.352     0.585     1.201
   420   1 h        0.806     0.305     0.705     1.318
   421   8 o        1.608    -0.665    26.794     6.986
   422   1 h        0.803     0.336     0.623     1.240
   423   1 h        0.805     0.329     0.641     1.257
   424   8 o        1.608    -0.688    27.381     7.062
   425   1 h        0.805     0.327     0.645     1.261
   426   1 h        0.803     0.350     0.588     1.205
   427   8 o        1.609    -0.652    26.470     6.944
   428   1 h        0.804     0.348     0.594     1.210
   429   1 h        0.805     0.329     0.639     1.255
   430   8 o        1.608    -0.664    26.778     6.984
   431   1 h        0.804     0.339     0.614     1.231
   432   1 h        0.804     0.337     0.619     1.235
   433   8 o        1.607    -0.687    27.377     7.062
   434   1 h        0.802     0.364     0.558     1.173
   435   1 h        0.805     0.318     0.669     1.285
   436   8 o        1.607    -0.700    27.703     7.104
   437   1 h        0.803     0.353     0.582     1.198
   438   1 h        0.803     0.360     0.566     1.182
   439   8 o        1.606    -0.685    27.308     7.053
   440   1 h        0.803     0.332     0.632     1.249
   441   1 h        0.803     0.350     0.589     1.206
   442   8 o        1.608    -0.684    27.281     7.049
   443   1 h        0.804     0.331     0.635     1.251
   444   1 h        0.804     0.343     0.604     1.221
   445   8 o        1.608    -0.666    26.819     6.989
   446   1 h        0.803     0.341     0.610     1.227
   447   1 h        0.805     0.332     0.633     1.249
   448   8 o        1.606    -0.682    27.239     7.044
   449   1 h        0.803     0.358     0.571     1.187
   450   1 h        0.803     0.326     0.647     1.264
   451   8 o        1.608    -0.697    27.619     7.093
   452   1 h        0.803     0.345     0.601     1.218
   453   1 h        0.805     0.333     0.630     1.247
   454   8 o        1.607    -0.681    27.203     7.039
   455   1 h        0.804     0.332     0.633     1.249
   456   1 h        0.803     0.340     0.613     1.230
   457   8 o        1.608    -0.684    27.283     7.050
   458   1 h        0.804     0.335     0.624     1.241
   459   1 h        0.804     0.339     0.616     1.233
   460   8 o        1.607    -0.678    27.140     7.031
   461   1 h        0.804     0.335     0.626     1.243
   462   1 h        0.803     0.329     0.641     1.258
   463   8 o        1.608    -0.693    27.524     7.081
   464   1 h        0.803     0.366     0.551     1.167
   465   1 h        0.804     0.339     0.615     1.232
   466   8 o        1.610    -0.648    26.372     6.931
   467   1 h        0.804     0.345     0.600     1.217
   468   1 h        0.805     0.318     0.669     1.285
   469   8 o        1.606    -0.670    26.934     7.004
   470   1 h        0.802     0.327     0.645     1.261
   471   1 h        0.804     0.330     0.638     1.255
   472   8 o        1.606    -0.675    27.067     7.022
   473   1 h        0.804     0.330     0.638     1.254
   474   1 h        0.802     0.343     0.605     1.222
   475   8 o        1.606    -0.711    28.003     7.142
   476   1 h        0.803     0.333     0.630     1.246
   477   1 h        0.803     0.343     0.604     1.221
   478   8 o        1.608    -0.689    27.411     7.066
   479   1 h        0.804     0.359     0.568     1.184
   480   1 h        0.804     0.327     0.646     1.262
   481   8 o        1.607    -0.704    27.806     7.117
   482   1 h        0.804     0.349     0.590     1.207
   483   1 h        0.803     0.356     0.574     1.190
   484   8 o        1.609    -0.668    26.885     6.998
   485   1 h        0.805     0.336     0.623     1.240
   486   1 h        0.805     0.339     0.614     1.231
   487   8 o        1.607    -0.694    27.541     7.083
   488   1 h        0.804     0.331     0.634     1.251
   489   1 h        0.803     0.359     0.568     1.183
   490   8 o        1.607    -0.691    27.461     7.073
   491   1 h        0.803     0.349     0.591     1.207
   492   1 h        0.804     0.331     0.635     1.252
   493   8 o        1.608    -0.666    26.825     6.990
   494   1 h        0.804     0.335     0.623     1.240
   495   1 h        0.804     0.338     0.617     1.234
   496   8 o        1.606    -0.694    27.564     7.086
   497   1 h        0.803     0.366     0.553     1.168
   498   1 h        0.804     0.339     0.614     1.231
   499   8 o        1.606    -0.698    27.669     7.099
   500   1 h        0.803     0.343     0.606     1.223
   501   1 h        0.804     0.339     0.614     1.231
   502   8 o        1.610    -0.633    25.977     6.879
   503   1 h        0.805     0.328     0.643     1.260
   504   1 h        0.805     0.338     0.617     1.234
   505   8 o        1.608    -0.681    27.218     7.041
   506   1 h        0.803     0.358     0.569     1.185
   507   1 h        0.804     0.354     0.578     1.195
   508   8 o        1.607    -0.676    27.074     7.023
   509   1 h        0.804     0.335     0.625     1.242
   510   1 h        0.803     0.332     0.632     1.249
   511   8 o        1.607    -0.692    27.490     7.076
   512   1 h        0.804     0.346     0.597     1.214
   513   1 h        0.803     0.368     0.549     1.164
   514   8 o        1.609    -0.648    26.365     6.930
   515   1 h        0.806     0.306     0.703     1.317
   516   1 h        0.804     0.347     0.596     1.212
   517   8 o        1.607    -0.691    27.474     7.074
   518   1 h        0.803     0.349     0.590     1.206
   519   1 h        0.804     0.354     0.579     1.195
   520   8 o        1.608    -0.677    27.112     7.027
   521   1 h        0.803     0.354     0.580     1.196
   522   1 h        0.804     0.329     0.640     1.257
   523   8 o        1.609    -0.671    26.959     7.008
   524   1 h        0.805     0.314     0.679     1.295
   525   1 h        0.804     0.347     0.595     1.211
   526   8 o        1.607    -0.674    27.038     7.018
   527   1 h        0.802     0.358     0.570     1.186
   528   1 h        0.806     0.309     0.695     1.309
   529   8 o        1.607    -0.690    27.444     7.070
   530   1 h        0.804     0.345     0.601     1.218
   531   1 h        0.803     0.332     0.632     1.249
   532   8 o        1.608    -0.689    27.415     7.067
   533   1 h        0.803     0.359     0.567     1.183
   534   1 h        0.804     0.337     0.619     1.236
   535   8 o        1.609    -0.691    27.472     7.074
   536   1 h        0.805     0.339     0.615     1.232
   537   1 h        0.804     0.342     0.609     1.225
   538   8 o        1.610    -0.673    27.006     7.014
   539   1 h        0.804     0.340     0.611     1.228
   540   1 h        0.804     0.340     0.611     1.228
   541   8 o        1.606    -0.696    27.616     7.093
   542   1 h        0.802     0.346     0.598     1.215
   543   1 h        0.804     0.331     0.636     1.253
   544   8 o        1.607    -0.685    27.323     7.055
   545   1 h        0.804     0.331     0.636     1.252
   546   1 h        0.803     0.340     0.611     1.228
   547   8 o        1.607    -0.689    27.428     7.068
   548   1 h        0.805     0.330     0.637     1.254
   549   1 h        0.802     0.362     0.560     1.176
   550   8 o        1.605    -0.700    27.716     7.105
   551   1 h        0.804     0.317     0.672     1.288
   552   1 h        0.802     0.361     0.563     1.179
   553   8 o        1.609    -0.670    26.931     7.004
   554   1 h        0.805     0.330     0.639     1.255
   555   1 h        0.804     0.340     0.613     1.230
   556   8 o        1.607    -0.670    26.928     7.004
   557   1 h        0.805     0.328     0.642     1.259
   558   1 h        0.802     0.338     0.616     1.233
   559   8 o        1.607    -0.695    27.567     7.086
   560   1 h        0.803     0.358     0.571     1.187
   561   1 h        0.805     0.323     0.655     1.271
   562   8 o        1.607    -0.677    27.099     7.026
   563   1 h        0.802     0.345     0.600     1.217
   564   1 h        0.805     0.321     0.661     1.277
   565   8 o        1.607    -0.671    26.951     7.007
   566   1 h        0.803     0.332     0.632     1.249
   567   1 h        0.803     0.362     0.561     1.176
   568   8 o        1.608    -0.672    26.970     7.009
   569   1 h        0.806     0.311     0.688     1.303
   570   1 h        0.803     0.347     0.596     1.212
   571   8 o        1.607    -0.692    27.501     7.078
   572   1 h        0.802     0.364     0.557     1.172
   573   1 h        0.806     0.304     0.710     1.323
   574   8 o        1.607    -0.708    27.936     7.133
   575   1 h        0.804     0.339     0.615     1.231
   576   1 h        0.803     0.344     0.603     1.220
   577   8 o        1.608    -0.685    27.316     7.054
   578   1 h        0.804     0.362     0.562     1.177
   579   1 h        0.803     0.332     0.633     1.250
   580   8 o        1.606    -0.688    27.383     7.062
   581   1 h        0.802     0.369     0.546     1.161
   582   1 h        0.804     0.330     0.638     1.255
   583   8 o        1.610    -0.668    26.861     6.995
   584   1 h        0.804     0.350     0.588     1.204
   585   1 h        0.805     0.336     0.621     1.238
   586   8 o        1.609    -0.664    26.759     6.982
   587   1 h        0.804     0.336     0.622     1.239
   588   1 h        0.805     0.329     0.640     1.257
   589   8 o        1.610    -0.663    26.743     6.980
   590   1 h        0.805     0.338     0.616     1.233
   591   1 h        0.805     0.336     0.623     1.240
   592   8 o        1.607    -0.694    27.554     7.085
   593   1 h        0.803     0.355     0.577     1.193
   594   1 h        0.804     0.330     0.638     1.255
   595   8 o        1.607    -0.659    26.649     6.967
   596   1 h        0.805     0.328     0.643     1.260
   597   1 h        0.803     0.335     0.625     1.242
   598   8 o        1.606    -0.674    27.026     7.016
   599   1 h        0.802     0.340     0.613     1.230
   600   1 h        0.804     0.326     0.647     1.264
   601   8 o        1.608    -0.688    27.400     7.065
   602   1 h        0.804     0.351     0.586     1.203
   603   1 h        0.804     0.323     0.655     1.271
   604   8 o        1.605    -0.698    27.665     7.099
   605   1 h        0.802     0.360     0.567     1.183
   606   1 h        0.803     0.324     0.653     1.270
   607   8 o        1.608    -0.691    27.472     7.074
   608   1 h        0.805     0.328     0.641     1.258
   609   1 h        0.803     0.347     0.595     1.212
   610   8 o        1.602    -0.724    28.359     7.187
   611   1 h        0.801     0.367     0.550     1.166
   612   1 h        0.802     0.329     0.640     1.256
   613   8 o        1.608    -0.650    26.411     6.936
   614   1 h        0.806     0.312     0.685     1.300
   615   1 h        0.803     0.360     0.566     1.182
   616   8 o        1.606    -0.664    26.767     6.983
   617   1 h        0.801     0.350     0.588     1.205
   618   1 h        0.806     0.310     0.691     1.306
   619   8 o        1.604    -0.710    27.989     7.140
   620   1 h        0.803     0.348     0.592     1.209
   621   1 h        0.804     0.361     0.563     1.179
   622   8 o        1.607    -0.702    27.755     7.110
   623   1 h        0.802     0.350     0.589     1.206
   624   1 h        0.804     0.319     0.667     1.283
   625   8 o        1.607    -0.692    27.505     7.078
   626   1 h        0.803     0.337     0.621     1.238
   627   1 h        0.804     0.324     0.654     1.271
   628   8 o        1.608    -0.669    26.893     6.999
   629   1 h        0.804     0.342     0.608     1.224
   630   1 h        0.804     0.337     0.620     1.237
   631   8 o        1.608    -0.691    27.469     7.074
   632   1 h        0.804     0.361     0.563     1.179
   633   1 h        0.805     0.342     0.607     1.224
   634   8 o        1.608    -0.685    27.325     7.055
   635   1 h        0.805     0.326     0.647     1.264
   636   1 h        0.803     0.355     0.576     1.192
   637   8 o        1.608    -0.685    27.316     7.054
   638   1 h        0.805     0.333     0.631     1.247
   639   1 h        0.803     0.339     0.614     1.231
   640   8 o        1.609    -0.661    26.704     6.975
   641   1 h        0.804     0.339     0.615     1.231
   642   1 h        0.805     0.332     0.632     1.249
   643   8 o        1.606    -0.686    27.335     7.056
   644   1 h        0.803     0.326     0.648     1.265
   645   1 h        0.803     0.355     0.576     1.192
   646   8 o        1.607    -0.671    26.960     7.008
   647   1 h        0.802     0.353     0.582     1.199
   648   1 h        0.805     0.313     0.682     1.297
   649   8 o        1.609    -0.674    27.016     7.015
   650   1 h        0.805     0.329     0.640     1.256
   651   1 h        0.805     0.321     0.661     1.277
   652   8 o        1.606    -0.685    27.315     7.054
   653   1 h        0.802     0.355     0.577     1.193
   654   1 h        0.804     0.327     0.646     1.262
   655   8 o        1.609    -0.653    26.490     6.946
   656   1 h        0.805     0.319     0.667     1.283
   657   1 h        0.803     0.346     0.597     1.214
   658   8 o        1.604    -0.733    28.615     7.219
   659   1 h        0.802     0.363     0.560     1.175
   660   1 h        0.802     0.354     0.578     1.195
   661   8 o        1.608    -0.682    27.227     7.042
   662   1 h        0.804     0.337     0.620     1.236
   663   1 h        0.804     0.340     0.612     1.229
   664   8 o        1.610    -0.666    26.829     6.991
   665   1 h        0.805     0.318     0.670     1.286
   666   1 h        0.804     0.354     0.579     1.196
   667   8 o        1.607    -0.672    26.986     7.011
   668   1 h        0.802     0.365     0.556     1.171
   669   1 h        0.805     0.310     0.692     1.307
   670   8 o        1.608    -0.680    27.176     7.036
   671   1 h        0.804     0.308     0.698     1.313
   672   1 h        0.804     0.349     0.592     1.208
   673   8 o        1.609    -0.672    26.986     7.011
   674   1 h        0.804     0.355     0.577     1.194
   675   1 h        0.805     0.317     0.673     1.289
   676   8 o        1.605    -0.707    27.893     7.128
   677   1 h        0.804     0.354     0.580     1.196
   678   1 h        0.802     0.354     0.580     1.197
   679   8 o        1.607    -0.687    27.381     7.062
   680   1 h        0.804     0.349     0.591     1.207
   681   1 h        0.803     0.342     0.608     1.224
   682   8 o        1.608    -0.665    26.799     6.987
   683   1 h        0.802     0.354     0.579     1.196
   684   1 h        0.806     0.317     0.672     1.287
   685   8 o        1.608    -0.684    27.299     7.052
   686   1 h        0.803     0.347     0.596     1.213
   687   1 h        0.803     0.350     0.589     1.206
   688   8 o        1.607    -0.710    27.966     7.137
   689   1 h        0.804     0.348     0.594     1.211
   690   1 h        0.803     0.360     0.565     1.181
   691   8 o        1.607    -0.663    26.739     6.979
   692   1 h        0.804     0.326     0.648     1.264
   693   1 h        0.803     0.328     0.644     1.261
   694   8 o        1.611    -0.664    26.779     6.984
   695   1 h        0.804     0.354     0.578     1.194
   696   1 h        0.804     0.334     0.626     1.243
   697   8 o        1.607    -0.663    26.740     6.979
   698   1 h        0.805     0.346     0.598     1.214
   699   1 h        0.803     0.330     0.638     1.255
   700   8 o        1.608    -0.686    27.342     7.057
   701   1 h        0.804     0.338     0.618     1.235
   702   1 h        0.804     0.331     0.634     1.251
   703   8 o        1.607    -0.677    27.109     7.027
   704   1 h        0.805     0.308     0.697     1.311
   705   1 h        0.802     0.348     0.593     1.210
   706   8 o        1.608    -0.690    27.433     7.069
   707   1 h        0.804     0.324     0.654     1.270
   708   1 h        0.804     0.330     0.637     1.254
   709   8 o        1.607    -0.680    27.172     7.035
   710   1 h        0.802     0.366     0.552     1.167
   711   1 h        0.805     0.314     0.682     1.297
   712   8 o        1.607    -0.685    27.322     7.055
   713   1 h        0.805     0.330     0.636     1.253
   714   1 h        0.803     0.345     0.601     1.218
   715   8 o        1.608    -0.681    27.221     7.042
   716   1 h        0.803     0.354     0.580     1.196
   717   1 h        0.804     0.343     0.605     1.222
   718   8 o        1.606    -0.704    27.829     7.120
   719   1 h        0.802     0.344     0.602     1.218
   720   1 h        0.804     0.348     0.592     1.209
   721   8 o        1.609    -0.664    26.781     6.985
   722   1 h        0.805     0.335     0.625     1.242
   723   1 h        0.804     0.342     0.606     1.223
   724   8 o        1.607    -0.677    27.098     7.026
   725   1 h        0.804     0.334     0.628     1.245
   726   1 h        0.803     0.331     0.635     1.252
   727   8 o        1.607    -0.696    27.617     7.093
   728   1 h        0.802     0.349     0.591     1.208
   729   1 h        0.805     0.319     0.667     1.283
   730   8 o        1.609    -0.675    27.066     7.022
   731   1 h        0.804     0.338     0.616     1.233
   732   1 h        0.805     0.330     0.639     1.255
   733   8 o        1.608    -0.669    26.894     6.999
   734   1 h        0.802     0.373     0.537     1.152
   735   1 h        0.805     0.311     0.690     1.305
   736   8 o        1.608    -0.692    27.486     7.076
   737   1 h        0.804     0.333     0.630     1.247
   738   1 h        0.803     0.345     0.600     1.217
   739   8 o        1.607    -0.692    27.500     7.078
   740   1 h        0.803     0.350     0.589     1.206
   741   1 h        0.803     0.357     0.572     1.188
   742   8 o        1.610    -0.631    25.930     6.873
   743   1 h        0.806     0.304     0.710     1.323
   744   1 h        0.804     0.344     0.602     1.219
   745   8 o        1.609    -0.660    26.670     6.970
   746   1 h        0.804     0.337     0.621     1.238
   747   1 h        0.805     0.328     0.642     1.258
   748   8 o        1.607    -0.693    27.522     7.080
   749   1 h        0.804     0.325     0.650     1.266
   750   1 h        0.803     0.348     0.594     1.211
   751   8 o        1.608    -0.671    26.955     7.007
   752   1 h        0.802     0.350     0.588     1.204
   753   1 h        0.805     0.326     0.646     1.263
   754   8 o        1.611    -0.659    26.632     6.965
   755   1 h        0.804     0.340     0.612     1.229
   756   1 h        0.805     0.326     0.647     1.263

 Mol. C6AA /au·bohr⁶  :    2900458.052047
 Mol. C8AA /au·bohr⁸  :   52633208.548252
 Mol. α(0) /au        :       2393.414159


Wiberg/Mayer (AO) data.
largest (>0.10) Wiberg bond orders for each atom

 ---------------------------------------------------------------------------
     #   Z sym  total        # sym  WBO       # sym  WBO       # sym  WBO
 ---------------------------------------------------------------------------
     1   8 o    1.812 --     2 h    0.893     3 h    0.830
     2   1 h    0.899 --     1 o    0.893
     3   1 h    0.881 --     1 o    0.830
     4   8 o    1.879 --     6 h    0.851     5 h    0.786
     5   1 h    0.872 --     4 o    0.786
     6   1 h    0.897 --     4 o    0.851
     7   8 o    1.838 --     9 h    0.846     8 h    0.836
     8   1 h    0.886 --     7 o    0.836
     9   1 h    0.886 --     7 o    0.846
    10   8 o    1.863 --    11 h    0.822    12 h    0.804
    11   1 h    0.880 --    10 o    0.822
    12   1 h    0.873 --    10 o    0.804
    13   8 o    1.885 --    15 h    0.864    14 h    0.831
    14   1 h    0.876 --    13 o    0.831
    15   1 h    0.879 --    13 o    0.864
    16   8 o    1.857 --    18 h    0.796    17 h    0.784
    17   1 h    0.870 --    16 o    0.784
    18   1 h    0.881 --    16 o    0.796
    19   8 o    1.858 --    20 h    0.821    21 h    0.814
    20   1 h    0.879 --    19 o    0.821
    21   1 h    0.876 --    19 o    0.814
    22   8 o    1.872 --    24 h    0.813    23 h    0.772
    23   1 h    0.867 --    22 o    0.772
    24   1 h    0.886 --    22 o    0.813
    25   8 o    1.853 --    27 h    0.813    26 h    0.806
    26   1 h    0.877 --    25 o    0.806
    27   1 h    0.871 --    25 o    0.813
    28   8 o    1.855 --    30 h    0.837    29 h    0.809
    29   1 h    0.876 --    28 o    0.809
    30   1 h    0.884 --    28 o    0.837
    31   8 o    1.889 --    32 h    0.832    33 h    0.807
    32   1 h    0.888 --    31 o    0.832
    33   1 h    0.871 --    31 o    0.807
    34   8 o    1.887 --    35 h    0.827    36 h    0.798
    35   1 h    0.876 --    34 o    0.827
    36   1 h    0.875 --    34 o    0.798
    37   8 o    1.830 --    38 h    0.774    39 h    0.758
    38   1 h    0.869 --    37 o    0.774
    39   1 h    0.871 --    37 o    0.758
    40   8 o    1.875 --    41 h    0.820    42 h    0.808
    41   1 h    0.878 --    40 o    0.820
    42   1 h    0.879 --    40 o    0.808
    43   8 o    1.870 --    45 h    0.808    44 h    0.791
    44   1 h    0.873 --    43 o    0.791
    45   1 h    0.871 --    43 o    0.808
    46   8 o    1.851 --    48 h    0.821    47 h    0.815
    47   1 h    0.889 --    46 o    0.815
    48   1 h    0.878 --    46 o    0.821
    49   8 o    1.842 --    50 h    0.866    51 h    0.806
    50   1 h    0.899 --    49 o    0.866
    51   1 h    0.866 --    49 o    0.806
    52   8 o    1.858 --    53 h    0.835    54 h    0.817
    53   1 h    0.875 --    52 o    0.835
    54   1 h    0.878 --    52 o    0.817
    55   8 o    1.804 --    57 h    0.879    56 h    0.842
    56   1 h    0.887 --    55 o    0.842
    57   1 h    0.898 --    55 o    0.879
    58   8 o    1.829 --    60 h    0.843    59 h    0.793
    59   1 h    0.869 --    58 o    0.793
    60   1 h    0.881 --    58 o    0.843
    61   8 o    1.823 --    63 h    0.852    62 h    0.840
    62   1 h    0.886 --    61 o    0.840
    63   1 h    0.897 --    61 o    0.852
    64   8 o    1.880 --    66 h    0.809    65 h    0.796   126 h    0.104
    65   1 h    0.865 --    64 o    0.796
    66   1 h    0.883 --    64 o    0.809
    67   8 o    1.859 --    69 h    0.843    68 h    0.813
    68   1 h    0.883 --    67 o    0.813
    69   1 h    0.877 --    67 o    0.843
    70   8 o    1.865 --    72 h    0.812    71 h    0.793
    71   1 h    0.874 --    70 o    0.793
    72   1 h    0.873 --    70 o    0.812
    73   8 o    1.853 --    75 h    0.807    74 h    0.803
    74   1 h    0.879 --    73 o    0.803
    75   1 h    0.877 --    73 o    0.807
    76   8 o    1.844 --    78 h    0.813    77 h    0.790
    77   1 h    0.878 --    76 o    0.790
    78   1 h    0.885 --    76 o    0.813
    79   8 o    1.813 --    81 h    0.877    80 h    0.828
    80   1 h    0.871 --    79 o    0.828
    81   1 h    0.903 --    79 o    0.877
    82   8 o    1.876 --    84 h    0.805    83 h    0.784
    83   1 h    0.868 --    82 o    0.784
    84   1 h    0.877 --    82 o    0.805
    85   8 o    1.807 --    86 h    0.855    87 h    0.850
    86   1 h    0.900 --    85 o    0.855
    87   1 h    0.891 --    85 o    0.850
    88   8 o    1.843 --    89 h    0.833    90 h    0.827
    89   1 h    0.893 --    88 o    0.833
    90   1 h    0.889 --    88 o    0.827
    91   8 o    1.808 --    93 h    0.863    92 h    0.853
    92   1 h    0.886 --    91 o    0.853
    93   1 h    0.894 --    91 o    0.863
    94   8 o    1.834 --    96 h    0.864    95 h    0.826
    95   1 h    0.890 --    94 o    0.826
    96   1 h    0.895 --    94 o    0.864
    97   8 o    1.831 --    98 h    0.808    99 h    0.803
    98   1 h    0.876 --    97 o    0.808
    99   1 h    0.878 --    97 o    0.803
   100   8 o    1.847 --   102 h    0.828   101 h    0.819
   101   1 h    0.884 --   100 o    0.819
   102   1 h    0.888 --   100 o    0.828
   103   8 o    1.846 --   104 h    0.859   105 h    0.835
   104   1 h    0.896 --   103 o    0.859
   105   1 h    0.886 --   103 o    0.835
   106   8 o    1.862 --   107 h    0.871   108 h    0.846
   107   1 h    0.898 --   106 o    0.871
   108   1 h    0.890 --   106 o    0.846
   109   8 o    1.847 --   110 h    0.833   111 h    0.829
   110   1 h    0.893 --   109 o    0.833
   111   1 h    0.881 --   109 o    0.829
   112   8 o    1.861 --   114 h    0.817   113 h    0.813
   113   1 h    0.877 --   112 o    0.813
   114   1 h    0.876 --   112 o    0.817
   115   8 o    1.845 --   116 h    0.813   117 h    0.799
   116   1 h    0.877 --   115 o    0.813
   117   1 h    0.878 --   115 o    0.799
   118   8 o    1.884 --   119 h    0.844   120 h    0.824
   119   1 h    0.889 --   118 o    0.844
   120   1 h    0.884 --   118 o    0.824
   121   8 o    1.842 --   122 h    0.899   123 h    0.796
   122   1 h    0.906 --   121 o    0.899
   123   1 h    0.878 --   121 o    0.796
   124   8 o    1.862 --   125 h    0.810   126 h    0.760
   125   1 h    0.876 --   124 o    0.810
   126   1 h    0.870 --   124 o    0.760    64 o    0.104
   127   8 o    1.842 --   129 h    0.831   128 h    0.828
   128   1 h    0.882 --   127 o    0.828
   129   1 h    0.877 --   127 o    0.831
   130   8 o    1.803 --   131 h    0.869   132 h    0.814
   131   1 h    0.896 --   130 o    0.869
   132   1 h    0.878 --   130 o    0.814
   133   8 o    1.831 --   135 h    0.830   134 h    0.796
   134   1 h    0.872 --   133 o    0.796
   135   1 h    0.891 --   133 o    0.830
   136   8 o    1.814 --   137 h    0.831   138 h    0.812
   137   1 h    0.893 --   136 o    0.831
   138   1 h    0.874 --   136 o    0.812
   139   8 o    1.804 --   140 h    0.838   141 h    0.834
   140   1 h    0.887 --   139 o    0.838
   141   1 h    0.888 --   139 o    0.834
   142   8 o    1.866 --   144 h    0.836   143 h    0.815
   143   1 h    0.882 --   142 o    0.815
   144   1 h    0.894 --   142 o    0.836
   145   8 o    1.856 --   146 h    0.853   147 h    0.797
   146   1 h    0.892 --   145 o    0.853
   147   1 h    0.883 --   145 o    0.797
   148   8 o    1.859 --   150 h    0.806   149 h    0.777
   149   1 h    0.864 --   148 o    0.777
   150   1 h    0.882 --   148 o    0.806
   151   8 o    1.836 --   153 h    0.903   152 h    0.835
   152   1 h    0.890 --   151 o    0.835
   153   1 h    0.913 --   151 o    0.903
   154   8 o    1.827 --   156 h    0.839   155 h    0.832
   155   1 h    0.879 --   154 o    0.832
   156   1 h    0.891 --   154 o    0.839
   157   8 o    1.842 --   159 h    0.849   158 h    0.826
   158   1 h    0.885 --   157 o    0.826
   159   1 h    0.888 --   157 o    0.849
   160   8 o    1.878 --   161 h    0.875   162 h    0.807
   161   1 h    0.896 --   160 o    0.875
   162   1 h    0.876 --   160 o    0.807
   163   8 o    1.808 --   165 h    0.877   164 h    0.853
   164   1 h    0.889 --   163 o    0.853
   165   1 h    0.894 --   163 o    0.877
   166   8 o    1.858 --   167 h    0.827   168 h    0.815
   167   1 h    0.887 --   166 o    0.827
   168   1 h    0.871 --   166 o    0.815
   169   8 o    1.859 --   171 h    0.825   170 h    0.790
   170   1 h    0.873 --   169 o    0.790
   171   1 h    0.888 --   169 o    0.825
   172   8 o    1.847 --   173 h    0.815   174 h    0.759
   173   1 h    0.886 --   172 o    0.815
   174   1 h    0.865 --   172 o    0.759
   175   8 o    1.849 --   177 h    0.887   176 h    0.813
   176   1 h    0.877 --   175 o    0.813
   177   1 h    0.908 --   175 o    0.887
   178   8 o    1.868 --   180 h    0.855   179 h    0.823
   179   1 h    0.890 --   178 o    0.823
   180   1 h    0.896 --   178 o    0.855
   181   8 o    1.810 --   183 h    0.866   182 h    0.818
   182   1 h    0.882 --   181 o    0.818
   183   1 h    0.895 --   181 o    0.866
   184   8 o    1.875 --   186 h    0.814   185 h    0.799
   185   1 h    0.877 --   184 o    0.799
   186   1 h    0.873 --   184 o    0.814
   187   8 o    1.800 --   188 h    0.849   189 h    0.771
   188   1 h    0.896 --   187 o    0.849
   189   1 h    0.867 --   187 o    0.771
   190   8 o    1.828 --   191 h    0.819   192 h    0.785
   191   1 h    0.890 --   190 o    0.819
   192   1 h    0.885 --   190 o    0.785
   193   8 o    1.899 --   194 h    0.842   195 h    0.795
   194   1 h    0.880 --   193 o    0.842
   195   1 h    0.876 --   193 o    0.795
   196   8 o    1.857 --   197 h    0.834   198 h    0.809
   197   1 h    0.878 --   196 o    0.834
   198   1 h    0.888 --   196 o    0.809
   199   8 o    1.885 --   200 h    0.820   201 h    0.785
   200   1 h    0.885 --   199 o    0.820
   201   1 h    0.863 --   199 o    0.785
   202   8 o    1.880 --   204 h    0.828   203 h    0.825
   203   1 h    0.883 --   202 o    0.825
   204   1 h    0.886 --   202 o    0.828
   205   8 o    1.858 --   206 h    0.821   207 h    0.810
   206   1 h    0.878 --   205 o    0.821
   207   1 h    0.880 --   205 o    0.810
   208   8 o    1.802 --   209 h    0.863   210 h    0.838
   209   1 h    0.891 --   208 o    0.863
   210   1 h    0.885 --   208 o    0.838
   211   8 o    1.860 --   213 h    0.862   212 h    0.836
   212   1 h    0.888 --   211 o    0.836
   213   1 h    0.888 --   211 o    0.862
   214   8 o    1.838 --   215 h    0.848   216 h    0.816
   215   1 h    0.885 --   214 o    0.848
   216   1 h    0.879 --   214 o    0.816
   217   8 o    1.887 --   219 h    0.824   218 h    0.784
   218   1 h    0.870 --   217 o    0.784
   219   1 h    0.877 --   217 o    0.824
   220   8 o    1.878 --   222 h    0.841   221 h    0.824
   221   1 h    0.873 --   220 o    0.824
   222   1 h    0.891 --   220 o    0.841
   223   8 o    1.838 --   225 h    0.810   224 h    0.791
   224   1 h    0.884 --   223 o    0.791
   225   1 h    0.878 --   223 o    0.810
   226   8 o    1.846 --   227 h    0.810   228 h    0.792
   227   1 h    0.882 --   226 o    0.810
   228   1 h    0.871 --   226 o    0.792
   229   8 o    1.863 --   230 h    0.842   231 h    0.826
   230   1 h    0.890 --   229 o    0.842
   231   1 h    0.888 --   229 o    0.826
   232   8 o    1.828 --   233 h    0.873   234 h    0.752
   233   1 h    0.902 --   232 o    0.873
   234   1 h    0.863 --   232 o    0.752
   235   8 o    1.885 --   236 h    0.812   237 h    0.805
   236   1 h    0.877 --   235 o    0.812
   237   1 h    0.873 --   235 o    0.805
   238   8 o    1.840 --   240 h    0.857   239 h    0.813
   239   1 h    0.887 --   238 o    0.813
   240   1 h    0.890 --   238 o    0.857
   241   8 o    1.797 --   242 h    0.868   243 h    0.832
   242   1 h    0.893 --   241 o    0.868
   243   1 h    0.883 --   241 o    0.832
   244   8 o    1.809 --   245 h    0.880   246 h    0.835
   245   1 h    0.895 --   244 o    0.880
   246   1 h    0.883 --   244 o    0.835
   247   8 o    1.883 --   248 h    0.824   249 h    0.799
   248   1 h    0.891 --   247 o    0.824
   249   1 h    0.871 --   247 o    0.799
   250   8 o    1.859 --   252 h    0.817   251 h    0.809
   251   1 h    0.870 --   250 o    0.809
   252   1 h    0.884 --   250 o    0.817
   253   8 o    1.850 --   254 h    0.878   255 h    0.766
   254   1 h    0.900 --   253 o    0.878
   255   1 h    0.866 --   253 o    0.766
   256   8 o    1.872 --   258 h    0.817   257 h    0.807
   257   1 h    0.874 --   256 o    0.807
   258   1 h    0.873 --   256 o    0.817
   259   8 o    1.826 --   261 h    0.838   260 h    0.818
   260   1 h    0.868 --   259 o    0.818
   261   1 h    0.894 --   259 o    0.838
   262   8 o    1.805 --   263 h    0.883   264 h    0.820
   263   1 h    0.897 --   262 o    0.883
   264   1 h    0.877 --   262 o    0.820
   265   8 o    1.842 --   266 h    0.831   267 h    0.808
   266   1 h    0.889 --   265 o    0.831
   267   1 h    0.887 --   265 o    0.808
   268   8 o    1.835 --   269 h    0.849   270 h    0.816
   269   1 h    0.889 --   268 o    0.849
   270   1 h    0.877 --   268 o    0.816
   271   8 o    1.868 --   273 h    0.803   272 h    0.793
   272   1 h    0.877 --   271 o    0.793
   273   1 h    0.873 --   271 o    0.803
   274   8 o    1.870 --   275 h    0.862   276 h    0.807
   275   1 h    0.902 --   274 o    0.862
   276   1 h    0.877 --   274 o    0.807
   277   8 o    1.819 --   278 h    0.860   279 h    0.812
   278   1 h    0.890 --   277 o    0.860
   279   1 h    0.877 --   277 o    0.812
   280   8 o    1.875 --   282 h    0.829   281 h    0.794
   281   1 h    0.875 --   280 o    0.794
   282   1 h    0.891 --   280 o    0.829
   283   8 o    1.852 --   285 h    0.851   284 h    0.844
   284   1 h    0.895 --   283 o    0.844
   285   1 h    0.887 --   283 o    0.851
   286   8 o    1.875 --   288 h    0.801   287 h    0.790
   287   1 h    0.872 --   286 o    0.790
   288   1 h    0.873 --   286 o    0.801
   289   8 o    1.812 --   291 h    0.891   290 h    0.825
   290   1 h    0.880 --   289 o    0.825
   291   1 h    0.899 --   289 o    0.891
   292   8 o    1.855 --   293 h    0.898   294 h    0.846
   293   1 h    0.902 --   292 o    0.898
   294   1 h    0.888 --   292 o    0.846
   295   8 o    1.874 --   296 h    0.814   297 h    0.807
   296   1 h    0.875 --   295 o    0.814
   297   1 h    0.872 --   295 o    0.807
   298   8 o    1.891 --   300 h    0.840   299 h    0.808
   299   1 h    0.873 --   298 o    0.808
   300   1 h    0.877 --   298 o    0.840
   301   8 o    1.876 --   302 h    0.841   303 h    0.812
   302   1 h    0.896 --   301 o    0.841
   303   1 h    0.874 --   301 o    0.812
   304   8 o    1.852 --   306 h    0.897   305 h    0.777
   305   1 h    0.873 --   304 o    0.777
   306   1 h    0.902 --   304 o    0.897
   307   8 o    1.867 --   309 h    0.837   308 h    0.782
   308   1 h    0.871 --   307 o    0.782
   309   1 h    0.894 --   307 o    0.837
   310   8 o    1.872 --   312 h    0.839   311 h    0.818
   311   1 h    0.890 --   310 o    0.818
   312   1 h    0.880 --   310 o    0.839
   313   8 o    1.834 --   315 h    0.892   314 h    0.816
   314   1 h    0.877 --   313 o    0.816
   315   1 h    0.902 --   313 o    0.892
   316   8 o    1.838 --   317 h    0.833   318 h    0.806
   317   1 h    0.893 --   316 o    0.833
   318   1 h    0.873 --   316 o    0.806
   319   8 o    1.812 --   321 h    0.869   320 h    0.836
   320   1 h    0.884 --   319 o    0.836
   321   1 h    0.894 --   319 o    0.869
   322   8 o    1.859 --   323 h    0.863   324 h    0.839
   323   1 h    0.890 --   322 o    0.863
   324   1 h    0.886 --   322 o    0.839
   325   8 o    1.818 --   327 h    0.852   326 h    0.797
   326   1 h    0.874 --   325 o    0.797
   327   1 h    0.897 --   325 o    0.852
   328   8 o    1.844 --   330 h    0.845   329 h    0.835
   329   1 h    0.892 --   328 o    0.835
   330   1 h    0.897 --   328 o    0.845
   331   8 o    1.811 --   332 h    0.840   333 h    0.825
   332   1 h    0.884 --   331 o    0.840
   333   1 h    0.891 --   331 o    0.825
   334   8 o    1.819 --   335 h    0.849   336 h    0.800
   335   1 h    0.897 --   334 o    0.849
   336   1 h    0.874 --   334 o    0.800
   337   8 o    1.871 --   339 h    0.824   338 h    0.808
   338   1 h    0.869 --   337 o    0.808
   339   1 h    0.888 --   337 o    0.824
   340   8 o    1.869 --   342 h    0.814   341 h    0.814
   341   1 h    0.874 --   340 o    0.814
   342   1 h    0.880 --   340 o    0.814
   343   8 o    1.881 --   344 h    0.826   345 h    0.817
   344   1 h    0.876 --   343 o    0.826
   345   1 h    0.890 --   343 o    0.817
   346   8 o    1.866 --   348 h    0.813   347 h    0.809
   347   1 h    0.868 --   346 o    0.809
   348   1 h    0.882 --   346 o    0.813
   349   8 o    1.843 --   350 h    0.856   351 h    0.836
   350   1 h    0.890 --   349 o    0.856
   351   1 h    0.887 --   349 o    0.836
   352   8 o    1.859 --   354 h    0.853   353 h    0.789
   353   1 h    0.869 --   352 o    0.789
   354   1 h    0.890 --   352 o    0.853
   355   8 o    1.827 --   357 h    0.832   356 h    0.781
   356   1 h    0.871 --   355 o    0.781
   357   1 h    0.894 --   355 o    0.832
   358   8 o    1.868 --   360 h    0.859   359 h    0.788
   359   1 h    0.868 --   358 o    0.788
   360   1 h    0.901 --   358 o    0.859
   361   8 o    1.848 --   362 h    0.860   363 h    0.844
   362   1 h    0.889 --   361 o    0.860
   363   1 h    0.886 --   361 o    0.844
[...]
   371   1 h    0.881 --   370 o    0.837
   372   1 h    0.889 --   370 o    0.860
   373   8 o    1.817 --   374 h    0.863   375 h    0.833
   374   1 h    0.888 --   373 o    0.863
   375   1 h    0.883 --   373 o    0.833
   376   8 o    1.888 --   378 h    0.856   377 h    0.791
   377   1 h    0.871 --   376 o    0.791
   378   1 h    0.885 --   376 o    0.856
   379   8 o    1.855 --   381 h    0.879   380 h    0.748
   380   1 h    0.862 --   379 o    0.748   694 o    0.103
   381   1 h    0.903 --   379 o    0.879
   382   8 o    1.831 --   384 h    0.896   383 h    0.785
   383   1 h    0.863 --   382 o    0.785
   384   1 h    0.904 --   382 o    0.896
   385   8 o    1.874 --   387 h    0.854   386 h    0.808
   386   1 h    0.882 --   385 o    0.808
   387   1 h    0.899 --   385 o    0.854
   388   8 o    1.886 --   389 h    0.889   390 h    0.790
   389   1 h    0.901 --   388 o    0.889
   390   1 h    0.883 --   388 o    0.790
   391   8 o    1.842 --   392 h    0.886   393 h    0.828
   392   1 h    0.894 --   391 o    0.886
   393   1 h    0.878 --   391 o    0.828
   394   8 o    1.854 --   395 h    0.830   396 h    0.823
   395   1 h    0.877 --   394 o    0.830
   396   1 h    0.892 --   394 o    0.823
   397   8 o    1.854 --   398 h    0.863   399 h    0.782
   398   1 h    0.895 --   397 o    0.863
   399   1 h    0.868 --   397 o    0.782
   400   8 o    1.833 --   402 h    0.860   401 h    0.845
   401   1 h    0.876 --   400 o    0.845
   402   1 h    0.895 --   400 o    0.860
   403   8 o    1.867 --   405 h    0.811   404 h    0.785
   404   1 h    0.868 --   403 o    0.785
   405   1 h    0.886 --   403 o    0.811
   406   8 o    1.860 --   407 h    0.819   408 h    0.797
   407   1 h    0.886 --   406 o    0.819
   408   1 h    0.876 --   406 o    0.797
   409   8 o    1.827 --   411 h    0.854   410 h    0.836
   410   1 h    0.885 --   409 o    0.836
   411   1 h    0.884 --   409 o    0.854
   412   8 o    1.849 --   413 h    0.847   414 h    0.815
   413   1 h    0.896 --   412 o    0.847
   414   1 h    0.871 --   412 o    0.815
   415   8 o    1.859 --   416 h    0.837   417 h    0.815
   416   1 h    0.893 --   415 o    0.837
   417   1 h    0.872 --   415 o    0.815
   418   8 o    1.849 --   420 h    0.904   419 h    0.805
   419   1 h    0.876 --   418 o    0.805
   420   1 h    0.907 --   418 o    0.904
   421   8 o    1.843 --   423 h    0.872   422 h    0.823
   422   1 h    0.887 --   421 o    0.823
   423   1 h    0.892 --   421 o    0.872
   424   8 o    1.823 --   425 h    0.857   426 h    0.809
   425   1 h    0.893 --   424 o    0.857
   426   1 h    0.877 --   424 o    0.809
   427   8 o    1.861 --   429 h    0.866   428 h    0.840
   428   1 h    0.879 --   427 o    0.840
   429   1 h    0.891 --   427 o    0.866
   430   8 o    1.847 --   431 h    0.846   432 h    0.846
   431   1 h    0.885 --   430 o    0.846
   432   1 h    0.886 --   430 o    0.846
   433   8 o    1.824 --   435 h    0.880   434 h    0.794
   434   1 h    0.868 --   433 o    0.794
   435   1 h    0.899 --   433 o    0.880
   436   8 o    1.880 --   437 h    0.801   438 h    0.792
   437   1 h    0.875 --   436 o    0.801
   438   1 h    0.871 --   436 o    0.792
   439   8 o    1.869 --   440 h    0.822   441 h    0.798
   440   1 h    0.889 --   439 o    0.822
   441   1 h    0.878 --   439 o    0.798
   442   8 o    1.815 --   443 h    0.861   444 h    0.841
   443   1 h    0.890 --   442 o    0.861
   444   1 h    0.882 --   442 o    0.841
   445   8 o    1.850 --   447 h    0.859   446 h    0.824
   446   1 h    0.884 --   445 o    0.824
   447   1 h    0.890 --   445 o    0.859
   448   8 o    1.875 --   450 h    0.840   449 h    0.793
   449   1 h    0.872 --   448 o    0.793
   450   1 h    0.894 --   448 o    0.840
   451   8 o    1.809 --   453 h    0.864   452 h    0.818
   452   1 h    0.881 --   451 o    0.818
   453   1 h    0.889 --   451 o    0.864
   454   8 o    1.853 --   455 h    0.830   456 h    0.817
   455   1 h    0.890 --   454 o    0.830
   456   1 h    0.885 --   454 o    0.817
   457   8 o    1.803 --   459 h    0.850   458 h    0.844
   458   1 h    0.888 --   457 o    0.844
   459   1 h    0.885 --   457 o    0.850
   460   8 o    1.833 --   461 h    0.839   462 h    0.833
   461   1 h    0.888 --   460 o    0.839
   462   1 h    0.892 --   460 o    0.833
   463   8 o    1.848 --   465 h    0.850   464 h    0.797
   464   1 h    0.866 --   463 o    0.797
   465   1 h    0.885 --   463 o    0.850
   466   8 o    1.836 --   468 h    0.892   467 h    0.845
   467   1 h    0.881 --   466 o    0.845
   468   1 h    0.899 --   466 o    0.892
   469   8 o    1.845 --   471 h    0.855   470 h    0.817
   470   1 h    0.893 --   469 o    0.817
   471   1 h    0.891 --   469 o    0.855
   472   8 o    1.861 --   473 h    0.847   474 h    0.799
   473   1 h    0.891 --   472 o    0.847
   474   1 h    0.882 --   472 o    0.799
   475   8 o    1.785 --   476 h    0.819   477 h    0.814
   476   1 h    0.889 --   475 o    0.819
   477   1 h    0.882 --   475 o    0.814
   478   8 o    1.821 --   480 h    0.857   479 h    0.825
   479   1 h    0.871 --   478 o    0.825
   480   1 h    0.893 --   478 o    0.857
   481   8 o    1.850 --   482 h    0.818   483 h    0.794
   482   1 h    0.878 --   481 o    0.818
   483   1 h    0.873 --   481 o    0.794
   484   8 o    1.815 --   485 h    0.863   486 h    0.849
   485   1 h    0.887 --   484 o    0.863
   486   1 h    0.885 --   484 o    0.849
   487   8 o    1.835 --   488 h    0.843   489 h    0.810
   488   1 h    0.890 --   487 o    0.843
   489   1 h    0.871 --   487 o    0.810
   490   8 o    1.831 --   492 h    0.847   491 h    0.816
   491   1 h    0.878 --   490 o    0.816
   492   1 h    0.891 --   490 o    0.847
   493   8 o    1.844 --   494 h    0.851   495 h    0.834
   494   1 h    0.887 --   493 o    0.851
   495   1 h    0.885 --   493 o    0.834
   496   8 o    1.877 --   498 h    0.831   497 h    0.769
   497   1 h    0.866 --   496 o    0.769
   498   1 h    0.885 --   496 o    0.831
   499   8 o    1.823 --   501 h    0.831   500 h    0.815
   500   1 h    0.883 --   499 o    0.815
   501   1 h    0.885 --   499 o    0.831
   502   8 o    1.866 --   503 h    0.880   504 h    0.857
   503   1 h    0.892 --   502 o    0.880
   504   1 h    0.886 --   502 o    0.857
   505   8 o    1.875 --   507 h    0.830   506 h    0.816
   506   1 h    0.872 --   505 o    0.816
   507   1 h    0.874 --   505 o    0.830
   508   8 o    1.836 --   509 h    0.839   510 h    0.835
   509   1 h    0.888 --   508 o    0.839
   510   1 h    0.890 --   508 o    0.835
   511   8 o    1.873 --   512 h    0.829   513 h    0.789
   512   1 h    0.880 --   511 o    0.829
   513   1 h    0.865 --   511 o    0.789
   514   8 o    1.846 --   515 h    0.892   516 h    0.822
   515   1 h    0.906 --   514 o    0.892
   516   1 h    0.880 --   514 o    0.822
   517   8 o    1.851 --   518 h    0.820   519 h    0.813
   518   1 h    0.878 --   517 o    0.820
   519   1 h    0.875 --   517 o    0.813
   520   8 o    1.843 --   522 h    0.852   521 h    0.820
   521   1 h    0.875 --   520 o    0.820
   522   1 h    0.892 --   520 o    0.852
   523   8 o    1.804 --   524 h    0.889   525 h    0.826
   524   1 h    0.901 --   523 o    0.889
   525   1 h    0.879 --   523 o    0.826
   526   8 o    1.825 --   528 h    0.897   527 h    0.789
   527   1 h    0.872 --   526 o    0.789
   528   1 h    0.904 --   526 o    0.897
   529   8 o    1.819 --   530 h    0.835   531 h    0.824
   530   1 h    0.881 --   529 o    0.835
   531   1 h    0.890 --   529 o    0.824
   532   8 o    1.844 --   534 h    0.843   533 h    0.812
   533   1 h    0.871 --   532 o    0.812
   534   1 h    0.886 --   532 o    0.843
   535   8 o    1.812 --   536 h    0.851   537 h    0.830
   536   1 h    0.885 --   535 o    0.851
   537   1 h    0.883 --   535 o    0.830
   538   8 o    1.854 --   539 h    0.842   540 h    0.841
   539   1 h    0.884 --   538 o    0.842
   540   1 h    0.884 --   538 o    0.841
   541   8 o    1.835 --   543 h    0.840   542 h    0.802
   542   1 h    0.880 --   541 o    0.802
   543   1 h    0.891 --   541 o    0.840
   544   8 o    1.827 --   545 h    0.842   546 h    0.821
   545   1 h    0.891 --   544 o    0.842
   546   1 h    0.884 --   544 o    0.821
   547   8 o    1.843 --   548 h    0.853   549 h    0.791
   548   1 h    0.891 --   547 o    0.853
   549   1 h    0.869 --   547 o    0.791
   550   8 o    1.828 --   551 h    0.852   552 h    0.778
   551   1 h    0.899 --   550 o    0.852
   552   1 h    0.869 --   550 o    0.778
   553   8 o    1.821 --   554 h    0.870   555 h    0.845
   554   1 h    0.891 --   553 o    0.870
   555   1 h    0.885 --   553 o    0.845
   556   8 o    1.854 --   557 h    0.855   558 h    0.817
   557   1 h    0.892 --   556 o    0.855
   558   1 h    0.885 --   556 o    0.817
   559   8 o    1.803 --   561 h    0.860   560 h    0.803
   560   1 h    0.872 --   559 o    0.803
   561   1 h    0.895 --   559 o    0.860
   562   8 o    1.832 --   564 h    0.868   563 h    0.806
   563   1 h    0.881 --   562 o    0.806
   564   1 h    0.897 --   562 o    0.868
   565   8 o    1.894 --   566 h    0.824   567 h    0.815
   566   1 h    0.890 --   565 o    0.824
   567   1 h    0.869 --   565 o    0.815
   568   8 o    1.800 --   569 h    0.890   570 h    0.817
   569   1 h    0.903 --   568 o    0.890
   570   1 h    0.880 --   568 o    0.817
   571   8 o    1.809 --   573 h    0.899   572 h    0.771
   572   1 h    0.867 --   571 o    0.771
   573   1 h    0.908 --   571 o    0.899
   574   8 o    1.831 --   575 h    0.822   576 h    0.793
   575   1 h    0.885 --   574 o    0.822
   576   1 h    0.882 --   574 o    0.793
   577   8 o    1.840 --   579 h    0.832   578 h    0.827
   578   1 h    0.869 --   577 o    0.827
   579   1 h    0.890 --   577 o    0.832
   580   8 o    1.866 --   582 h    0.850   581 h    0.779
   581   1 h    0.864 --   580 o    0.779
   582   1 h    0.891 --   580 o    0.850
   583   8 o    1.854 --   585 h    0.855   584 h    0.822
   584   1 h    0.877 --   583 o    0.822
   585   1 h    0.887 --   583 o    0.855
   586   8 o    1.836 --   588 h    0.867   587 h    0.841
   587   1 h    0.887 --   586 o    0.841
   588   1 h    0.892 --   586 o    0.867
   589   8 o    1.818 --   590 h    0.872   591 h    0.864
   590   1 h    0.885 --   589 o    0.872
   591   1 h    0.887 --   589 o    0.864
   592   8 o    1.836 --   594 h    0.847   593 h    0.800
   593   1 h    0.874 --   592 o    0.800
   594   1 h    0.891 --   592 o    0.847
   595   8 o    1.870 --   596 h    0.867   597 h    0.805
   596   1 h    0.893 --   595 o    0.867
   597   1 h    0.888 --   595 o    0.805
   598   8 o    1.856 --   600 h    0.844   599 h    0.812
   599   1 h    0.884 --   598 o    0.812
   600   1 h    0.894 --   598 o    0.844
   601   8 o    1.815 --   603 h    0.845   602 h    0.825
   602   1 h    0.877 --   601 o    0.825
   603   1 h    0.895 --   601 o    0.845
   604   8 o    1.840 --   606 h    0.831   605 h    0.790
   605   1 h    0.871 --   604 o    0.790
   606   1 h    0.895 --   604 o    0.831
   607   8 o    1.812 --   608 h    0.874   609 h    0.816
   608   1 h    0.892 --   607 o    0.874
   609   1 h    0.880 --   607 o    0.816
   610   8 o    1.849 --   612 h    0.814   611 h    0.755
   611   1 h    0.865 --   610 o    0.755   685 o    0.106
   612   1 h    0.892 --   610 o    0.814
   613   8 o    1.865 --   614 h    0.899   615 h    0.802
   614   1 h    0.902 --   613 o    0.899
   615   1 h    0.871 --   613 o    0.802
   616   8 o    1.842 --   618 h    0.899   617 h    0.788
   617   1 h    0.877 --   616 o    0.788
   618   1 h    0.904 --   616 o    0.899
   619   8 o    1.862 --   620 h    0.806   621 h    0.776
   620   1 h    0.879 --   619 o    0.806
   621   1 h    0.870 --   619 o    0.776
   622   8 o    1.796 --   624 h    0.855   623 h    0.802
   623   1 h    0.878 --   622 o    0.802
   624   1 h    0.898 --   622 o    0.855
   625   8 o    1.801 --   627 h    0.846   626 h    0.828
   626   1 h    0.887 --   625 o    0.828
   627   1 h    0.895 --   625 o    0.846
   628   8 o    1.854 --   630 h    0.843   629 h    0.842
   629   1 h    0.883 --   628 o    0.842
   630   1 h    0.887 --   628 o    0.843
   631   8 o    1.858 --   633 h    0.831   632 h    0.806
   632   1 h    0.870 --   631 o    0.806
   633   1 h    0.883 --   631 o    0.831
   634   8 o    1.816 --   635 h    0.865   636 h    0.818
   635   1 h    0.893 --   634 o    0.865
   636   1 h    0.874 --   634 o    0.818
   637   8 o    1.814 --   638 h    0.861   639 h    0.825
   638   1 h    0.889 --   637 o    0.861
   639   1 h    0.885 --   637 o    0.825
   640   8 o    1.843 --   642 h    0.856   641 h    0.843
   641   1 h    0.885 --   640 o    0.843
   642   1 h    0.890 --   640 o    0.856
   643   8 o    1.865 --   644 h    0.822   645 h    0.799
   644   1 h    0.894 --   643 o    0.822
   645   1 h    0.874 --   643 o    0.799
   646   8 o    1.829 --   648 h    0.881   647 h    0.802
   647   1 h    0.876 --   646 o    0.802
   648   1 h    0.902 --   646 o    0.881
   649   8 o    1.794 --   651 h    0.862   650 h    0.852
   650   1 h    0.892 --   649 o    0.852
   651   1 h    0.897 --   649 o    0.862
   652   8 o    1.877 --   654 h    0.820   653 h    0.790
   653   1 h    0.874 --   652 o    0.790
   654   1 h    0.893 --   652 o    0.820
   655   8 o    1.838 --   656 h    0.889   657 h    0.826
   656   1 h    0.898 --   655 o    0.889
   657   1 h    0.880 --   655 o    0.826
   658   8 o    1.837 --   660 h    0.789   659 h    0.764
   659   1 h    0.868 --   658 o    0.764
   660   1 h    0.874 --   658 o    0.789
   661   8 o    1.829 --   663 h    0.848   662 h    0.839
   662   1 h    0.886 --   661 o    0.839
   663   1 h    0.884 --   661 o    0.848
   664   8 o    1.813 --   665 h    0.885   666 h    0.833
   665   1 h    0.899 --   664 o    0.885
   666   1 h    0.875 --   664 o    0.833
   667   8 o    1.847 --   669 h    0.898   668 h    0.781
   668   1 h    0.867 --   667 o    0.781
   669   1 h    0.904 --   667 o    0.898
   670   8 o    1.821 --   671 h    0.853   672 h    0.819
   671   1 h    0.905 --   670 o    0.853
   672   1 h    0.878 --   670 o    0.819
   673   8 o    1.818 --   675 h    0.889   674 h    0.822
   674   1 h    0.874 --   673 o    0.822
   675   1 h    0.900 --   673 o    0.889
   676   8 o    1.865 --   677 h    0.808   678 h    0.784
   677   1 h    0.875 --   676 o    0.808
   678   1 h    0.875 --   676 o    0.784
   679   8 o    1.856 --   680 h    0.824   681 h    0.816
   680   1 h    0.878 --   679 o    0.824
   681   1 h    0.883 --   679 o    0.816
   682   8 o    1.844 --   684 h    0.893   683 h    0.801
   683   1 h    0.875 --   682 o    0.801
   684   1 h    0.899 --   682 o    0.893
   685   8 o    1.887 --   686 h    0.820   687 h    0.796   611 h    0.106
   686   1 h    0.880 --   685 o    0.820
   687   1 h    0.878 --   685 o    0.796
   688   8 o    1.831 --   689 h    0.805   690 h    0.797
   689   1 h    0.879 --   688 o    0.805
   690   1 h    0.870 --   688 o    0.797
   691   8 o    1.876 --   692 h    0.844   693 h    0.817
   692   1 h    0.894 --   691 o    0.844
   693   1 h    0.893 --   691 o    0.817
   694   8 o    1.876 --   696 h    0.839   695 h    0.823   380 h    0.103
   695   1 h    0.874 --   694 o    0.823
   696   1 h    0.888 --   694 o    0.839
   697   8 o    1.882 --   698 h    0.853   699 h    0.814
   698   1 h    0.880 --   697 o    0.853
   699   1 h    0.891 --   697 o    0.814
   700   8 o    1.816 --   701 h    0.844   702 h    0.843
   701   1 h    0.886 --   700 o    0.844
   702   1 h    0.890 --   700 o    0.843
   703   8 o    1.815 --   704 h    0.896   705 h    0.792
   704   1 h    0.905 --   703 o    0.896
   705   1 h    0.879 --   703 o    0.792
   706   8 o    1.781 --   708 h    0.852   707 h    0.839
   707   1 h    0.895 --   706 o    0.839
   708   1 h    0.891 --   706 o    0.852
   709   8 o    1.835 --   711 h    0.884   710 h    0.786
   710   1 h    0.866 --   709 o    0.786
   711   1 h    0.902 --   709 o    0.884
   712   8 o    1.818 --   713 h    0.863   714 h    0.819
   713   1 h    0.891 --   712 o    0.863
   714   1 h    0.881 --   712 o    0.819
   715   8 o    1.863 --   717 h    0.829   716 h    0.805
   716   1 h    0.875 --   715 o    0.805
   717   1 h    0.882 --   715 o    0.829
   718   8 o    1.841 --   720 h    0.817   719 h    0.790
   719   1 h    0.881 --   718 o    0.790
   720   1 h    0.879 --   718 o    0.817
   721   8 o    1.837 --   722 h    0.867   723 h    0.850
   722   1 h    0.888 --   721 o    0.867
   723   1 h    0.883 --   721 o    0.850
   724   8 o    1.845 --   725 h    0.840   726 h    0.824
   725   1 h    0.889 --   724 o    0.840
   726   1 h    0.890 --   724 o    0.824
   727   8 o    1.790 --   729 h    0.868   728 h    0.806
   728   1 h    0.878 --   727 o    0.806
   729   1 h    0.898 --   727 o    0.868
   730   8 o    1.818 --   732 h    0.851   731 h    0.838
   731   1 h    0.885 --   730 o    0.838
   732   1 h    0.891 --   730 o    0.851
   733   8 o    1.852 --   735 h    0.893   734 h    0.787
   734   1 h    0.861 --   733 o    0.787
   735   1 h    0.903 --   733 o    0.893
   736   8 o    1.806 --   737 h    0.848   738 h    0.819
   737   1 h    0.889 --   736 o    0.848
   738   1 h    0.881 --   736 o    0.819
   739   8 o    1.876 --   741 h    0.816   740 h    0.811
   740   1 h    0.878 --   739 o    0.811
   741   1 h    0.872 --   739 o    0.816
   742   8 o    1.856 --   743 h    0.897   744 h    0.841
   743   1 h    0.908 --   742 o    0.897
   744   1 h    0.882 --   742 o    0.841
   745   8 o    1.848 --   747 h    0.863   746 h    0.844
   746   1 h    0.887 --   745 o    0.844
   747   1 h    0.892 --   745 o    0.863
   748   8 o    1.812 --   749 h    0.858   750 h    0.807
   749   1 h    0.894 --   748 o    0.858
   750   1 h    0.879 --   748 o    0.807
   751   8 o    1.846 --   753 h    0.884   752 h    0.805
   752   1 h    0.877 --   751 o    0.805
   753   1 h    0.893 --   751 o    0.884
   754   8 o    1.855 --   756 h    0.874   755 h    0.821
   755   1 h    0.884 --   754 o    0.821
   756   1 h    0.893 --   754 o    0.874
 ---------------------------------------------------------------------------

Topologies differ in total number of bonds
Writing topology from bond orders to xtbtopo.mol

molecular dipole:
                 x           y           z       tot (Debye)
 q only:        2.202       0.627      -0.749
   full:        2.572       1.940      -2.009       9.649
molecular quadrupole (traceless):
                xx          xy          yy          xz          yz          zz
 q only:     -107.224     -55.146      64.374       6.601      14.013      42.849
  q+dip:     -132.531     -68.902      68.677      10.656       7.439      63.854
   full:     -131.460     -68.843      68.508      10.906       7.178      62.952


           -------------------------------------------------
          | TOTAL ENERGY            -1283.609690226003 Eh   |
          | GRADIENT NORM               0.095222891214 Eh/α |
          | HOMO-LUMO GAP               7.886886879687 eV   |
           -------------------------------------------------

------------------------------------------------------------------------
 * finished run on 2022/11/24 at 09:28:08.852     
------------------------------------------------------------------------
 total:
 * wall-time:     0 d,  0 h,  0 min, 22.325 sec
 *  cpu-time:     0 d,  0 h,  0 min, 36.267 sec
 * ratio c/w:     1.625 speedup
 SCF:
 * wall-time:     0 d,  0 h,  0 min, 21.327 sec
 *  cpu-time:     0 d,  0 h,  0 min, 34.561 sec
 * ratio c/w:     1.621 speedup

