756
 energy: -1283.341437336540 gnorm: 0.015162296022 xtb: 6.5.1 (579679a)
o           -5.04488835345007       -7.06747490450053       -4.74912119029025
h           -5.71276538198642       -7.24757433099142       -4.08605019870850
h           -5.37250137245532       -6.30385688414647       -5.25823087495698
o            2.67917665373384       -3.68481494633388        4.55359269553114
h            2.96622148870269       -2.74247779776074        4.60902037438859
h            2.44973493542077       -3.97845516079059        5.44994147147041
o            1.06976908184991        0.34104369755879       -3.19297087836573
h            0.75808770406703        1.02756600146544       -3.80583129130606
h            1.69355103607715       -0.21588154127093       -3.67795437297032
o            5.30034031654973       -1.72182248785418       -0.54958663181079
h            5.85375847830534       -2.48966798961568       -0.75561750899581
h            4.41629791536869       -1.89696881780476       -0.93293820024481
o            2.80550831201313       -1.65912172037138       -1.42964833666129
h            2.84803807616725       -1.23333752407435       -2.29445177592752
h            2.27838226001865       -1.09510035770006       -0.82725420504995
o           -0.27105476965234       -5.57251977669786       -1.11624266683813
h            0.12613723969757       -4.75430212990972       -1.49114859195587
h           -1.22653475830554       -5.48479032673732       -1.31567841363540
o            4.41140485932288       -0.26356705784709        1.52957206849091
h            4.95215346515392       -0.34143403072262        2.33728372475357
h            4.85609888576535       -0.78331771342597        0.83825318442913
o            0.36803874895453       -3.22868426445207       -2.13369792094178
h            0.15310140139546       -2.40418202344720       -1.61610257876252
h           -0.31526417475054       -3.21785388455714       -2.83160165439252
o            4.45724686036967       -5.27220568686011        3.33299357467478
h            3.81203452263057       -4.63754437604244        3.70849796793628
h            4.60783450649863       -4.96102743883059        2.41940620213435
o            0.17519376404583        2.37165150506515        3.10073608632305
h            1.02705209621306        1.92314383237621        2.95603420644777
h            0.35181773295934        3.31927331734743        2.99409307701688
o           -2.12300248713385        4.22677878085181        3.42305832951865
h           -1.78103927526059        4.10073446084600        4.32722283923309
h           -1.36770741280836        4.62189341089428        2.94009992972603
o           -1.52015498326457       -0.14747926201739        3.38912379536711
h           -1.75612872197158       -1.07634266424006        3.23062673637177
h           -0.58627566320729       -0.18379364504831        3.69150399161315
o            2.38984878337706       -3.57962627979262       -3.76162061930787
h            1.67607562799883       -3.49981349269772       -3.08894892351633
h            3.21363451474841       -3.73583685040020       -3.22353349373022
o           -2.18754220134640        2.01087687783660        1.92681301653611
h           -1.81370794682928        1.26193876882079        2.42410567199842
h           -2.21881300624511        2.76447070872044        2.54794970790865
o            5.46218242033471        0.68712959915014       -1.52685269374287
h            5.50851743343592       -0.18925760314121       -1.08586817585652
h            4.53695308887474        0.97532223701262       -1.44321812710230
o            0.97336612649383       -1.91233063727943       -5.41773002245886
h            0.99381806769656       -2.28362800693184       -6.32502232428295
h            1.38740940768049       -2.55343676929967       -4.82558098349653
o           -3.40585843491460       -0.19361875673677       -7.21681119474559
h           -4.25570269176825        0.19239016785039       -7.46914488123457
h           -3.08838760916862        0.35007704512096       -6.46568003983334
o           -8.31022060260199       -0.35200819304152        0.44282564581578
h           -7.92041174756753       -1.22641414911671        0.31733943575842
h           -8.65931941031388       -0.09228100933834       -0.42796784119415
o           -3.47849870477517       -2.50715956669309       -1.38966576887085
h           -3.98987362413132       -3.20507370614274       -0.94550630277860
h           -4.06396606625710       -1.75629645275588       -1.50128561601530
o           -6.41255590126212        1.61231897221401        0.06832676556077
h           -5.55790879735367        1.35771232473559        0.46791336978823
h           -6.63897291925563        0.87060253182796       -0.50993265608981
o           -1.92334379135761        3.93638207069402       -3.86513404950416
h           -2.15271181867747        4.47723546171506       -3.09700474706910
h           -2.42335474396842        4.32055758965120       -4.59775696663352
o            3.68553561356669        1.69649575060403       -4.15372549792981
h            3.43812768462042        1.57600843238233       -3.21543134788193
h            4.63184857037051        1.94806515356420       -4.14148090076542
o           -1.52486927972686       -3.44356479001635        0.44317139038400
h           -1.79164964697625       -4.37784695993640        0.53975638692293
h           -1.92196058858608       -3.14135769235414       -0.38412436766190
o           -3.04354697202866       -1.01118868198470       -3.87063271759400
h           -2.32251719042384       -0.63786476322071       -4.43316203620440
h           -3.12425652294077       -0.41807003661268       -3.10222986488398
o           -3.34513954634758       -1.78955115257045        1.49693109711926
h           -2.66606299095057       -2.46166529631396        1.30999453036255
h           -3.66469869600018       -1.85610822709587        2.41939990353539
o           -6.46400603008834       -0.68268119266284       -1.59978492127647
h           -6.24117013776263       -1.23185172991222       -0.81498226218857
h           -6.59685805556289       -1.29392809395336       -2.34836826812528
o            3.57813444373116       -1.72934006045685       -7.00813227550633
h            3.64736324940811       -1.45995862284919       -6.07616805637074
h            3.87251704051922       -0.97954902762050       -7.53459695836233
o            4.70029559702046       -4.71878310500526        0.68656915980224
h            3.96470272296672       -4.69192882089666        0.03444884280418
h            5.45915958221516       -4.27131741811963        0.26192913789897
o           -4.90689679715226       -4.51283862731214       -0.17297589435170
h           -5.29545889110304       -5.14290826665586       -0.79553089279324
h           -4.98366775172968       -4.95034634902132        0.68463284628182
o            5.27082049008852        4.28575122078058        2.95027810678164
h            6.12204925801440        4.42359324929215        3.40460256743090
h            4.83669209466574        5.15563026067593        2.90127225022843
o          -13.37205873637985        0.02127290782630       -0.76483343564100
h          -12.93417951130474       -0.47866975179045       -1.47102105372298
h          -13.30483132031684        0.94095254920135       -1.04729570053518
o           -4.39163507845714       -1.68697567218758        3.90837191949255
h           -4.55299793908609       -2.43888558802758        4.50546813709584
h           -4.06286943425895       -0.95285164089726        4.43096118920820
o            2.88753280960329        1.43428705953113       -1.61807648347940
h            2.60378042922875        2.01140886608765       -0.88614427278627
h            2.08808299047385        1.01079699292121       -1.99388099541345
o            5.72616913724280       -0.69484642573417        3.85700447355828
h            4.89645773772085       -0.81994660172792        4.35616512974780
h            6.30539422230418       -0.13904269260011        4.40182362651189
o            5.89944979286625       -2.82566385814320        2.26056385107129
h            6.74170701042400       -3.28466702315804        2.35866761876949
h            5.80906012685245       -2.24131664015743        3.02835359233838
o           -5.32903126388787       -6.46513463218375        1.89611534558411
h           -6.14232400753330       -6.79631894615766        1.49780273893843
h           -4.68604273064259       -7.19350327440775        1.88537946488019
o            0.20705424239007        5.06678618341859        2.42232028856426
h            0.78023408171231        5.67316249776052        2.92330031808475
h            0.35637922833621        5.24268964339841        1.48040061175262
o            0.53550665851712       -2.40346404721386        1.86659756392238
h            1.42523855807040       -2.79678636032221        1.77238240926352
h           -0.09410084966980       -2.86846039227285        1.29013993130443
o           -4.01290405669453        0.65736710711162        0.65194123351470
h           -3.77893375490183       -0.23277286930420        0.96441833282432
h           -3.39721619121630        1.25371209468402        1.11919706506402
o            4.64047161327059       -3.71309011021020       -2.51245553670198
h            5.12239297015924       -3.60440842289360       -3.34358350529238
h            4.79172398453810       -4.62147807543282       -2.18695364240100
o            0.46078961434949       -5.06414055746366       -6.82746989546722
h            0.42690340559325       -5.35510518286907       -7.73716093096914
h            1.39600050988334       -4.78181254775741       -6.67128006935828
o            2.40784354590744        3.86990935366143       -4.69902882253774
h            2.21471054262565        4.28173084685336       -3.83483527231521
h            2.87206984063795        3.00818293220971       -4.51401503840316
o           -1.74599481721178        1.28836890186879       -2.87363074179319
h           -0.89778996990570        1.73042450725647       -2.73167499856300
h           -2.35085324919466        1.72813193806903       -2.25802028820766
o           -6.73805743756307       -1.74534272417198       -6.91179557244383
h           -6.69181530115320       -0.81138351772216       -7.13802491615514
h           -5.85805107090715       -1.97421703883801       -6.55461311328215
o            9.04156609725010       -0.75893286278828       -3.97654075576816
h            8.49436114211794       -1.47087496333644       -3.58611257799124
h            9.92108152585108       -0.86332723980290       -3.57047855374133
o            7.81212040911440        1.90269481237351       -1.37281041573475
h            7.74876258379246        2.85659790307299       -1.54780789429870
h            6.89240890264248        1.59291274051398       -1.27214401167410
o            3.09705377736444       -2.70487179935011        1.74994232114572
h            3.44406950016909       -1.80121255478895        1.74486735461642
h            3.84394389207008       -3.27159349167106        1.51390157384452
o           -9.10463903739848        0.23725298088846       -2.07432471535013
h           -9.02233323993418       -0.68727475203681       -2.38699401064162
h           -9.76936459522729        0.68355935268157       -2.62872921991421
o           -4.52557918783005        7.12998756000066       -0.22850365480010
h           -4.83702362243520        7.41727583934698        0.64017542900614
h           -5.32849494563795        6.84426465010945       -0.72736793471704
o           -2.96876095306711        1.59963431839053       -5.21825680146568
h           -2.40055000318427        1.47694525477314       -4.42307226074033
h           -3.72662858895411        2.10337083975560       -4.86243587437761
o            5.36771923369868       -2.98777569660315       -5.11556255789323
h            6.05678564956915       -2.40106362743614       -5.47983898429669
h            5.39812649177770       -3.78649041890036       -5.64184828786574
o            0.08639316878460        2.32562323613572       -4.90741631310445
h           -0.67537632024077        2.85456766476173       -4.62145111813550
h            0.83876739888187        2.93648200836170       -4.92529260284606
o            7.46418946249426        4.53410491613908        4.52383102849206
h            8.17061804875415        3.93135752366031        4.22991892246053
h            7.04014836523581        4.10532476042009        5.28040449539968
o            4.74165385878324        1.85440838515362        3.77649617222782
h            4.68642085930773        1.71057730929780        4.72219148828900
h            4.76094359029357        2.82118400625901        3.62138085941873
o            1.57048008709521        3.66893625720689        6.95548837649002
h            0.75230526110314        4.00858849489499        6.56818858102256
h            2.29289835087150        4.21200220212265        6.62778332099348
o            7.29370344271152       -2.55361630208306       -3.02090682722906
h            7.15011053423357       -3.47059571980850       -3.31036867047360
h            6.58005337632220       -2.00932648248045       -3.40196433557548
o           -4.70086329096776        1.97209449643478        3.48308884064935
h           -5.27523252287961        1.28175398878263        3.07765349736441
h           -4.06134371030062        1.48762130848281        4.03374174916116
o           -3.21887869766195        0.54057575554721        5.22569109117569
h           -2.88126215308507        1.16304425819612        5.90540457861398
h           -2.45903570725803        0.34653980374883        4.61308716451117
o           -8.77722569897502       -2.39407510958483       -2.49260073014395
h           -8.45349804780923       -2.60722409430922       -1.59366086854458
h           -9.62676442935715       -2.83247711671134       -2.57521012357939
o          -10.72282373856791        1.25394651126229        0.06219163782985
h          -11.27632654831559        1.48423680399685       -0.71609598686254
h          -11.13930662562811        1.76165703265845        0.77605458210012
o            6.97726134257010       -4.78224363491728        4.24967600122743
h            6.06912924732392       -4.97669259247710        3.95131507350874
h            7.56517061792562       -5.28611632846976        3.67444260619600
o           -5.44709316803486        0.14782804728495       -4.52482646989994
h           -5.84800296813945       -0.72734838071896       -4.33850953478601
h           -4.49499802416719        0.01317721377747       -4.38747749204256
o           -5.99191269968779        1.01404410132018       -6.92442131387279
h           -5.63971493966387        1.91253141886098       -7.03173420311632
h           -5.72330485680846        0.73769244365926       -6.01226021000001
o            0.26956161869081       -2.21999285503534        6.50851349455910
h           -0.58358010305726       -2.69027717200402        6.42768886175804
h            0.02329969703829       -1.36389884496129        6.94804839198072
o           -6.24386796311234        0.11165151084122        2.44129445240411
h           -6.99760862208221        0.54734907331863        2.02253446875519
h           -6.57709793709626       -0.54837937932310        3.09152117367770
o           -8.59254409150923        1.69761563810012        2.15838333085131
h           -8.90468644794910        1.15468238957181        1.42349779943181
h           -9.38243950712498        2.04912418828827        2.62836572234806
o            4.78343282330692        3.59137890810243       -1.50239238511255
h            5.13962536886068        4.40632218289434       -1.10072180937848
h            4.78928197136440        2.96109648637837       -0.74742837085596
o           -2.36380142959351       -5.91437920798119        0.85468280900514
h           -2.86605373359583       -6.37345192228959        0.15567978725652
h           -1.70995663305551       -6.55534647291398        1.18820016296223
o           -7.14381942521724        1.73439954848765       -3.10772987827406
h           -6.41969231189978        1.18042528058347       -3.44707831469037
h           -7.74310253051773        1.14982825232224       -2.59834132593326
o           -0.86898715997792       -0.61579824466825       -8.30290205178089
h           -0.44373949643122        0.24744237194314       -8.22350211294788
h           -1.78139536982754       -0.47703535164233       -8.00074785701434
o           -1.45478294552930       -3.11885187544189       -6.53050329371920
h           -0.72007829349309       -3.71205968510593       -6.77053536334945
h           -1.31710257650321       -2.28331196906094       -6.98994348809360
o           -1.07425657813338       -0.23094830887341       -5.43010059471133
h           -0.67836462776344        0.63876627353736       -5.30411088330021
h           -0.36096843401052       -0.88311969406688       -5.33936760482930
o            2.02634586040139        3.04148037392055        0.39380402376428
h            2.22897382440222        2.42042690493983        1.13370579161798
h            1.07416750744170        3.23572317389915        0.44879235996240
o            0.84612573129884       -0.94497228542822        4.13537293733219
h            0.81307058276585       -1.53804729660431        3.36624247449015
h            0.64342917220463       -1.47713614505576        4.92478281099292
o           -4.22101256268663        0.55257152993412       -1.99895811144259
h           -5.11187541093515        0.13934295257197       -1.94982950370074
h           -3.98002293614513        0.72689535786086       -1.06944582277970
o           -1.61074244916013       -3.21522470360109       -3.86116123307262
h           -1.46759950824040       -3.12942972676096       -4.82661182770122
h           -2.20546996488293       -2.46309251718150       -3.64698844044306
o           -2.67907215134355        5.33453599057735        0.67884378561876
h           -3.25441265376497        5.85683615761994        0.09562251072826
h           -2.39282035330131        5.94271798895230        1.38514745699023
o           -0.52792605182054        1.69928985744481        5.50415940734013
h           -0.72483472795198        2.55183436684804        5.90456049659214
h           -0.33868916687732        1.89948532707139        4.54989190547437
o           -3.51281846419111       -4.57363321507182        2.85667533356627
h           -3.23352552640310       -5.00927800935404        2.02756834888790
h           -4.44196710878725       -4.28175205275165        2.74184681281934
o          -12.27259341718482        2.35328792766900       -1.81300905069413
h          -12.05012540322463        3.31212813001045       -1.81972253977157
h          -11.91316841793133        2.02163394503864       -2.64838086559089
o           -4.72820994713064        3.44685035471121       -6.99750029879222
h           -3.90871480986092        3.20185728334115       -7.44623062616033
h           -4.44242576344504        4.15048609152999       -6.39183458388452
o          -12.67818326525550       -4.06116585321720        0.64462729589330
h          -13.16114828134709       -3.26382569909162        0.88649579625327
h          -11.92844471941380       -4.08378793201795        1.26670402737899
o           -6.05643889830161       -3.74658433900312        2.45359403676249
h           -6.84784306277724       -4.31859631523333        2.41228219179571
h           -6.06219734346688       -3.20634230472524        1.63527797558373
o            3.60172021014319        6.86063481529051       -1.94021266929271
h            3.10787320696041        6.02180737651422       -1.93274711668528
h            4.48276608270232        6.64182636929093       -2.31358260195251
o            3.20524648562690        5.15465688046595        1.32093742294713
h            2.59216924800618        5.86827074035893        1.14012775302228
h            2.83438678423405        4.34757528804454        0.88391340929337
o            1.98905688656126        0.56885703782336       -5.98286170602783
h            1.74283309210508       -0.34849489636773       -5.75753246703319
h            2.66015694899846        0.85538199304022       -5.33925559023933
o            0.43549753309586        1.87340868639051       -7.78039150585809
h            0.73457727814808        1.47583934927617       -6.94224693491867
h            0.92811301269239        2.71439766226615       -7.82166896632854
o           10.54946129095196       -3.61625168139462       -3.93459002616023
h           11.00881971213395       -2.77588436846139       -4.00790690905818
h           10.14745923864844       -3.61551425496343       -3.04572076222687
o           11.81634735401407        1.31417346757473       -1.44728950602476
h           11.43651567395346        1.87389271374562       -2.15134973380419
h           12.27795158978776        1.93489774818582       -0.83619581522025
o           -0.67250048420760        6.85281131841634        4.80163610391824
h            0.25247291467637        7.03344131225820        4.58047439063719
h           -1.14834154866005        6.91128707789085        3.94814007550303
o            7.25306849588163       -0.69673775965893        1.25723432215724
h            7.60488557644114       -0.76349352956519        0.34542983515196
h            6.70815383183695       -1.49345631124132        1.41177705751930
o            8.45049258838789       -3.43976784606849        1.60820035319584
h            8.76593441032213       -4.29823395972230        1.91821640203343
h            9.19797515863902       -2.87562314360790        1.32889767170859
o            4.91381919211022        2.32761003885125        0.77096860587173
h            4.87945903429792        2.92871528618234        1.52133244575504
h            4.68631526741725        1.43068219206528        1.07462786069907
o           -6.29432555073083       -2.19132039179579       -3.74199322452893
h           -5.67378745780240       -2.93769441264936       -3.61610354330870
h           -7.11482708650731       -2.55569540808991       -4.11846442990103
o           -8.34095526595045       -3.08500967088178        0.10352074479591
h           -8.44331205135439       -4.01684294762905       -0.15056631093098
h           -9.22348375447202       -2.77684733497240        0.35849173964035
o           -5.78945720747097       -1.82324966464441        0.63926017389141
h           -4.82624138103549       -1.97362464469295        0.73559784755328
h           -5.96325590184684       -1.08548411969222        1.26319613580431
o            2.53054260852349        7.12786482569767       -4.43620125422238
h            2.89239671845191        7.24470259265786       -3.53771914008056
h            3.24863538380095        6.80058495456172       -4.98067758320718
o           -2.70763078429405        2.01487035616643        7.37991866651265
h           -3.21513847050897        1.56569099283965        8.05677878901580
h           -3.00682663073532        2.93622598848575        7.35735959060552
o            7.15633758445619        1.67320657536503        2.48613050304400
h            6.32655729694074        1.62998699487455        2.99570302486772
h            7.20162033665457        0.84512769759151        1.97008770432105
o            2.48724442444064        1.34484594942902        2.33317635053470
h            3.27126154190181        1.42299731937828        2.90668096882677
h            2.57103215856735        0.52738193147125        1.82183827087510
o            9.75545954181735        1.04669756949054        0.28479611557738
h           10.48569890916756        0.99122790563698       -0.35921308167306
h            8.96350070339276        1.29082089804148       -0.23493922990305
o           10.69350654748810        2.87796831039067       -3.37225872923198
h            9.82687353639136        2.50724124928561       -3.69716519588800
h           11.23173914365242        3.01367886429991       -4.15101766388056
o            5.82066199007609       -0.44361448034295       -3.85226492159818
h            5.75824671256667        0.11767843558212       -3.04583057581694
h            6.03644691055599        0.12495900040670       -4.61061318764062
o          -10.71457551973296       -1.61197346494579        0.08678655134798
h          -11.49123533937681       -1.65061912516054        0.68557733579421
h          -10.66811025644427       -0.68462076258265       -0.18872428039097
o          -11.93113593436434        3.35208474570320        1.36771301990765
h          -11.27054231835200        4.01986682044880        1.08369938045775
h          -12.70577439599540        3.48802034269168        0.82109993052070
o           -6.78221483316597        6.32171218989020       -1.36407056984554
h           -7.30100529023441        6.42976624296522       -0.54414282231587
h           -6.66015169899073        5.35299649116444       -1.44917060445044
o           -3.03834160851178        2.86092588747160       -1.02165368481413
h           -3.63345601729886        2.89137847094666       -0.26058568442340
h           -2.78179850721271        3.77150696739058       -1.18598248156788
o            6.56892838855435        0.92901871740839       -6.09002081048571
h            6.87122379060777        0.09213023665266       -6.46890494953407
h            7.34812453856246        1.35699641850168       -5.69312497480865
o           -7.71184272311794        6.34036279655950        1.16686998764114
h           -7.48559015730876        5.43224379291251        1.47338870000341
h           -7.05330299101524        6.91030769308218        1.58868552790633
o            0.32431834001083        5.58912325035746       -3.97043755243423
h           -0.14186661603826        5.46195791165566       -4.81743735825238
h            1.05420114659426        6.20464501415147       -4.15191985649714
o            7.56459871697874       -1.67035588212922       -6.13909553403256
h            8.14908302915221       -1.25643393593180       -5.48350782935613
h            7.91414088794951       -2.58643144353826       -6.19744283711921
o           -8.37503596488873        1.10863344624438       -5.44863102889213
h           -7.67753021070134        1.07809798397702       -6.12185930303187
h           -7.94089895056674        1.44786410417147       -4.63444100343009
o           -0.55438427176606       -0.00036782706602        7.57169830052009
h           -0.61751377530878        0.62968091168026        6.82578770322329
h           -1.46952262166179       -0.29954585930895        7.74530639451302
o           -4.84510683818535       -4.35796449818098       -3.44514744606954
h           -4.28171847945488       -4.46808267596444       -2.65990837602173
h           -4.27777367842055       -4.60431960262475       -4.20450253881835
o           -2.65254121730513       -5.04502335453762       -2.07455856482876
h           -2.32233588634039       -4.35548578701063       -2.67319296958899
h           -2.69380050447705       -5.87514919482101       -2.59438017140115
o           -8.71198381662778        2.90349470032228       -0.58856874799431
h           -7.88486827306511        2.49877994837079       -0.28395347585554
h           -9.40788452206420        2.22456429641166       -0.46725068994977
o           -6.11513622905544       -6.65583794109069       -1.41362223324851
h           -6.67134162055265       -6.33803175627614       -2.13345449936444
h           -6.71433785016360       -6.81472721754937       -0.66159708641913
o           11.02351374247053       -2.66502167154700        3.43759758636970
h           10.14538246504095       -2.23775093538825        3.30048455809052
h           11.65334537853687       -1.96941840438307        3.18928003830794
o           -1.95307586579950        3.00378757381741       -7.19863405663205
h           -2.26377336197394        2.48813738345783       -6.41737909441442
h           -1.15752688830788        2.53597892761924       -7.51354175041573
o            6.04439959061857        2.80208777863065       -3.69637794916075
h            5.70182004470208        3.07389848371267       -2.81446044018270
h            5.87242664317346        3.55104227014474       -4.28817472355557
o          -12.89808317055393       -1.30597164653566        1.56918600741555
h          -12.65345513054953       -0.74433494494263        2.31693621674168
h          -13.23061622900239       -0.73179172300629        0.85431912933853
o            2.48510127283986        3.88955924723818        3.80368116490569
h            2.77169372015060        4.27110748123945        2.96245090645261
h            2.97871333994369        4.36162322064130        4.48977348915210
o            1.72450512610527        1.28136149471890        8.37342459323846
h            1.64419458665634        2.14526098026890        7.93253223954284
h            0.83524302330848        0.89847458584192        8.33812242961335
o           -2.96473389024047       -1.16363684304130        7.44723203276753
h           -3.24950726482039       -0.67749381224390        6.65863726273105
h           -2.76570752490589       -2.06218755187645        7.15703428239133
o            1.45100529708015       -4.68476616326091        6.79053071269437
h            0.69594830203194       -5.25435888501586        6.58743476983699
h            1.07279933206892       -3.79679096864479        6.89836968458926
o            0.19130542965141        3.07078920980126       -2.14069893599239
h           -0.22248293405874        3.22107577635812       -1.26001405419965
h           -0.24595530338099        3.68084377160214       -2.74779928186734
o            4.09561111882100        1.34578170544253        6.94612057335952
h            3.36187521899504        1.37534049880007        6.26653769850884
h            3.63089363973636        1.40556024589621        7.78592406494471
o            0.55839738819346       -8.05988460442764       -0.82862808742220
h            0.27115485244293       -7.14086758699141       -1.04939393734016