 Entering Gaussian System
 *********************************************
 Gaussian 98:
 frequency output generated by the xtb code
 *********************************************
                         Standard orientation:
 --------------------------------------------------------------------
  Center     Atomic     Atomic              Coordinates (Angstroms)
  Number     Number      Type              X           Y           Z
 --------------------------------------------------------------------
    1          1             0        0.713456    2.728620   -2.987027
    2          6             0        0.656731    3.019902   -1.940161
    3          1             0        1.408477    3.784732   -1.761900
    4          1             0       -0.323290    3.453284   -1.749124
    5          6             0        0.907528    1.807823   -1.046088
    6          1             0        0.882376    2.128437   -0.001407
    7          6             0       -0.206603    0.771205   -1.248902
    8          1             0       -0.120728    0.333895   -2.243959
    9          1             0       -1.166647    1.288875   -1.178783
   10          6             0        2.280660    1.213577   -1.333970
   11          1             0        2.435088    0.317393   -0.741870
   12          1             0        3.061859    1.925646   -1.080482
   13          1             0        2.369942    0.964032   -2.386849
   14          7             0       -0.237277   -0.327527   -0.286015
   15          1             0        0.515283   -0.984050   -0.469448
   16          1             0       -0.127976    0.030629    0.657231
   17          8             0       -2.635871    4.401974    1.225157
   18          1             0       -3.278533    5.109251    1.279594
   19          1             0       -2.482450    4.090460    2.164509
   20          8             0       -3.536946    0.769834   -1.966424
   21          1             0       -3.202610   -0.093672   -1.577889
   22          1             0       -4.439907    0.601421   -2.238750
   23          8             0       -2.166780   -3.869703   -1.438254
   24          1             0       -2.497675   -2.973345   -1.222965
   25          1             0       -1.699835   -4.159948   -0.635885
   26          8             0       -1.303879    1.174157    2.372061
   27          1             0       -1.597541    0.361046    2.822451
   28          1             0       -1.944043    1.324874    1.646742
   29          8             0       -2.667499   -1.338021   -0.727394
   30          1             0       -1.739611   -1.032984   -0.511252
   31          1             0       -3.201533   -1.243710    0.094345
   32          8             0       -0.326776   -3.227515   -3.161685
   33          1             0       -1.079068   -3.471946   -2.548593
   34          1             0       -0.139500   -4.009647   -3.681213
   35          8             0        1.548938   -2.604367   -1.334772
   36          1             0        0.864213   -2.737396   -2.021115
   37          1             0        2.364923   -2.313300   -1.815402
   38          8             0        3.123745   -2.772908    0.908699
   39          1             0        2.479543   -2.702326    0.184937
   40          1             0        3.806135   -2.114144    0.677648
   41          8             0        3.780118   -1.690541   -2.390891
   42          1             0        3.446371   -1.079061   -3.079150
   43          1             0        4.134193   -1.146185   -1.676944
   44          8             0        2.635403   -0.158161   -4.325612
   45          1             0        2.999494   -0.318263   -5.196697
   46          1             0        1.681952   -0.403263   -4.390014
   47          8             0        0.385893    4.762760    3.748925
   48          1             0        0.300015    5.001278    2.790197
   49          1             0        0.672986    5.552642    4.205796
   50          8             0       -2.055494    3.491388    3.609212
   51          1             0       -1.225652    3.940044    3.845786
   52          1             0       -1.797845    2.593318    3.320807
   53          8             0       -3.247310    1.798824    0.582094
   54          1             0       -3.328089    1.580008   -0.363567
   55          1             0       -3.131034    2.761240    0.652414
   56          8             0        0.083930   -0.878364   -4.597527
   57          1             0       -0.659277   -0.256792   -4.511891
   58          1             0       -0.157262   -1.673054   -4.096193
   59          8             0        1.082830    2.484606    2.188656
   60          1             0        0.268281    1.958124    2.284663
   61          1             0        1.101631    3.084457    2.943844
   62          8             0        4.594191   -0.580547    0.241645
   63          1             0        5.513930   -0.415333    0.448588
   64          1             0        4.068069   -0.023883    0.867143
   65          8             0       -2.292469   -1.086779    3.493744
   66          1             0       -1.669289   -1.834124    3.275295
   67          1             0       -2.535947   -1.199416    4.412450
   68          8             0        0.068521    4.987879    1.125236
   69          1             0        0.518041    4.147399    0.967107
   70          1             0       -0.880403    4.816302    0.988775
   71          8             0       -0.763564   -4.670888    0.827445
   72          1             0       -1.112890   -5.516195    1.111949
   73          1             0        0.128056   -4.854049    0.434924
   74          8             0       -0.566078   -2.966945    2.988362
   75          1             0       -0.674734   -3.497500    2.179325
   76          1             0        0.276887   -2.485259    2.898840
   77          8             0        3.138807    0.647246    2.103588
   78          1             0        2.612075   -0.090294    2.455463
   79          1             0        2.512684    1.386655    2.014607
   80          8             0        1.863498   -1.691209    2.916209
   81          1             0        2.288346   -1.979642    3.724887
   82          1             0        2.337382   -2.155354    2.169776
   83          8             0        1.614765   -5.071832   -0.260078
   84          1             0        2.344529   -4.956666    0.354562
   85          1             0        1.607400   -4.250481   -0.800413
   86          8             0       -1.893960    1.018243   -4.164738
   87          1             0       -2.480009    0.910738   -3.392161
   88          1             0       -1.465132    1.868766   -4.058884
   89          8             0       -4.090678   -0.727490    1.444383
   90          1             0       -3.542246   -0.921657    2.222591
   91          1             0       -4.027863    0.227718    1.304004
 --------------------------------------------------------------------
     1 basis functions        1 primitive gaussians
     1 alpha electrons        1 beta electrons
 
 Harmonic frequencies (cm**-1), IR intensities (km*mol⁻¹),
 Raman scattering activities (A**4/amu), Raman depolarization ratios,
 reduced masses (AMU), force constants (mDyne/A) and normal coordinates:
                      1                      2                      3
                        a                      a                      a 
 Frequencies --    16.8147                22.5239                28.1555
 Red. masses --    13.3003                13.4532                13.2579
 Frc consts  --     0.0000                 0.0000                 0.0000
 IR Inten    --     0.1227                 0.1784                 0.1908
 Raman Activ --     0.0000                 0.0000                 0.0000
 Depolar     --     0.0000                 0.0000                 0.0000
 Atom AN      X      Y      Z        X      Y      Z        X      Y      Z
   1   1    -0.03   0.00   0.03     0.01   0.04  -0.03    -0.00   0.03  -0.03
   2   6    -0.19  -0.02   0.10    -0.01   0.14  -0.10    -0.03   0.14  -0.12
   3   1    -0.07   0.01   0.04    -0.01   0.05  -0.02    -0.02   0.05  -0.04
   4   1    -0.07  -0.02   0.01    -0.01   0.03  -0.04    -0.02   0.03  -0.04
   5   6    -0.17  -0.02   0.09    -0.02   0.14  -0.10     0.02   0.18  -0.08
   6   1    -0.08  -0.01   0.03    -0.03   0.04  -0.03    -0.00   0.06  -0.03
   7   6    -0.08  -0.09  -0.01     0.03   0.10  -0.18     0.08   0.12  -0.07
   8   1     0.01  -0.02  -0.00     0.03   0.03  -0.05     0.03   0.03  -0.02
   9   1    -0.04  -0.04  -0.03     0.00   0.02  -0.07     0.01   0.02  -0.03
  10   6    -0.11   0.08   0.18     0.02   0.19  -0.02     0.06   0.25  -0.04
  11   1    -0.03   0.02   0.05     0.01   0.06  -0.00     0.03   0.09   0.00
  12   1    -0.05   0.04   0.08    -0.01   0.06   0.00     0.00   0.09  -0.02
  13   1    -0.00   0.03   0.05     0.02   0.05  -0.00     0.03   0.06  -0.01
  14   7    -0.10  -0.10  -0.01     0.00   0.11  -0.19     0.13   0.16  -0.04
  15   1    -0.02  -0.02   0.01     0.00   0.03  -0.04     0.04   0.05  -0.01
  16   1    -0.04  -0.02  -0.00    -0.01   0.03  -0.05     0.03   0.05  -0.01
  17   8     0.33   0.02  -0.32     0.06  -0.02   0.11    -0.01  -0.02  -0.02
  18   1     0.09   0.01  -0.11     0.01  -0.01   0.04    -0.01  -0.01  -0.00
  19   1     0.05   0.01  -0.07     0.01  -0.03   0.02     0.01   0.00  -0.00
  20   8    -0.11  -0.13  -0.02     0.01   0.09  -0.11     0.04  -0.06   0.07
  21   1    -0.03  -0.03  -0.00     0.00   0.02  -0.03     0.03  -0.01   0.02
  22   1    -0.03  -0.03   0.00    -0.00   0.03  -0.02     0.01  -0.03   0.03
  23   8     0.02  -0.09  -0.01    -0.02  -0.03   0.12     0.00  -0.02  -0.02
  24   1    -0.01  -0.03  -0.00     0.00   0.00   0.01     0.02  -0.00   0.01
  25   1     0.01  -0.02  -0.00    -0.01   0.01   0.04    -0.00  -0.02  -0.01
  26   8     0.01   0.01  -0.05     0.06  -0.10  -0.16     0.03  -0.00   0.07
  27   1    -0.00   0.01  -0.01     0.01  -0.02  -0.04     0.02  -0.01   0.02
  28   1     0.00   0.00  -0.01     0.01  -0.01  -0.03     0.00  -0.01   0.02
  29   8    -0.10  -0.11  -0.00     0.03   0.06  -0.18     0.19  -0.00   0.05
  30   1    -0.02  -0.03  -0.00     0.01   0.02  -0.05     0.05   0.01   0.01
  31   1    -0.02  -0.02   0.00     0.01   0.01  -0.04     0.05  -0.01   0.02
  32   8     0.00  -0.00  -0.01    -0.02  -0.18   0.06    -0.00  -0.02  -0.02
  33   1     0.00  -0.01  -0.00    -0.00  -0.03   0.02    -0.00  -0.01  -0.01
  34   1     0.00   0.00  -0.01    -0.01  -0.05   0.03     0.01  -0.01  -0.00
  35   8     0.00   0.01  -0.01    -0.06   0.00   0.04    -0.07   0.01   0.04
  36   1     0.00  -0.00  -0.00    -0.01  -0.02   0.01    -0.01   0.00   0.01
  37   1    -0.00   0.02   0.00    -0.02   0.00   0.01    -0.02   0.01   0.01
  38   8     0.03  -0.00  -0.03    -0.04   0.04   0.03    -0.12  -0.10   0.06
  39   1     0.01   0.00  -0.01    -0.02   0.01   0.01    -0.03  -0.02   0.02
  40   1     0.00   0.00  -0.00    -0.01   0.01   0.00    -0.03  -0.02   0.02
  41   8    -0.04   0.16   0.03    -0.09   0.04   0.02    -0.07   0.07   0.09
  42   1    -0.02   0.05   0.02    -0.03   0.01   0.01    -0.01   0.02   0.03
  43   1    -0.01   0.03   0.02    -0.02   0.01   0.01    -0.02   0.01   0.03
  44   8    -0.09   0.26   0.14    -0.12   0.05   0.05    -0.02   0.09   0.08
  45   1    -0.02   0.09   0.03    -0.03   0.01   0.01    -0.00   0.01   0.02
  46   1    -0.02   0.04   0.03    -0.03  -0.01   0.01    -0.00   0.02   0.02
  47   8     0.05   0.01   0.04     0.01  -0.22   0.22     0.11   0.11  -0.23
  48   1     0.04   0.00   0.01     0.01  -0.03   0.06     0.01   0.02  -0.06
  49   1     0.00   0.00   0.02     0.00  -0.07   0.08     0.04   0.03  -0.07
  50   8     0.02   0.11  -0.21     0.03  -0.22   0.05     0.11   0.07  -0.02
  51   1     0.00   0.02  -0.03     0.00  -0.06   0.03     0.03   0.02  -0.02
  52   1     0.00   0.02  -0.04     0.01  -0.05  -0.01     0.02   0.01   0.01
  53   8     0.04   0.01  -0.09     0.05   0.02  -0.09     0.03  -0.05   0.07
  54   1    -0.00  -0.01  -0.02     0.01   0.02  -0.02     0.01  -0.02   0.02
  55   1     0.04   0.00  -0.04     0.02   0.00  -0.01     0.00  -0.01   0.01
  56   8    -0.02   0.04   0.06    -0.05  -0.18   0.03    -0.01   0.04   0.08
  57   1    -0.02  -0.00   0.01    -0.02  -0.05  -0.01    -0.01   0.00   0.01
  58   1    -0.00   0.01   0.01    -0.01  -0.05   0.01    -0.00   0.00   0.01
  59   8     0.07  -0.05   0.13     0.03  -0.03  -0.03    -0.00   0.02  -0.09
  60   1     0.01  -0.01   0.02     0.01  -0.01  -0.02    -0.00   0.01  -0.01
  61   1     0.01  -0.01   0.03     0.01  -0.03   0.01     0.00   0.03  -0.04
  62   8    -0.01   0.04   0.03    -0.04   0.02  -0.04    -0.17  -0.05   0.14
  63   1    -0.00   0.01  -0.00    -0.01   0.01  -0.02    -0.04  -0.01   0.03
  64   1     0.00   0.00   0.02    -0.00   0.00  -0.00    -0.04  -0.02   0.04
  65   8     0.00   0.02  -0.03    -0.03  -0.00  -0.07     0.11  -0.06   0.06
  66   1    -0.00   0.01  -0.01     0.00  -0.00   0.01     0.01  -0.03   0.01
  67   1     0.00   0.00  -0.01    -0.02   0.02  -0.02     0.03  -0.02   0.02
  68   8     0.35   0.00   0.00     0.06   0.05   0.24    -0.06   0.09  -0.21
  69   1     0.09  -0.00   0.01     0.02   0.02   0.05    -0.01   0.03  -0.07
  70   1     0.09   0.00  -0.03     0.02   0.01   0.05    -0.02   0.01  -0.03
  71   8     0.06  -0.04  -0.02    -0.01   0.07   0.17    -0.01  -0.17  -0.06
  72   1     0.02  -0.01  -0.00    -0.00   0.02   0.04     0.00  -0.05  -0.03
  73   1     0.02  -0.01  -0.01    -0.00   0.01   0.04    -0.00  -0.03  -0.02
  74   8    -0.01   0.01  -0.04     0.06   0.02   0.19    -0.08  -0.23   0.01
  75   1     0.00  -0.00  -0.01     0.01   0.00   0.05    -0.02  -0.05  -0.00
  76   1     0.00  -0.00  -0.00     0.01   0.01   0.05    -0.02  -0.06   0.01
  77   8     0.05  -0.05   0.12     0.04   0.00   0.02    -0.17  -0.13   0.16
  78   1     0.01  -0.02   0.02     0.01   0.00   0.01    -0.05  -0.03   0.04
  79   1     0.01  -0.01   0.03     0.01  -0.00  -0.00    -0.04  -0.03   0.03
  80   8     0.04  -0.08   0.02     0.07   0.01   0.11    -0.11  -0.18   0.11
  81   1     0.01  -0.03   0.00     0.03   0.00   0.02    -0.02  -0.05   0.02
  82   1     0.01  -0.01   0.00     0.01   0.01   0.02    -0.03  -0.04   0.02
  83   8     0.07  -0.01  -0.04    -0.04   0.03   0.12    -0.02  -0.07  -0.13
  84   1     0.02   0.00  -0.01    -0.01   0.01   0.02    -0.01  -0.02  -0.03
  85   1     0.01  -0.00  -0.01    -0.01   0.00   0.02    -0.01  -0.01  -0.02
  86   8    -0.12  -0.06  -0.02    -0.07  -0.16  -0.21    -0.09  -0.03  -0.02
  87   1    -0.03  -0.02  -0.01    -0.01  -0.02  -0.04    -0.01  -0.01   0.00
  88   1    -0.03  -0.02   0.01    -0.01  -0.04  -0.08    -0.03  -0.01  -0.01
  89   8    -0.04   0.04   0.00     0.05   0.00  -0.15     0.14  -0.10   0.04
  90   1    -0.01   0.01  -0.00     0.01  -0.00  -0.03     0.03  -0.02   0.01
  91   1    -0.00   0.01  -0.01     0.01   0.00  -0.03     0.02  -0.02   0.01
                      4                      5                      6
                        a                      a                      a 
 Frequencies --    29.9313                31.9320                36.5560
 Red. masses --    13.0584                14.0599                14.1202
 Frc consts  --     0.0000                 0.0000                 0.0000
 IR Inten    --     0.5573                 0.4914                 0.3476
 Raman Activ --     0.0000                 0.0000                 0.0000
 Depolar     --     0.0000                 0.0000                 0.0000
 Atom AN      X      Y      Z        X      Y      Z        X      Y      Z
   1   1    -0.01   0.07   0.04    -0.02   0.00   0.01    -0.02  -0.03  -0.03
   2   6     0.06   0.16   0.17    -0.10  -0.01   0.04    -0.04  -0.06  -0.11
   3   1     0.03   0.04   0.04    -0.04   0.01   0.01    -0.01  -0.02  -0.05
   4   1     0.03   0.05   0.09    -0.03  -0.02   0.01    -0.01  -0.01  -0.03
   5   6     0.13   0.09   0.05    -0.02  -0.00   0.03    -0.04  -0.02  -0.06
   6   1     0.08   0.01   0.02    -0.01  -0.00   0.01    -0.01   0.01  -0.02
   7   6     0.07   0.14   0.13     0.04  -0.06   0.02    -0.05  -0.02   0.00
   8   1    -0.01   0.05   0.03     0.02  -0.02   0.00    -0.02  -0.02   0.00
   9   1     0.03   0.05   0.07     0.00  -0.03   0.00    -0.01  -0.00  -0.00
  10   6     0.08   0.06  -0.16     0.01   0.08   0.02    -0.05  -0.05  -0.05
  11   1     0.04   0.01  -0.06     0.02   0.02   0.00    -0.01  -0.01  -0.00
  12   1     0.04   0.01  -0.07    -0.01   0.04   0.01    -0.01  -0.01  -0.03
  13   1    -0.02   0.02  -0.05     0.01   0.03   0.00    -0.02  -0.03  -0.01
  14   7     0.15   0.10   0.08     0.10  -0.07   0.01    -0.05   0.02   0.05
  15   1     0.03   0.03  -0.00     0.03  -0.02  -0.00    -0.01   0.00   0.02
  16   1     0.06   0.01   0.02     0.03  -0.02   0.00    -0.01   0.01   0.01
  17   8     0.08   0.05  -0.22     0.01   0.02   0.09     0.06   0.11   0.16
  18   1     0.02   0.02  -0.08    -0.01  -0.00   0.03     0.02   0.03   0.05
  19   1    -0.01   0.02  -0.05     0.01  -0.00   0.02     0.02   0.02   0.04
  20   8     0.09  -0.10  -0.01     0.06  -0.07   0.06    -0.00   0.05   0.07
  21   1     0.04  -0.02   0.01     0.02  -0.02   0.02    -0.01   0.01   0.02
  22   1     0.03  -0.05  -0.01     0.01  -0.02   0.02    -0.01   0.02   0.03
  23   8    -0.02  -0.04   0.18    -0.10  -0.04  -0.16     0.08   0.02   0.08
  24   1     0.02  -0.00   0.05    -0.01  -0.01  -0.03     0.01   0.00   0.03
  25   1     0.01  -0.02   0.04    -0.04  -0.03  -0.04     0.04   0.01   0.01
  26   8    -0.10   0.07   0.04     0.16   0.03   0.02    -0.07   0.02   0.05
  27   1    -0.02   0.01   0.00     0.04   0.01   0.01    -0.02  -0.00  -0.00
  28   1    -0.01   0.01  -0.00     0.04   0.01   0.00    -0.02   0.02   0.01
  29   8     0.18   0.01   0.12     0.08  -0.06   0.07    -0.06   0.02   0.07
  30   1     0.04   0.01   0.03     0.02  -0.02   0.01    -0.02   0.01   0.02
  31   1     0.04   0.01   0.02     0.02  -0.01   0.02    -0.03   0.02   0.01
  32   8    -0.12  -0.08   0.05     0.06  -0.17  -0.03     0.05  -0.07   0.03
  33   1    -0.02  -0.02   0.02     0.00  -0.03  -0.02     0.01  -0.01   0.01
  34   1    -0.03  -0.03   0.02     0.01  -0.05  -0.00     0.02  -0.03   0.03
  35   8    -0.06   0.01  -0.05     0.06  -0.11  -0.05     0.01   0.05   0.03
  36   1    -0.02  -0.00  -0.00     0.02  -0.03  -0.01     0.00   0.01   0.01
  37   1    -0.02  -0.00  -0.02     0.01  -0.02  -0.01     0.00   0.01   0.01
  38   8    -0.04  -0.03  -0.08     0.02   0.04  -0.02    -0.11   0.06   0.10
  39   1    -0.02  -0.01  -0.02     0.02  -0.01  -0.02    -0.03   0.01   0.03
  40   1    -0.01  -0.00  -0.02     0.00   0.01   0.00    -0.03   0.01   0.02
  41   8    -0.08  -0.05  -0.13     0.02   0.05  -0.01     0.03  -0.01   0.04
  42   1    -0.02  -0.01  -0.04    -0.00   0.01   0.00     0.01  -0.01   0.00
  43   1    -0.01  -0.01  -0.04     0.00   0.01   0.00     0.00   0.01   0.01
  44   8    -0.09  -0.09  -0.14    -0.03   0.07   0.04     0.00  -0.14  -0.04
  45   1    -0.02  -0.03  -0.04    -0.00   0.03   0.01     0.00  -0.04  -0.01
  46   1    -0.02  -0.03  -0.03    -0.00  -0.01   0.01     0.00  -0.03  -0.01
  47   8    -0.21  -0.01   0.18    -0.06   0.13   0.15     0.18  -0.06   0.05
  48   1    -0.02  -0.00   0.04    -0.01   0.03   0.04     0.04  -0.00   0.02
  49   1    -0.07  -0.00   0.05    -0.04   0.04   0.05     0.07  -0.03   0.02
  50   8    -0.24   0.11  -0.12     0.04  -0.03   0.07     0.11   0.04   0.13
  51   1    -0.06   0.02  -0.01     0.00   0.00   0.02     0.04  -0.00   0.02
  52   1    -0.06   0.02  -0.02     0.02  -0.00   0.01     0.01   0.01   0.03
  53   8    -0.02   0.03  -0.07     0.16   0.01   0.02    -0.01   0.15   0.04
  54   1    -0.00  -0.01  -0.01     0.03   0.00   0.00     0.00   0.04   0.01
  55   1     0.01   0.01  -0.03     0.03   0.00   0.01     0.00   0.04   0.01
  56   8    -0.06  -0.15  -0.06     0.05  -0.17  -0.01    -0.00  -0.12  -0.04
  57   1     0.00  -0.02   0.00     0.01  -0.05   0.00    -0.00  -0.04  -0.01
  58   1    -0.02  -0.03  -0.00     0.02  -0.05  -0.01     0.01  -0.03  -0.01
  59   8    -0.08  -0.00   0.14     0.06   0.22   0.03    -0.07  -0.01  -0.08
  60   1    -0.03   0.01   0.02     0.03   0.04   0.01    -0.02  -0.00  -0.01
  61   1    -0.02  -0.01   0.04     0.02   0.04   0.02    -0.00  -0.01  -0.01
  62   8    -0.07  -0.01  -0.08     0.02   0.05  -0.01    -0.08   0.02   0.06
  63   1    -0.02  -0.00  -0.02     0.00   0.01  -0.00    -0.02  -0.00   0.02
  64   1    -0.02  -0.00  -0.02     0.00   0.02  -0.01    -0.02   0.01   0.02
  65   8    -0.00   0.00   0.00     0.05   0.08   0.05    -0.16  -0.04  -0.14
  66   1    -0.00   0.00  -0.01    -0.01   0.01  -0.01    -0.04  -0.00  -0.05
  67   1     0.00  -0.00  -0.00     0.02   0.01   0.01    -0.03  -0.03  -0.04
  68   8     0.11   0.01   0.14    -0.00   0.14   0.14     0.07   0.07   0.07
  69   1     0.03  -0.00   0.05     0.01   0.04   0.05     0.01   0.01   0.01
  70   1     0.03   0.01   0.00     0.00   0.03   0.03     0.01   0.03   0.03
  71   8     0.12  -0.14   0.05    -0.22  -0.14  -0.14     0.35  -0.12  -0.14
  72   1     0.04  -0.04   0.01    -0.05  -0.03  -0.03     0.09  -0.04  -0.04
  73   1     0.03  -0.02  -0.00    -0.04  -0.03  -0.01     0.08  -0.02  -0.05
  74   8    -0.02  -0.01  -0.02    -0.15  -0.03  -0.23    -0.09   0.03  -0.21
  75   1     0.00  -0.01   0.00    -0.05  -0.01  -0.05     0.02  -0.00  -0.05
  76   1    -0.00  -0.01  -0.00    -0.05   0.00  -0.08    -0.02   0.01  -0.02
  77   8    -0.08  -0.03  -0.06    -0.03   0.11  -0.08    -0.06   0.03   0.06
  78   1    -0.01  -0.01  -0.01    -0.03   0.03  -0.05    -0.01   0.01   0.02
  79   1    -0.02  -0.00   0.01     0.01   0.04  -0.01    -0.02   0.00  -0.00
  80   8     0.00  -0.06  -0.04    -0.27   0.18  -0.28    -0.11   0.08   0.08
  81   1     0.01  -0.02  -0.01    -0.09   0.07  -0.05    -0.04   0.01   0.02
  82   1    -0.00  -0.01  -0.01    -0.04   0.03  -0.05    -0.02   0.02   0.02
  83   8     0.06  -0.04  -0.14    -0.08  -0.05   0.12     0.33  -0.04  -0.24
  84   1     0.02  -0.01  -0.04    -0.03  -0.01   0.05     0.08  -0.01  -0.06
  85   1     0.00  -0.00  -0.03    -0.01  -0.02   0.02     0.06   0.00  -0.04
  86   8     0.16   0.03   0.09     0.00  -0.24  -0.00    -0.06  -0.18  -0.02
  87   1     0.03   0.00   0.01     0.01  -0.05   0.01    -0.01  -0.03   0.00
  88   1     0.04   0.01   0.03    -0.00  -0.06  -0.02    -0.02  -0.04  -0.03
  89   8     0.02   0.03  -0.00     0.08   0.06   0.03    -0.19   0.17  -0.06
  90   1    -0.00   0.01   0.00     0.01   0.02   0.01    -0.05   0.03  -0.02
  91   1    -0.00   0.01  -0.00     0.03   0.01  -0.00    -0.03   0.04  -0.01
                      7                      8                      9
                        a                      a                      a 
 Frequencies --    37.6000                39.0544                41.4935
 Red. masses --    14.2703                13.7951                13.5459
 Frc consts  --     0.0000                 0.0000                 0.0000
 IR Inten    --     0.0820                 0.5304                 0.3562
 Raman Activ --     0.0000                 0.0000                 0.0000
 Depolar     --     0.0000                 0.0000                 0.0000
 Atom AN      X      Y      Z        X      Y      Z        X      Y      Z
   1   1     0.00  -0.02  -0.01    -0.05   0.01  -0.02    -0.00  -0.05  -0.07
   2   6    -0.00  -0.05  -0.04    -0.07   0.04  -0.05    -0.00  -0.06  -0.28
   3   1    -0.00  -0.01  -0.01    -0.01   0.01  -0.03     0.00  -0.01  -0.11
   4   1    -0.00  -0.02  -0.01    -0.01   0.01   0.01     0.00  -0.01  -0.10
   5   6     0.01  -0.03  -0.03     0.01   0.03  -0.08    -0.02   0.04  -0.14
   6   1    -0.00  -0.01  -0.01     0.03   0.01  -0.02    -0.02   0.04  -0.05
   7   6     0.03  -0.05  -0.03    -0.02   0.04   0.02    -0.01   0.01  -0.07
   8   1     0.01  -0.01  -0.01    -0.03   0.01   0.00     0.00  -0.02  -0.01
   9   1     0.01  -0.02  -0.01    -0.00   0.01   0.03    -0.00   0.00  -0.04
  10   6     0.02  -0.02  -0.01    -0.02   0.02  -0.21    -0.01   0.02  -0.04
  11   1     0.01  -0.00  -0.00     0.01   0.01  -0.06    -0.01   0.02   0.01
  12   1     0.00  -0.00  -0.00     0.00   0.01  -0.09    -0.01   0.01  -0.02
  13   1     0.01  -0.01  -0.00    -0.04  -0.00  -0.06     0.01  -0.02  -0.00
  14   7     0.05  -0.06  -0.04     0.06   0.04   0.02    -0.00   0.09   0.01
  15   1     0.01  -0.02  -0.02     0.02   0.02  -0.01     0.00   0.02   0.02
  16   1     0.02  -0.02  -0.01     0.03   0.01   0.00    -0.01   0.05  -0.00
  17   8     0.06  -0.08  -0.05     0.24  -0.08  -0.09     0.06   0.04  -0.10
  18   1     0.01  -0.03  -0.01     0.06  -0.02  -0.03     0.02   0.01  -0.03
  19   1     0.01  -0.03  -0.01     0.05  -0.01  -0.02    -0.00   0.00  -0.02
  20   8    -0.02  -0.12  -0.01    -0.02  -0.07   0.07    -0.09  -0.08   0.03
  21   1     0.00  -0.03  -0.00     0.01  -0.01   0.02    -0.01  -0.01   0.02
  22   1    -0.00  -0.04   0.00    -0.01  -0.03   0.02    -0.02  -0.03   0.02
  23   8     0.12  -0.07   0.03     0.08   0.03  -0.14    -0.05   0.06   0.02
  24   1     0.02  -0.02   0.01     0.02   0.01  -0.03    -0.01   0.01   0.02
  25   1     0.04  -0.01   0.00     0.00  -0.00  -0.03    -0.02  -0.00   0.00
  26   8     0.16  -0.10  -0.10    -0.11  -0.14   0.10    -0.01   0.01  -0.12
  27   1     0.03  -0.01  -0.01    -0.03  -0.03   0.03     0.01   0.00  -0.03
  28   1     0.04  -0.02  -0.02    -0.03  -0.03   0.03    -0.01   0.00  -0.02
  29   8     0.05  -0.08   0.02     0.09  -0.03   0.06     0.00   0.03   0.14
  30   1     0.01  -0.02  -0.00     0.02  -0.00   0.02     0.00   0.02   0.03
  31   1     0.01  -0.02   0.01     0.02  -0.02   0.01     0.00   0.01   0.04
  32   8    -0.11   0.15  -0.14     0.14   0.08  -0.06     0.02   0.17   0.14
  33   1    -0.01   0.02  -0.02     0.03   0.01  -0.02    -0.00   0.04   0.02
  34   1    -0.04   0.06  -0.07     0.04   0.02  -0.02     0.01   0.05   0.03
  35   8    -0.05  -0.15  -0.09     0.09   0.06  -0.01     0.03   0.04   0.16
  36   1    -0.01  -0.02  -0.03     0.03   0.01  -0.01     0.00   0.02   0.04
  37   1    -0.01  -0.04  -0.01     0.03   0.01  -0.00     0.01   0.00   0.04
  38   8    -0.37   0.07   0.12     0.02   0.17   0.04     0.20  -0.12   0.05
  39   1    -0.09   0.00   0.02     0.01   0.04   0.00     0.05  -0.02   0.02
  40   1    -0.08   0.00   0.02     0.00   0.05   0.01     0.05  -0.03   0.01
  41   8    -0.03  -0.11  -0.01     0.09   0.03  -0.05     0.07  -0.10   0.13
  42   1    -0.01  -0.03  -0.00     0.02  -0.01  -0.02     0.03  -0.03   0.03
  43   1    -0.02  -0.03   0.00     0.01   0.02  -0.02     0.02  -0.03   0.03
  44   8     0.01  -0.05   0.00     0.06  -0.15  -0.18     0.19  -0.13   0.03
  45   1    -0.00  -0.02  -0.00     0.01  -0.06  -0.04     0.03  -0.07   0.01
  46   1    -0.00   0.02   0.00     0.01  -0.02  -0.04     0.04   0.01   0.03
  47   8    -0.09   0.01   0.08     0.16  -0.16   0.02    -0.13  -0.12   0.19
  48   1    -0.01   0.01   0.02     0.05  -0.02   0.01    -0.01  -0.01   0.05
  49   1    -0.05   0.01   0.03     0.07  -0.05   0.02    -0.05  -0.04   0.07
  50   8     0.02  -0.16  -0.07     0.08  -0.01  -0.03    -0.13  -0.05  -0.08
  51   1    -0.00  -0.03  -0.01     0.03  -0.02  -0.00    -0.04  -0.02   0.00
  52   1     0.02  -0.03  -0.02     0.00  -0.01   0.01    -0.03  -0.01  -0.02
  53   8     0.11  -0.09  -0.04    -0.08  -0.07   0.08    -0.07   0.04  -0.02
  54   1     0.01  -0.02  -0.01    -0.02  -0.02   0.02    -0.02  -0.00  -0.00
  55   1     0.03  -0.02  -0.01     0.01  -0.02   0.01    -0.00   0.01  -0.02
  56   8    -0.08   0.25   0.00    -0.01   0.05  -0.14     0.05   0.23   0.24
  57   1    -0.02   0.07  -0.00     0.00   0.01  -0.02    -0.00   0.04   0.03
  58   1    -0.03   0.06  -0.01     0.01   0.01  -0.03     0.01   0.05   0.05
  59   8     0.06   0.13  -0.04    -0.14  -0.13  -0.06    -0.05   0.05  -0.10
  60   1     0.03   0.01  -0.02    -0.03  -0.03  -0.01    -0.01   0.01  -0.04
  61   1     0.01   0.02   0.00    -0.02  -0.04  -0.01    -0.00  -0.02  -0.00
  62   8    -0.12  -0.14   0.04    -0.03   0.18  -0.02     0.09  -0.04  -0.03
  63   1    -0.02  -0.07   0.01    -0.01   0.05  -0.00     0.02   0.02  -0.01
  64   1    -0.01  -0.01   0.00    -0.01   0.03   0.00     0.00  -0.01  -0.02
  65   8     0.00   0.05   0.07    -0.19  -0.09   0.17     0.13   0.01  -0.02
  66   1    -0.01   0.00   0.02    -0.04  -0.02   0.04     0.02  -0.00  -0.02
  67   1     0.01   0.03   0.02    -0.05  -0.03   0.04     0.05   0.01   0.00
  68   8     0.03   0.07   0.07     0.22  -0.01   0.02     0.07   0.08   0.17
  69   1     0.02   0.02   0.03     0.05  -0.01   0.00     0.02   0.02   0.05
  70   1     0.01   0.01   0.00     0.06   0.00  -0.00     0.02   0.02   0.02
  71   8     0.16   0.03   0.04    -0.17   0.08   0.03    -0.06  -0.13  -0.04
  72   1     0.03   0.01   0.01    -0.04   0.02   0.00    -0.01  -0.03  -0.01
  73   1     0.04  -0.01   0.01    -0.03   0.03   0.03    -0.01  -0.03  -0.01
  74   8    -0.03   0.02   0.08    -0.13  -0.01   0.09     0.03  -0.06  -0.11
  75   1     0.01   0.01   0.02    -0.04   0.01   0.02    -0.00  -0.02  -0.02
  76   1    -0.02   0.03   0.03    -0.04   0.01   0.01     0.01  -0.02  -0.03
  77   8     0.06   0.13  -0.00    -0.08   0.01   0.03    -0.10  -0.03  -0.19
  78   1     0.00   0.05   0.01    -0.02  -0.00   0.00    -0.02  -0.01  -0.04
  79   1     0.03   0.04  -0.01    -0.03  -0.00  -0.00    -0.02  -0.01  -0.04
  80   8    -0.18   0.31   0.10    -0.15   0.04   0.01     0.04  -0.06  -0.08
  81   1    -0.04   0.08   0.02    -0.04   0.01   0.00    -0.00   0.01  -0.01
  82   1    -0.06   0.06   0.03    -0.03   0.02   0.00     0.03  -0.02  -0.00
  83   8     0.11  -0.11  -0.02    -0.06   0.16   0.24    -0.03  -0.03  -0.02
  84   1     0.02  -0.00  -0.00    -0.02   0.05   0.07    -0.01  -0.03  -0.00
  85   1     0.02  -0.04  -0.02    -0.01   0.03   0.04    -0.00   0.01   0.02
  86   8    -0.05   0.27   0.03    -0.04  -0.00   0.07    -0.20   0.03  -0.03
  87   1    -0.01   0.03   0.00    -0.01  -0.01   0.02    -0.04  -0.01  -0.00
  88   1    -0.01   0.06   0.05    -0.03   0.01   0.01    -0.06   0.01  -0.01
  89   8     0.06  -0.03   0.01    -0.02  -0.13   0.02    -0.02   0.06   0.13
  90   1     0.01  -0.00   0.01    -0.02  -0.03   0.02     0.00   0.02   0.03
  91   1     0.02  -0.01  -0.00    -0.02  -0.03   0.01    -0.01   0.01   0.03
                     10                     11                     12
                        a                      a                      a 
 Frequencies --    43.9797                46.2476                46.7051
 Red. masses --    14.1341                14.4040                13.4613
 Frc consts  --     0.0000                 0.0000                 0.0000
 IR Inten    --     0.8790                 0.4886                 1.3215
 Raman Activ --     0.0000                 0.0000                 0.0000
 Depolar     --     0.0000                 0.0000                 0.0000
 Atom AN      X      Y      Z        X      Y      Z        X      Y      Z
   1   1     0.01  -0.01  -0.01    -0.01  -0.00   0.00     0.03   0.05   0.05
   2   6    -0.02  -0.02  -0.03    -0.01  -0.03   0.02     0.18   0.11   0.19
   3   1    -0.02   0.01  -0.00    -0.00  -0.01   0.01     0.08   0.01   0.07
   4   1    -0.02  -0.02  -0.02    -0.00  -0.01   0.01     0.07   0.06   0.07
   5   6     0.02   0.01   0.00    -0.02  -0.05  -0.01     0.08   0.01   0.08
   6   1    -0.01   0.01  -0.00     0.00  -0.02  -0.00     0.04  -0.02   0.03
   7   6     0.07  -0.05  -0.00    -0.04  -0.03  -0.01    -0.02   0.13   0.01
   8   1     0.04  -0.02   0.00    -0.02  -0.00  -0.01    -0.02   0.06  -0.01
   9   1     0.01  -0.03  -0.02    -0.01  -0.00   0.00     0.01   0.06   0.02
  10   6     0.05   0.08   0.04    -0.04  -0.07  -0.06     0.02  -0.09   0.01
  11   1     0.02   0.02   0.01    -0.01  -0.02  -0.01    -0.02  -0.04  -0.02
  12   1     0.00   0.03   0.02    -0.01  -0.02  -0.03     0.03  -0.05   0.01
  13   1     0.03   0.02   0.01    -0.03  -0.03  -0.02    -0.01  -0.01  -0.00
  14   7     0.09  -0.02   0.03    -0.05  -0.05  -0.04    -0.09   0.05  -0.09
  15   1     0.03   0.00   0.02    -0.01  -0.01  -0.01    -0.03   0.01  -0.03
  16   1     0.01   0.00   0.01    -0.02  -0.02  -0.01    -0.03  -0.01  -0.01
  17   8    -0.02   0.01   0.06     0.04   0.06  -0.02     0.11  -0.02  -0.05
  18   1    -0.01   0.00   0.03     0.01   0.01  -0.01     0.03  -0.00  -0.02
  19   1     0.01  -0.00   0.01     0.00   0.01  -0.00     0.02   0.00  -0.01
  20   8     0.11   0.01  -0.02    -0.04   0.12  -0.00    -0.13   0.11   0.05
  21   1     0.03   0.00  -0.01    -0.02   0.02  -0.01    -0.02   0.02  -0.02
  22   1     0.03   0.00  -0.00    -0.01   0.04  -0.01    -0.04   0.04   0.03
  23   8    -0.02  -0.11   0.18    -0.01   0.02  -0.11    -0.07  -0.09  -0.03
  24   1     0.00  -0.02   0.04    -0.01   0.00  -0.03    -0.01  -0.02  -0.02
  25   1    -0.01  -0.03   0.04    -0.01   0.00  -0.03    -0.02  -0.01  -0.00
  26   8    -0.05  -0.07   0.02     0.08   0.06  -0.06    -0.03  -0.04   0.12
  27   1    -0.03  -0.02  -0.01     0.04   0.00  -0.03    -0.00  -0.02   0.02
  28   1    -0.01  -0.00   0.00     0.01   0.01  -0.01    -0.00  -0.01   0.03
  29   8     0.10  -0.02  -0.04    -0.07   0.02  -0.13    -0.03  -0.01  -0.24
  30   1     0.02  -0.01   0.00    -0.02  -0.00  -0.03    -0.01   0.01  -0.06
  31   1     0.01   0.00  -0.02    -0.01   0.00  -0.03    -0.00  -0.02  -0.06
  32   8    -0.07   0.11   0.20     0.09   0.10   0.04    -0.01  -0.18   0.01
  33   1    -0.01   0.00   0.05     0.01   0.02  -0.01    -0.01  -0.04  -0.00
  34   1    -0.02   0.05   0.02     0.03   0.03   0.00    -0.00  -0.05   0.00
  35   8     0.10  -0.13   0.11     0.06  -0.08   0.12    -0.06   0.05  -0.01
  36   1     0.01  -0.02   0.04     0.02  -0.01   0.03    -0.01  -0.01  -0.01
  37   1     0.01  -0.02   0.01     0.02  -0.02   0.03    -0.01   0.00   0.00
  38   8     0.20  -0.02   0.03     0.12   0.03   0.11    -0.02   0.09  -0.02
  39   1     0.06  -0.02   0.00     0.03  -0.01   0.03    -0.00   0.02  -0.00
  40   1     0.04   0.00   0.01     0.02   0.02   0.03    -0.00   0.02  -0.01
  41   8    -0.05   0.06  -0.06    -0.01  -0.01   0.04     0.04  -0.10   0.08
  42   1    -0.03   0.02  -0.00    -0.03  -0.03   0.00     0.02  -0.03   0.01
  43   1    -0.00   0.01  -0.02    -0.01   0.02  -0.01     0.01  -0.02   0.01
  44   8    -0.20   0.13   0.06    -0.24  -0.27  -0.04     0.07  -0.17   0.02
  45   1    -0.05   0.04   0.01    -0.04  -0.06  -0.00    -0.02  -0.08  -0.00
  46   1    -0.05   0.02   0.02    -0.06  -0.05  -0.03     0.01  -0.01   0.04
  47   8     0.10  -0.03  -0.11    -0.08   0.10   0.07     0.01   0.15  -0.04
  48   1     0.01  -0.00  -0.03    -0.01   0.03   0.02     0.01   0.03  -0.01
  49   1     0.04  -0.01  -0.03    -0.04   0.03   0.02    -0.01   0.04  -0.02
  50   8     0.08  -0.03   0.02    -0.02   0.02  -0.02     0.05   0.07  -0.01
  51   1     0.02  -0.01  -0.01    -0.01   0.01   0.00     0.01   0.02  -0.01
  52   1     0.01  -0.01   0.01     0.00   0.01  -0.00     0.01   0.01   0.02
  53   8     0.03   0.03  -0.03     0.03   0.05   0.00    -0.00  -0.03   0.08
  54   1     0.02   0.01  -0.01    -0.00   0.01   0.00    -0.01  -0.01   0.02
  55   1     0.00   0.01  -0.00     0.01   0.01   0.00     0.01  -0.01   0.02
  56   8    -0.18   0.08   0.09    -0.26  -0.07  -0.31    -0.06   0.07   0.41
  57   1    -0.03   0.04   0.02    -0.04   0.00  -0.04    -0.03  -0.00   0.07
  58   1    -0.05   0.03   0.05    -0.05   0.00  -0.04    -0.02  -0.00   0.07
  59   8    -0.05  -0.06  -0.05     0.02   0.14   0.01    -0.06   0.05   0.07
  60   1    -0.01  -0.02  -0.00     0.00   0.03  -0.01    -0.01   0.00   0.02
  61   1    -0.01  -0.01  -0.02     0.00   0.03   0.01    -0.02   0.02   0.01
  62   8     0.09   0.03  -0.07    -0.08   0.15   0.11     0.06   0.04  -0.01
  63   1     0.02   0.02  -0.02    -0.02   0.04   0.03     0.01   0.01   0.01
  64   1     0.02   0.01  -0.02    -0.02   0.02   0.04     0.01   0.02  -0.01
  65   8    -0.22  -0.09  -0.15     0.25  -0.06  -0.16    -0.01  -0.20  -0.12
  66   1    -0.04  -0.01  -0.03     0.05  -0.03  -0.03     0.01  -0.04  -0.02
  67   1    -0.06  -0.03  -0.04     0.05  -0.00  -0.04    -0.03  -0.06  -0.04
  68   8    -0.03  -0.01  -0.09     0.04   0.10   0.06     0.09   0.04  -0.06
  69   1    -0.01  -0.00  -0.03     0.01   0.02   0.02     0.02   0.01  -0.00
  70   1    -0.01   0.00  -0.01     0.01   0.02   0.01     0.02   0.01  -0.01
  71   8     0.01  -0.24   0.11    -0.05  -0.06  -0.11    -0.01  -0.07  -0.05
  72   1     0.02  -0.07   0.02    -0.02  -0.01  -0.04     0.00  -0.02  -0.01
  73   1     0.01  -0.04   0.04    -0.00  -0.02  -0.01    -0.00  -0.01  -0.01
  74   8    -0.09   0.01  -0.09     0.11  -0.23  -0.00     0.10  -0.12  -0.03
  75   1    -0.02  -0.03  -0.00     0.02  -0.04  -0.01     0.02  -0.03  -0.01
  76   1    -0.03   0.01  -0.04     0.03  -0.06   0.01     0.01  -0.01  -0.02
  77   8    -0.00  -0.00  -0.11    -0.10   0.01   0.19     0.02   0.12  -0.08
  78   1    -0.01  -0.00  -0.04    -0.03  -0.00   0.04     0.00   0.03  -0.02
  79   1    -0.00  -0.00  -0.03    -0.02   0.00   0.04     0.01   0.03  -0.01
  80   8    -0.10   0.03  -0.17     0.04  -0.11   0.13    -0.05   0.16  -0.08
  81   1    -0.04   0.02  -0.03     0.02  -0.02   0.03    -0.01   0.05  -0.01
  82   1     0.00   0.00  -0.02     0.02  -0.01   0.03    -0.01   0.03  -0.01
  83   8     0.10  -0.07   0.24     0.08  -0.05   0.15     0.02   0.05  -0.01
  84   1     0.02  -0.01   0.06     0.01  -0.01   0.05     0.00   0.02   0.00
  85   1     0.02  -0.03   0.05     0.03  -0.01   0.04    -0.00   0.01   0.00
  86   8     0.08   0.33   0.02     0.03   0.17   0.05    -0.23  -0.00  -0.01
  87   1     0.02   0.06   0.00    -0.00   0.04   0.00    -0.05   0.02   0.01
  88   1     0.06   0.06   0.06     0.03   0.03   0.03    -0.06   0.01  -0.03
  89   8    -0.11   0.03  -0.20     0.11   0.00  -0.02     0.06  -0.15  -0.16
  90   1    -0.04  -0.00  -0.04     0.05  -0.01  -0.02     0.02  -0.05  -0.04
  91   1    -0.02   0.01  -0.04     0.02   0.00   0.00     0.01  -0.03  -0.02
                     13                     14                     15
                        a                      a                      a 
 Frequencies --    49.8769                50.7870                52.3025
 Red. masses --    13.8427                13.9993                13.9990
 Frc consts  --     0.0000                 0.0000                 0.0000
 IR Inten    --     2.8802                 0.8192                 1.2742
 Raman Activ --     0.0000                 0.0000                 0.0000
 Depolar     --     0.0000                 0.0000                 0.0000
 Atom AN      X      Y      Z        X      Y      Z        X      Y      Z
   1   1     0.05  -0.03  -0.03     0.05  -0.02  -0.01    -0.05  -0.01  -0.00
   2   6     0.09  -0.02  -0.14     0.17  -0.04  -0.03    -0.17  -0.06  -0.01
   3   1     0.03  -0.01  -0.04     0.06  -0.03  -0.01    -0.06  -0.01  -0.00
   4   1     0.02   0.00  -0.07     0.06   0.01  -0.01    -0.05  -0.03  -0.00
   5   6    -0.01   0.05  -0.01     0.08  -0.04  -0.00    -0.12  -0.06  -0.02
   6   1    -0.02   0.04  -0.01     0.03  -0.01  -0.00    -0.03  -0.02  -0.00
   7   6    -0.02   0.06   0.00     0.02   0.02   0.00    -0.09  -0.09  -0.01
   8   1     0.01  -0.00   0.01    -0.00   0.01  -0.00    -0.02  -0.03   0.00
   9   1    -0.00   0.02  -0.02     0.01   0.02   0.01    -0.03  -0.03  -0.01
  10   6    -0.00  -0.01   0.13     0.05  -0.13   0.02    -0.11  -0.02  -0.04
  11   1    -0.02   0.01   0.06    -0.00  -0.04   0.01    -0.03  -0.01  -0.02
  12   1    -0.00  -0.01   0.04     0.03  -0.05   0.00    -0.03  -0.00  -0.00
  13   1     0.02  -0.02   0.04     0.01  -0.04   0.01    -0.03   0.01  -0.01
  14   7    -0.09   0.13   0.08    -0.02   0.01  -0.01    -0.09  -0.08   0.01
  15   1    -0.03   0.03   0.04    -0.02  -0.01  -0.01    -0.02  -0.02   0.00
  16   1    -0.04   0.05   0.02     0.01  -0.00  -0.00    -0.02  -0.02   0.00
  17   8     0.13  -0.16  -0.09    -0.03  -0.05  -0.01     0.08   0.01   0.05
  18   1     0.02  -0.05  -0.03    -0.01  -0.02   0.01     0.01  -0.01   0.01
  19   1     0.03  -0.03  -0.02    -0.00  -0.03  -0.01     0.02   0.00   0.01
  20   8     0.09   0.01  -0.07    -0.04  -0.07  -0.05     0.13   0.09  -0.09
  21   1     0.01  -0.00  -0.01    -0.01  -0.01   0.00     0.00   0.01  -0.02
  22   1     0.03   0.01  -0.04    -0.01  -0.02  -0.01     0.03   0.05  -0.04
  23   8    -0.18   0.04  -0.01    -0.13   0.02   0.15     0.04  -0.03   0.18
  24   1    -0.03   0.01   0.01    -0.02   0.01   0.05    -0.01  -0.01   0.03
  25   1    -0.04  -0.00  -0.01    -0.03  -0.01   0.03     0.01   0.00   0.05
  26   8    -0.01  -0.14   0.06     0.15  -0.11  -0.19     0.02  -0.02   0.10
  27   1     0.00  -0.04   0.02     0.03  -0.02  -0.04     0.01  -0.02   0.01
  28   1    -0.01  -0.04   0.02     0.03  -0.02  -0.04     0.01  -0.00   0.02
  29   8    -0.04   0.03   0.06    -0.05   0.04   0.13    -0.12  -0.00  -0.04
  30   1    -0.01   0.02   0.02    -0.01   0.01   0.02    -0.03  -0.01  -0.00
  31   1    -0.01   0.00   0.01    -0.01   0.02   0.03    -0.03   0.01  -0.01
  32   8    -0.06   0.07   0.14    -0.18  -0.02   0.08    -0.14   0.03  -0.00
  33   1    -0.03   0.02   0.02    -0.04   0.00   0.03    -0.02   0.00   0.02
  34   1     0.02   0.01   0.06    -0.06  -0.01   0.02    -0.04   0.01  -0.00
  35   8    -0.16   0.20   0.18    -0.02   0.16  -0.14    -0.05   0.03  -0.09
  36   1    -0.04   0.05   0.05    -0.01   0.03  -0.03    -0.01   0.01  -0.02
  37   1    -0.04   0.04   0.04    -0.00   0.04  -0.04    -0.01   0.01  -0.02
  38   8    -0.04   0.04   0.09     0.03   0.20  -0.15    -0.03   0.04  -0.10
  39   1    -0.02   0.02   0.03     0.02   0.05  -0.05    -0.00   0.01  -0.03
  40   1    -0.00  -0.00   0.01     0.00   0.06  -0.02    -0.01   0.01  -0.02
  41   8    -0.13   0.00   0.10     0.09   0.11  -0.02     0.00   0.01  -0.01
  42   1    -0.03   0.00   0.03     0.03   0.01  -0.02     0.02   0.01  -0.01
  43   1    -0.02  -0.00   0.02     0.01   0.04  -0.01    -0.00  -0.00   0.00
  44   8    -0.11   0.05   0.13     0.01  -0.05  -0.10     0.25   0.07  -0.10
  45   1     0.00   0.05   0.04    -0.02  -0.02  -0.03     0.06   0.00  -0.02
  46   1    -0.02  -0.02  -0.00     0.00  -0.01  -0.00     0.06   0.01  -0.02
  47   8    -0.01   0.00  -0.03    -0.05  -0.07  -0.07     0.01   0.13   0.03
  48   1     0.00   0.00  -0.01    -0.01  -0.01  -0.02     0.01   0.03   0.01
  49   1    -0.01   0.00  -0.00    -0.01  -0.02  -0.01    -0.01   0.03   0.01
  50   8     0.04  -0.07  -0.04     0.03  -0.21  -0.09     0.07   0.03   0.07
  51   1     0.01  -0.02  -0.01     0.00  -0.04  -0.02     0.02   0.01   0.01
  52   1     0.01  -0.02   0.00     0.02  -0.04  -0.04     0.01   0.00   0.03
  53   8     0.00  -0.15   0.04     0.07  -0.04  -0.08     0.11   0.01  -0.01
  54   1     0.01  -0.04   0.01     0.00  -0.01  -0.02     0.03   0.01  -0.00
  55   1     0.02  -0.04   0.01     0.01  -0.01  -0.02     0.03   0.00   0.00
  56   8     0.02  -0.18  -0.24    -0.03  -0.02   0.12     0.24   0.01   0.02
  57   1     0.03  -0.02  -0.04    -0.01   0.00   0.02     0.07   0.01  -0.01
  58   1     0.00  -0.03  -0.03    -0.02  -0.00   0.03     0.04   0.01   0.00
  59   8    -0.05  -0.00  -0.03     0.12  -0.00  -0.01    -0.10   0.13  -0.05
  60   1    -0.00  -0.01   0.00     0.03  -0.01  -0.01    -0.02   0.02  -0.00
  61   1    -0.01  -0.00  -0.00     0.01   0.01  -0.01    -0.01   0.02  -0.01
  62   8     0.08  -0.04   0.00     0.05   0.26   0.16    -0.07   0.09  -0.07
  63   1     0.02  -0.02   0.00     0.01   0.04   0.05    -0.02   0.04  -0.01
  64   1     0.02   0.01  -0.01     0.02   0.04   0.06    -0.03   0.01  -0.02
  65   8     0.02  -0.19   0.04     0.03   0.05  -0.00     0.07  -0.15  -0.08
  66   1     0.01  -0.04  -0.00    -0.01  -0.00  -0.00     0.02  -0.05   0.01
  67   1     0.01  -0.06   0.01     0.03   0.03   0.01    -0.01  -0.02  -0.03
  68   8     0.08   0.02  -0.05    -0.05  -0.01  -0.06     0.06   0.14   0.02
  69   1     0.03   0.01  -0.00    -0.00   0.00  -0.03     0.01   0.03   0.01
  70   1     0.02  -0.01  -0.02    -0.01  -0.01  -0.01     0.01   0.03   0.01
  71   8    -0.05  -0.02  -0.11    -0.02  -0.13   0.02     0.03  -0.11   0.18
  72   1    -0.01  -0.01  -0.02     0.02  -0.05  -0.01     0.01  -0.04   0.02
  73   1    -0.02  -0.00  -0.04    -0.00   0.00  -0.00     0.00  -0.01   0.03
  74   8     0.13  -0.05  -0.10    -0.13  -0.09  -0.01     0.05  -0.27   0.30
  75   1     0.03  -0.01  -0.03    -0.03  -0.03   0.00     0.01  -0.07   0.08
  76   1     0.02   0.01  -0.03    -0.03  -0.03  -0.01     0.01  -0.06   0.06
  77   8     0.10   0.15  -0.10     0.08  -0.03   0.36    -0.24  -0.01  -0.14
  78   1     0.02   0.04  -0.02     0.00  -0.01   0.05    -0.06  -0.00  -0.04
  79   1     0.02   0.03  -0.03     0.02  -0.00   0.07    -0.05   0.00  -0.02
  80   8    -0.01   0.25  -0.01    -0.12  -0.10  -0.09    -0.07  -0.08  -0.05
  81   1    -0.02   0.07   0.01    -0.03  -0.04  -0.03     0.01   0.00  -0.02
  82   1     0.00   0.04   0.01    -0.02   0.00  -0.03    -0.02  -0.01  -0.02
  83   8    -0.06   0.08  -0.17     0.01   0.20  -0.03    -0.05   0.05  -0.02
  84   1    -0.01  -0.01  -0.04     0.00   0.06  -0.01    -0.00   0.02  -0.02
  85   1    -0.02   0.04  -0.01    -0.01   0.05  -0.01    -0.02   0.01  -0.01
  86   8     0.27   0.02   0.03    -0.01   0.01  -0.01     0.24   0.05  -0.06
  87   1     0.05   0.00  -0.00    -0.01  -0.01  -0.00     0.05   0.01  -0.02
  88   1     0.08  -0.01   0.03    -0.00   0.00   0.01     0.05   0.02  -0.01
  89   8    -0.05  -0.12   0.10    -0.08   0.12   0.10    -0.01   0.06   0.02
  90   1    -0.00  -0.03   0.02    -0.02   0.03   0.02     0.01  -0.00  -0.01
  91   1    -0.01  -0.03   0.03    -0.00   0.03   0.01     0.01   0.01   0.01
                     16                     17                     18
                        a                      a                      a 
 Frequencies --    54.9307                57.9317                60.9855
 Red. masses --    12.4161                13.4645                14.1342
 Frc consts  --     0.0000                 0.0000                 0.0000
 IR Inten    --     0.3572                 2.9619                 1.3641
 Raman Activ --     0.0000                 0.0000                 0.0000
 Depolar     --     0.0000                 0.0000                 0.0000
 Atom AN      X      Y      Z        X      Y      Z        X      Y      Z
   1   1    -0.11   0.08   0.05    -0.00   0.07   0.06     0.01  -0.03  -0.02
   2   6    -0.28   0.16   0.23     0.08   0.14   0.25     0.03  -0.04  -0.08
   3   1    -0.09   0.06   0.07     0.04   0.02   0.08     0.01  -0.02  -0.03
   4   1    -0.09   0.02   0.11     0.04   0.06   0.10     0.01   0.00  -0.04
   5   6    -0.11   0.07   0.06     0.03   0.02   0.10    -0.03   0.01   0.00
   6   1     0.00  -0.01   0.03     0.03  -0.02   0.04    -0.01   0.02  -0.01
   7   6    -0.08   0.04   0.09    -0.05   0.12   0.05    -0.06   0.03   0.04
   8   1    -0.04   0.03   0.02    -0.03   0.05   0.01    -0.02   0.00   0.01
   9   1    -0.03   0.00   0.05    -0.00   0.05   0.03    -0.01   0.01   0.02
  10   6    -0.11   0.17  -0.17    -0.03  -0.05  -0.02    -0.04  -0.06   0.06
  11   1     0.01   0.05  -0.06    -0.02  -0.04  -0.04    -0.02  -0.01   0.04
  12   1    -0.03   0.06  -0.07     0.01  -0.04   0.00    -0.01  -0.02   0.01
  13   1    -0.07   0.06  -0.05    -0.03   0.01  -0.02    -0.01  -0.04   0.02
  14   7     0.01  -0.01   0.04    -0.10   0.06  -0.03    -0.07   0.05   0.06
  15   1     0.01   0.01  -0.01    -0.03   0.02  -0.01    -0.01   0.02   0.02
  16   1     0.01  -0.01   0.01    -0.03  -0.00   0.00    -0.03   0.02   0.02
  17   8    -0.04  -0.05   0.03    -0.01  -0.04   0.01    -0.03  -0.03   0.05
  18   1    -0.01  -0.01   0.02    -0.01  -0.01   0.02    -0.01  -0.01   0.02
  19   1     0.00  -0.02   0.00     0.01  -0.02  -0.00     0.00  -0.00   0.01
  20   8    -0.02  -0.05  -0.06    -0.16  -0.03  -0.01    -0.03  -0.17   0.02
  21   1    -0.00  -0.01  -0.01    -0.03  -0.00   0.00     0.01  -0.04  -0.00
  22   1     0.00  -0.03  -0.03    -0.04  -0.02  -0.00    -0.00  -0.06  -0.00
  23   8    -0.14  -0.00  -0.02     0.14   0.07   0.03     0.14  -0.25  -0.03
  24   1    -0.02   0.00   0.00     0.02   0.01   0.01     0.03  -0.06  -0.02
  25   1    -0.03  -0.01  -0.01     0.02   0.01   0.01     0.02  -0.06   0.00
  26   8     0.05  -0.03  -0.20     0.13  -0.08  -0.19    -0.00   0.16  -0.15
  27   1     0.01  -0.00  -0.04     0.02  -0.01  -0.04     0.00   0.04  -0.03
  28   1     0.00  -0.00  -0.04     0.02  -0.01  -0.04    -0.02   0.04  -0.02
  29   8     0.00   0.01   0.03    -0.09   0.03   0.02     0.08  -0.22  -0.12
  30   1     0.00  -0.00   0.01    -0.02   0.02  -0.00     0.01  -0.03  -0.02
  31   1    -0.00   0.00   0.00    -0.02   0.01   0.01     0.02  -0.06  -0.03
  32   8    -0.07   0.02   0.06     0.20   0.12   0.13     0.06  -0.07  -0.07
  33   1    -0.03   0.00   0.01     0.04   0.03   0.02     0.03  -0.04  -0.02
  34   1    -0.02   0.01   0.01     0.07   0.03   0.04     0.05  -0.02  -0.01
  35   8    -0.07  -0.08   0.10     0.10   0.15   0.16    -0.12   0.22   0.00
  36   1    -0.02  -0.01   0.03     0.02   0.03   0.04    -0.02   0.04  -0.01
  37   1    -0.02  -0.02   0.03     0.02   0.03   0.03    -0.02   0.04   0.01
  38   8     0.03   0.01   0.04    -0.00  -0.08   0.18     0.02  -0.02  -0.09
  39   1    -0.00  -0.01   0.02     0.00  -0.00   0.04     0.00   0.01  -0.02
  40   1    -0.00   0.01  -0.00     0.01  -0.04   0.04     0.01  -0.01  -0.01
  41   8    -0.07  -0.09   0.14     0.01   0.01  -0.13     0.01  -0.01   0.10
  42   1     0.00  -0.03   0.02    -0.00   0.01  -0.02     0.01  -0.01   0.02
  43   1    -0.02  -0.02   0.03     0.02  -0.01  -0.03     0.01   0.00   0.02
  44   8     0.22  -0.17  -0.05    -0.02   0.11  -0.06    -0.04  -0.11   0.07
  45   1     0.05  -0.09  -0.00     0.00   0.04  -0.01    -0.01  -0.02   0.02
  46   1     0.05  -0.02  -0.00    -0.00   0.02  -0.02    -0.01  -0.02   0.01
  47   8     0.13  -0.08  -0.08    -0.01   0.06  -0.07     0.20   0.01   0.11
  48   1     0.01  -0.01  -0.02    -0.00   0.01  -0.02     0.03   0.02   0.03
  49   1     0.06  -0.03  -0.02    -0.02   0.02  -0.02     0.07  -0.01   0.03
  50   8     0.12  -0.12  -0.03     0.11  -0.16  -0.07     0.14   0.07   0.06
  51   1     0.03  -0.03  -0.01     0.02  -0.03  -0.02     0.04   0.01   0.02
  52   1     0.03  -0.02  -0.03     0.04  -0.03  -0.03     0.03   0.02  -0.00
  53   8    -0.10  -0.02  -0.06    -0.02  -0.02  -0.04    -0.19  -0.01  -0.02
  54   1    -0.03  -0.00  -0.02    -0.02  -0.00  -0.01    -0.03  -0.01  -0.01
  55   1    -0.03  -0.00  -0.01    -0.01  -0.01  -0.01    -0.04  -0.00  -0.01
  56   8     0.15   0.01   0.11     0.03  -0.02  -0.14    -0.06  -0.01  -0.04
  57   1     0.05   0.01   0.02     0.00  -0.01  -0.02    -0.00   0.01   0.01
  58   1     0.02   0.01   0.03     0.03   0.00  -0.01    -0.02  -0.00  -0.02
  59   8     0.11  -0.04   0.01     0.12   0.06   0.03     0.06   0.10  -0.04
  60   1     0.03  -0.01  -0.01     0.03   0.01  -0.00     0.01   0.04  -0.02
  61   1     0.01   0.00  -0.01     0.02   0.02   0.00     0.02   0.02  -0.00
  62   8    -0.12   0.09  -0.09     0.07  -0.20  -0.13     0.06   0.00   0.04
  63   1    -0.03   0.03  -0.05     0.01  -0.03  -0.02     0.01   0.00   0.02
  64   1    -0.01   0.02  -0.00     0.00  -0.04  -0.05     0.01  -0.00   0.01
  65   8     0.06   0.03  -0.12     0.00   0.06  -0.03     0.01   0.22  -0.06
  66   1     0.02   0.01  -0.04    -0.02  -0.00   0.00    -0.00   0.05  -0.00
  67   1     0.04   0.01  -0.02     0.01   0.04  -0.00    -0.00   0.07  -0.01
  68   8    -0.06   0.01  -0.04    -0.05   0.06  -0.06    -0.04   0.14   0.14
  69   1    -0.01   0.01  -0.04    -0.00   0.03  -0.03    -0.00   0.04   0.02
  70   1    -0.02  -0.00  -0.00    -0.01   0.01  -0.01    -0.01   0.02   0.03
  71   8    -0.05  -0.02  -0.08     0.04  -0.08   0.04    -0.03  -0.09   0.15
  72   1    -0.02   0.00  -0.00     0.01  -0.03  -0.01     0.02  -0.03   0.04
  73   1    -0.01  -0.01  -0.01     0.01  -0.00   0.01    -0.01  -0.00   0.01
  74   8     0.08   0.08  -0.18    -0.15  -0.11   0.10    -0.09   0.11   0.02
  75   1     0.02   0.02  -0.04    -0.03  -0.03   0.03    -0.03   0.01   0.02
  76   1     0.02   0.02  -0.04    -0.04  -0.03   0.02    -0.01   0.01  -0.00
  77   8     0.14   0.05   0.10    -0.08  -0.16  -0.26    -0.05  -0.03  -0.02
  78   1     0.04   0.01   0.03    -0.03  -0.03  -0.05    -0.02  -0.01  -0.01
  79   1     0.03   0.01   0.02     0.00  -0.02  -0.04    -0.01  -0.00  -0.01
  80   8     0.10   0.06   0.05    -0.19  -0.03   0.05    -0.01  -0.07  -0.07
  81   1     0.01   0.00   0.02    -0.05   0.02   0.02     0.00  -0.02  -0.02
  82   1     0.02   0.01   0.01    -0.03  -0.02   0.03     0.00  -0.01  -0.02
  83   8    -0.01  -0.08   0.03     0.05   0.06   0.01    -0.15   0.14  -0.17
  84   1    -0.00  -0.03   0.01     0.01   0.01   0.01    -0.02   0.01  -0.06
  85   1    -0.00  -0.02   0.02     0.02   0.02   0.02    -0.05   0.05  -0.02
  86   8     0.17   0.06   0.09    -0.07  -0.13   0.05     0.12   0.14   0.18
  87   1     0.02   0.01   0.01    -0.03  -0.03   0.01     0.01   0.01   0.03
  88   1     0.02   0.03   0.03    -0.04  -0.02  -0.00     0.04   0.02   0.09
  89   8    -0.07  -0.00  -0.01    -0.08   0.04   0.04     0.06  -0.18  -0.16
  90   1    -0.01   0.00  -0.01    -0.01   0.01   0.01     0.01  -0.02  -0.03
  91   1    -0.02  -0.00  -0.01    -0.01   0.01   0.00    -0.01  -0.05  -0.05
                     19                     20                     21
                        a                      a                      a 
 Frequencies --    62.6537                65.3600                67.8198
 Red. masses --    14.2604                14.3113                14.0977
 Frc consts  --     0.0000                 0.0000                 0.0000
 IR Inten    --     0.2541                 1.4505                 1.7978
 Raman Activ --     0.0000                 0.0000                 0.0000
 Depolar     --     0.0000                 0.0000                 0.0000
 Atom AN      X      Y      Z        X      Y      Z        X      Y      Z
   1   1     0.03  -0.02  -0.01    -0.02   0.01   0.01     0.02   0.04   0.01
   2   6     0.07  -0.04  -0.03    -0.05   0.03   0.05     0.06   0.11   0.05
   3   1     0.02  -0.01  -0.01    -0.02   0.01   0.02     0.02   0.02   0.02
   4   1     0.02  -0.01  -0.02    -0.02  -0.00   0.02     0.02   0.04   0.01
   5   6     0.03  -0.01   0.02    -0.01   0.02   0.03    -0.01   0.09   0.04
   6   1     0.00   0.01   0.00    -0.00  -0.00   0.01    -0.01   0.02   0.01
   7   6     0.03  -0.01   0.03     0.02  -0.01   0.02    -0.03   0.13  -0.02
   8   1     0.00   0.00   0.01     0.01   0.00   0.00    -0.01   0.05  -0.01
   9   1     0.01  -0.00   0.02     0.00  -0.01   0.01    -0.01   0.04   0.00
  10   6     0.04  -0.02   0.08     0.01   0.06   0.00    -0.01   0.05   0.09
  11   1     0.00  -0.01   0.03     0.01   0.02   0.00    -0.01   0.02   0.03
  12   1     0.01  -0.01   0.03    -0.00   0.02  -0.01    -0.00   0.01   0.02
  13   1     0.02  -0.01   0.02    -0.00   0.01   0.00     0.00   0.00   0.03
  14   7     0.06  -0.03   0.00     0.05  -0.03  -0.00    -0.05   0.10  -0.06
  15   1     0.01  -0.01  -0.01     0.01  -0.01  -0.01    -0.02   0.02  -0.03
  16   1     0.02  -0.02   0.00     0.01  -0.01   0.00     0.00   0.01  -0.01
  17   8     0.03   0.12  -0.07     0.13  -0.03   0.01    -0.04   0.03  -0.00
  18   1     0.02   0.04  -0.01     0.02  -0.02   0.02    -0.01   0.01   0.00
  19   1     0.01   0.02  -0.02     0.03  -0.03  -0.00    -0.01   0.01   0.00
  20   8    -0.06   0.14   0.13    -0.06   0.05   0.05    -0.06  -0.03  -0.01
  21   1    -0.01   0.03   0.03    -0.01   0.01   0.01    -0.01  -0.00   0.01
  22   1    -0.01   0.03   0.02    -0.02   0.01   0.02    -0.02  -0.01   0.00
  23   8     0.01   0.12   0.02     0.07   0.10   0.04     0.27   0.09   0.07
  24   1     0.01   0.03   0.00     0.01   0.03   0.00     0.05   0.01   0.03
  25   1     0.00   0.03   0.00     0.02   0.03   0.01     0.06   0.01   0.02
  26   8    -0.12  -0.02  -0.28     0.07  -0.24  -0.03    -0.04   0.01   0.04
  27   1    -0.01  -0.01  -0.06    -0.01  -0.04   0.00    -0.01  -0.00   0.00
  28   1    -0.06   0.00  -0.04     0.02  -0.04  -0.00    -0.00   0.00   0.01
  29   8    -0.01   0.12   0.04    -0.00   0.08   0.03    -0.05   0.04   0.09
  30   1     0.00   0.02   0.01     0.00   0.01   0.01    -0.01   0.02   0.01
  31   1     0.00   0.01   0.01    -0.00   0.02   0.01    -0.01   0.01   0.02
  32   8     0.00  -0.18  -0.09     0.05  -0.06  -0.03    -0.07   0.10  -0.29
  33   1     0.00  -0.02  -0.01     0.02   0.00   0.00     0.01   0.03  -0.04
  34   1    -0.03  -0.05  -0.02     0.00  -0.02   0.00    -0.04   0.02  -0.08
  35   8     0.07  -0.17  -0.14     0.09  -0.06  -0.07    -0.18  -0.13  -0.05
  36   1     0.02  -0.05  -0.03     0.03  -0.00  -0.02    -0.03  -0.02  -0.03
  37   1     0.01  -0.03  -0.03     0.03  -0.01  -0.01    -0.03  -0.03   0.01
  38   8    -0.10   0.03  -0.03     0.15  -0.19  -0.10     0.07   0.01  -0.16
  39   1    -0.01  -0.00  -0.02     0.04  -0.05  -0.03     0.01  -0.00  -0.04
  40   1    -0.02   0.00  -0.01     0.03  -0.03  -0.01     0.01   0.01  -0.04
  41   8     0.04   0.05  -0.05     0.16   0.01   0.11    -0.04  -0.12   0.27
  42   1     0.00   0.02  -0.00     0.02  -0.01   0.03    -0.00  -0.03   0.06
  43   1     0.00   0.00  -0.00     0.02   0.01   0.03    -0.01  -0.03   0.07
  44   8    -0.03   0.18   0.09    -0.07  -0.17   0.11     0.02  -0.14   0.23
  45   1    -0.01   0.07   0.02    -0.01  -0.04   0.03     0.04  -0.02   0.07
  46   1    -0.00   0.02   0.02    -0.02  -0.03   0.02     0.00  -0.02   0.01
  47   8     0.06  -0.15  -0.03    -0.14   0.12  -0.08     0.04  -0.04  -0.03
  48   1     0.01  -0.01  -0.00    -0.02   0.04  -0.02     0.00  -0.01  -0.01
  49   1     0.05  -0.06   0.01    -0.07   0.03  -0.00     0.03  -0.01  -0.01
  50   8     0.01  -0.06  -0.14     0.06  -0.23  -0.06    -0.01   0.05   0.00
  51   1     0.01  -0.03  -0.02     0.01  -0.04  -0.02    -0.00   0.01  -0.00
  52   1    -0.00  -0.01  -0.05     0.03  -0.05  -0.02    -0.01   0.01   0.00
  53   8    -0.43   0.13   0.13     0.08  -0.02   0.04    -0.00   0.02  -0.01
  54   1    -0.08   0.02   0.03     0.01  -0.00   0.01    -0.01   0.00  -0.00
  55   1    -0.07   0.03   0.02     0.03  -0.01   0.01    -0.00   0.00  -0.00
  56   8     0.05  -0.08   0.08    -0.09  -0.05  -0.03     0.03   0.06  -0.34
  57   1     0.01  -0.02   0.04    -0.02  -0.01   0.01     0.01   0.01  -0.06
  58   1     0.01  -0.03   0.00    -0.02  -0.02  -0.01     0.01   0.01  -0.09
  59   8    -0.08  -0.03  -0.12    -0.09   0.12  -0.04     0.02  -0.07   0.06
  60   1    -0.02  -0.00  -0.05    -0.01   0.01  -0.01     0.00  -0.02   0.02
  61   1    -0.03  -0.01  -0.03    -0.04   0.04  -0.02    -0.00  -0.01   0.01
  62   8     0.00  -0.03   0.04    -0.02   0.01   0.12     0.09   0.06  -0.01
  63   1     0.00  -0.02   0.02    -0.01   0.02   0.04     0.02   0.01  -0.01
  64   1     0.00   0.00   0.00    -0.02   0.00   0.02     0.03   0.01   0.00
  65   8     0.15  -0.04  -0.08    -0.24  -0.06   0.07     0.01  -0.05  -0.02
  66   1     0.03  -0.02  -0.00    -0.04   0.01   0.02     0.00  -0.01  -0.00
  67   1     0.05   0.02  -0.01    -0.06  -0.02   0.02     0.00  -0.01  -0.01
  68   8     0.02   0.15  -0.00     0.02   0.29  -0.08    -0.03  -0.05  -0.02
  69   1     0.00   0.04  -0.03     0.02   0.09  -0.05    -0.01  -0.01  -0.01
  70   1     0.00   0.04  -0.00     0.01   0.05  -0.01    -0.01  -0.01  -0.00
  71   8     0.01   0.01  -0.03     0.05   0.17   0.07     0.02  -0.21   0.15
  72   1    -0.01   0.00  -0.02    -0.00   0.05   0.02    -0.00  -0.06   0.01
  73   1     0.01  -0.00   0.00    -0.00   0.02  -0.01     0.01  -0.05   0.05
  74   8     0.07  -0.16   0.08     0.02   0.19   0.05     0.02  -0.06   0.02
  75   1     0.01  -0.03   0.02     0.01   0.04   0.02    -0.00  -0.04   0.02
  76   1     0.01  -0.02   0.01     0.01   0.04   0.01    -0.00  -0.01  -0.02
  77   8    -0.02   0.06  -0.03    -0.12   0.06   0.00     0.11   0.03   0.01
  78   1    -0.01   0.02  -0.01    -0.02   0.00  -0.01     0.02   0.00  -0.02
  79   1    -0.01   0.01  -0.02    -0.03   0.01   0.00     0.03   0.01   0.01
  80   8    -0.07   0.08  -0.05     0.15  -0.10  -0.13    -0.03   0.03  -0.24
  81   1    -0.01   0.03  -0.02     0.04  -0.02  -0.03    -0.01   0.01  -0.05
  82   1    -0.02   0.02  -0.02     0.03  -0.03  -0.03     0.00   0.01  -0.05
  83   8     0.06  -0.08   0.11    -0.14  -0.12  -0.24     0.04  -0.05   0.16
  84   1     0.00   0.00   0.04    -0.02  -0.07  -0.08     0.02   0.02   0.03
  85   1     0.02  -0.04   0.00    -0.02  -0.02  -0.04    -0.02  -0.02   0.02
  86   8     0.14  -0.00   0.25    -0.00   0.03   0.10    -0.09  -0.11  -0.06
  87   1     0.02   0.02   0.05    -0.01   0.01   0.02    -0.02  -0.03  -0.01
  88   1     0.05  -0.01   0.06     0.01   0.00   0.03    -0.05  -0.01  -0.04
  89   8    -0.02  -0.09   0.09    -0.12   0.04  -0.02    -0.08   0.08   0.07
  90   1     0.01  -0.01   0.01    -0.05  -0.00   0.00    -0.01   0.01   0.01
  91   1    -0.05  -0.02   0.04    -0.02   0.01   0.00    -0.01   0.02   0.02
                     22                     23                     24
                        a                      a                      a 
 Frequencies --    68.4242                70.8694                71.8427
 Red. masses --    14.1664                13.5464                14.1115
 Frc consts  --     0.0000                 0.0000                 0.0000
 IR Inten    --     1.0883                 0.0630                 0.5057
 Raman Activ --     0.0000                 0.0000                 0.0000
 Depolar     --     0.0000                 0.0000                 0.0000
 Atom AN      X      Y      Z        X      Y      Z        X      Y      Z
   1   1    -0.03  -0.04  -0.01    -0.05   0.01  -0.01     0.02  -0.02  -0.03
   2   6    -0.04  -0.07  -0.05    -0.23   0.02  -0.03     0.00  -0.01  -0.14
   3   1    -0.01  -0.01  -0.04    -0.10   0.03   0.00    -0.00   0.00  -0.05
   4   1    -0.01  -0.02  -0.01    -0.08  -0.03  -0.01    -0.00   0.00  -0.06
   5   6     0.03  -0.01   0.01    -0.12   0.03  -0.04    -0.03   0.06  -0.04
   6   1     0.02   0.01  -0.00    -0.04   0.01  -0.01    -0.02   0.04  -0.02
   7   6     0.04  -0.04   0.12    -0.03  -0.06  -0.04    -0.03   0.05  -0.00
   8   1    -0.00  -0.02   0.04     0.00  -0.02  -0.01    -0.01   0.01   0.00
   9   1     0.01  -0.02   0.04    -0.02  -0.04  -0.02    -0.01   0.01  -0.00
  10   6     0.03   0.01  -0.02    -0.06   0.16  -0.04    -0.02   0.04   0.05
  11   1     0.02   0.01   0.00     0.01   0.06   0.00    -0.01   0.02   0.03
  12   1     0.01   0.01  -0.03    -0.04   0.07  -0.03    -0.01   0.01   0.01
  13   1    -0.00  -0.01  -0.00    -0.02   0.03  -0.01     0.01  -0.01   0.02
  14   7     0.12  -0.00   0.18     0.03  -0.05  -0.03    -0.02   0.07   0.02
  15   1     0.03   0.00   0.04     0.01  -0.01  -0.01    -0.01   0.01  -0.00
  16   1     0.04   0.01   0.04     0.01  -0.01  -0.01     0.01   0.02   0.00
  17   8    -0.04   0.14   0.02    -0.07   0.08  -0.02     0.01   0.03   0.02
  18   1    -0.01   0.04   0.02    -0.00   0.03  -0.01    -0.00   0.00   0.01
  19   1    -0.01   0.02   0.00    -0.02   0.02  -0.00    -0.00  -0.00   0.00
  20   8    -0.05  -0.15   0.12    -0.03   0.15   0.01    -0.13  -0.05   0.07
  21   1     0.01  -0.03   0.03    -0.01   0.03  -0.01    -0.02  -0.01   0.01
  22   1    -0.02  -0.06   0.06    -0.01   0.04   0.00    -0.03  -0.02   0.03
  23   8     0.07  -0.01  -0.07     0.06   0.07   0.05    -0.01   0.01  -0.13
  24   1     0.03  -0.00  -0.01     0.01   0.02   0.00     0.00   0.00  -0.03
  25   1    -0.00  -0.02  -0.01     0.01   0.02   0.02     0.01   0.00  -0.04
  26   8     0.02  -0.01   0.02     0.03   0.02   0.01     0.11  -0.06   0.07
  27   1     0.01  -0.02  -0.03     0.01   0.00   0.00     0.01  -0.01   0.01
  28   1     0.02   0.01  -0.01     0.01   0.00   0.00     0.04  -0.01   0.01
  29   8     0.15  -0.05   0.12    -0.02   0.09  -0.07     0.00  -0.01   0.03
  30   1     0.03  -0.01   0.05     0.00   0.01  -0.02    -0.00   0.01   0.01
  31   1     0.01   0.00   0.01     0.00   0.02  -0.01    -0.00   0.00   0.01
  32   8     0.09   0.02  -0.05     0.12  -0.11   0.05     0.01  -0.21  -0.18
  33   1     0.02  -0.00  -0.02     0.03  -0.01   0.02    -0.00  -0.04  -0.05
  34   1     0.04   0.00  -0.00     0.04  -0.04   0.04    -0.00  -0.06  -0.03
  35   8    -0.02   0.10   0.00     0.12   0.14  -0.05    -0.18   0.04  -0.01
  36   1    -0.00   0.03  -0.00     0.04   0.03  -0.02    -0.03  -0.02  -0.01
  37   1     0.00   0.02   0.00     0.04   0.02  -0.00    -0.04   0.00  -0.00
  38   8    -0.09   0.01   0.04    -0.06   0.04   0.03    -0.04   0.13  -0.07
  39   1    -0.02   0.01   0.01    -0.00   0.01  -0.00    -0.02   0.05  -0.00
  40   1    -0.02  -0.01   0.01    -0.00  -0.00   0.01     0.00   0.02  -0.02
  41   8    -0.01   0.03  -0.06     0.24   0.00   0.11    -0.10  -0.11   0.06
  42   1    -0.00   0.01  -0.01     0.04  -0.00   0.03    -0.01  -0.02   0.01
  43   1    -0.00   0.01  -0.02     0.05   0.00   0.03    -0.01  -0.03   0.01
  44   8    -0.01   0.05  -0.05    -0.08  -0.21   0.14     0.00  -0.01   0.11
  45   1    -0.01   0.02  -0.01    -0.02  -0.05   0.04    -0.00   0.00   0.03
  46   1    -0.00   0.01  -0.01    -0.02  -0.04   0.03     0.00  -0.01   0.03
  47   8    -0.04  -0.03  -0.04    -0.07  -0.09  -0.04    -0.13   0.03  -0.04
  48   1    -0.01  -0.01  -0.01    -0.01  -0.05  -0.02    -0.02  -0.00  -0.01
  49   1    -0.00  -0.01  -0.01    -0.03  -0.01  -0.03    -0.07   0.02  -0.01
  50   8    -0.05  -0.01  -0.03    -0.11   0.02  -0.04    -0.06  -0.07  -0.01
  51   1    -0.01  -0.00  -0.01    -0.03   0.00  -0.01    -0.02  -0.01  -0.00
  52   1    -0.01  -0.00  -0.01    -0.02   0.01  -0.01    -0.00  -0.02   0.00
  53   8     0.14   0.11  -0.05     0.05   0.07   0.02     0.22   0.01  -0.02
  54   1     0.02   0.02  -0.01     0.00   0.02   0.01     0.02   0.00  -0.00
  55   1     0.02   0.03  -0.02     0.00   0.02   0.01     0.04   0.00  -0.01
  56   8    -0.01   0.05  -0.03    -0.11  -0.08   0.06     0.02  -0.04   0.11
  57   1    -0.01   0.00   0.01    -0.02  -0.01   0.02     0.01  -0.01   0.05
  58   1     0.01   0.01  -0.01    -0.03  -0.02   0.01     0.00  -0.03  -0.00
  59   8     0.05  -0.03   0.00     0.09  -0.13   0.04     0.06  -0.00  -0.01
  60   1     0.01  -0.01   0.01     0.02  -0.03   0.01     0.02  -0.00   0.01
  61   1     0.01   0.00  -0.01     0.02  -0.04   0.01     0.02   0.00  -0.01
  62   8     0.01  -0.07   0.03     0.12  -0.06  -0.03     0.08   0.02  -0.18
  63   1     0.01  -0.04   0.00     0.03  -0.02  -0.01     0.02   0.03  -0.05
  64   1     0.02  -0.00   0.01     0.03  -0.01  -0.01     0.01  -0.01  -0.04
  65   8    -0.02  -0.21  -0.41     0.07   0.03   0.07    -0.08  -0.02  -0.02
  66   1     0.02  -0.05  -0.06     0.00  -0.01   0.03    -0.02  -0.00  -0.01
  67   1    -0.04  -0.04  -0.11     0.01   0.02   0.02    -0.02  -0.01  -0.01
  68   8    -0.03   0.01  -0.03     0.03  -0.34  -0.07    -0.01   0.01  -0.05
  69   1    -0.01   0.00  -0.02    -0.01  -0.10   0.02    -0.00   0.00  -0.01
  70   1    -0.01   0.01  -0.00     0.01  -0.06  -0.02    -0.00   0.00  -0.01
  71   8    -0.18  -0.02   0.09     0.03  -0.03   0.03     0.04   0.11  -0.14
  72   1    -0.04  -0.01   0.02     0.01  -0.02  -0.02     0.01   0.03  -0.03
  73   1    -0.05  -0.00   0.01    -0.00   0.01  -0.02     0.03   0.03   0.00
  74   8     0.20  -0.15   0.15    -0.07  -0.13   0.13    -0.06   0.00  -0.06
  75   1     0.04  -0.03   0.03    -0.02  -0.03   0.03    -0.01   0.02  -0.03
  76   1     0.04  -0.02   0.03    -0.03  -0.01   0.01    -0.00  -0.01   0.01
  77   8     0.16   0.07   0.06     0.12  -0.05  -0.06    -0.09  -0.17  -0.18
  78   1     0.04   0.02   0.02     0.01  -0.01  -0.03    -0.01  -0.04  -0.01
  79   1     0.04   0.01   0.01     0.04  -0.00  -0.02    -0.02  -0.04  -0.03
  80   8     0.08   0.12   0.09    -0.21   0.12  -0.11     0.07  -0.19   0.18
  81   1     0.03   0.03   0.02    -0.06   0.05  -0.02     0.03  -0.06   0.03
  82   1     0.01   0.02   0.02    -0.04   0.02  -0.01     0.01  -0.02   0.03
  83   8    -0.26   0.08  -0.06    -0.07   0.08  -0.22     0.22   0.16   0.26
  84   1    -0.06  -0.01  -0.02    -0.01  -0.01  -0.06     0.04   0.10   0.07
  85   1    -0.05   0.03  -0.00    -0.01   0.04  -0.03     0.03   0.02   0.03
  86   8    -0.12  -0.12   0.11     0.09   0.15   0.08     0.16   0.10   0.31
  87   1    -0.03  -0.04   0.03     0.01   0.04   0.01     0.00   0.01   0.05
  88   1    -0.05  -0.02   0.03     0.05   0.02   0.04     0.06   0.01   0.13
  89   8    -0.17   0.18  -0.18     0.12   0.06   0.02    -0.04   0.13  -0.03
  90   1    -0.03   0.02  -0.06     0.03   0.01   0.01    -0.02   0.02  -0.00
  91   1    -0.01   0.04  -0.04     0.03   0.02   0.01     0.02   0.03  -0.01
                     25                     26                     27
                        a                      a                      a 
 Frequencies --    74.5145                78.3256                80.7435
 Red. masses --    13.6874                14.0576                14.2191
 Frc consts  --     0.0000                 0.0000                 0.0000
 IR Inten    --     0.2136                 4.5079                 0.3630
 Raman Activ --     0.0000                 0.0000                 0.0000
 Depolar     --     0.0000                 0.0000                 0.0000
 Atom AN      X      Y      Z        X      Y      Z        X      Y      Z
   1   1     0.00   0.03   0.04     0.03  -0.00  -0.03    -0.01  -0.00   0.02
   2   6     0.02   0.03   0.16     0.09   0.02  -0.12    -0.03  -0.03   0.08
   3   1     0.01   0.00   0.06     0.04  -0.01  -0.03    -0.01  -0.01   0.02
   4   1     0.01   0.01   0.05     0.03   0.02  -0.04    -0.01  -0.01   0.03
   5   6     0.01  -0.03   0.07    -0.01   0.02  -0.09    -0.02  -0.06   0.04
   6   1     0.00  -0.03   0.03    -0.00   0.01  -0.03    -0.01  -0.03   0.01
   7   6     0.01  -0.01   0.01    -0.06   0.08  -0.09    -0.02  -0.06   0.02
   8   1     0.00   0.01  -0.00    -0.03   0.03  -0.03     0.01  -0.02   0.01
   9   1     0.00  -0.00   0.01    -0.01   0.04  -0.02    -0.01  -0.01  -0.01
  10   6     0.01  -0.03   0.04    -0.04  -0.07  -0.05    -0.03  -0.05   0.02
  11   1    -0.00  -0.02  -0.00    -0.03  -0.02  -0.02    -0.01  -0.02  -0.00
  12   1     0.00  -0.01   0.02     0.00  -0.03  -0.01    -0.01  -0.02   0.01
  13   1     0.00   0.01   0.01    -0.01  -0.02  -0.02    -0.01  -0.00   0.00
  14   7    -0.01  -0.06  -0.04    -0.11   0.07  -0.12    -0.07  -0.04   0.04
  15   1    -0.01  -0.02  -0.02    -0.03   0.02  -0.03    -0.01  -0.01   0.03
  16   1     0.00  -0.03  -0.01    -0.03   0.01  -0.03    -0.04  -0.00   0.01
  17   8    -0.19   0.12  -0.13    -0.03   0.03  -0.03    -0.00   0.28  -0.04
  18   1    -0.08   0.00  -0.02    -0.01   0.00  -0.01     0.00   0.07   0.01
  19   1    -0.03   0.03  -0.04    -0.01   0.01  -0.01    -0.01   0.03  -0.02
  20   8    -0.08  -0.13  -0.12    -0.32   0.04   0.01     0.34   0.20   0.23
  21   1    -0.02  -0.02  -0.02    -0.07   0.01  -0.01     0.05   0.02   0.03
  22   1    -0.02  -0.04  -0.03    -0.08   0.01   0.01     0.07   0.10   0.06
  23   8    -0.09  -0.03  -0.04     0.15   0.01   0.05     0.10  -0.14  -0.04
  24   1    -0.02  -0.01  -0.01     0.02  -0.00   0.00     0.02  -0.04  -0.01
  25   1    -0.02  -0.00  -0.01     0.02   0.00   0.02     0.02  -0.03  -0.01
  26   8    -0.06  -0.04   0.15     0.04  -0.01   0.14     0.07  -0.14  -0.05
  27   1    -0.02  -0.01   0.03     0.00   0.00   0.03     0.00  -0.02   0.01
  28   1     0.01  -0.02   0.01     0.02  -0.01   0.02    -0.00  -0.02   0.00
  29   8    -0.04  -0.03   0.01    -0.12   0.03  -0.13     0.02  -0.11  -0.08
  30   1    -0.01  -0.01  -0.01    -0.03   0.02  -0.05     0.01  -0.03  -0.02
  31   1     0.00   0.00   0.01    -0.02   0.00  -0.02     0.01  -0.03  -0.02
  32   8    -0.02   0.00   0.04     0.14  -0.07   0.02     0.05   0.00  -0.05
  33   1    -0.01  -0.00   0.00     0.03  -0.01   0.00     0.02  -0.02  -0.02
  34   1    -0.00   0.00   0.01     0.04  -0.02   0.01     0.04   0.00  -0.00
  35   8     0.04   0.02  -0.03     0.02  -0.08   0.11    -0.17   0.12   0.13
  36   1     0.01   0.00  -0.01     0.01  -0.03   0.03    -0.04   0.02   0.03
  37   1     0.01   0.00  -0.00    -0.00  -0.00   0.02    -0.04   0.03   0.03
  38   8    -0.01   0.02   0.02     0.08  -0.14   0.05     0.04   0.02   0.01
  39   1     0.00   0.01   0.00     0.02  -0.05   0.01    -0.00   0.01   0.01
  40   1     0.00   0.00   0.01     0.00  -0.02   0.01     0.01   0.01  -0.00
  41   8     0.09   0.00   0.04    -0.15   0.11  -0.08    -0.19  -0.02   0.03
  42   1     0.01   0.00   0.02    -0.02   0.02  -0.03    -0.03  -0.01  -0.00
  43   1     0.02  -0.00   0.01    -0.04   0.03  -0.02    -0.03  -0.00  -0.00
  44   8    -0.06  -0.03   0.10     0.10   0.15  -0.21     0.05  -0.00  -0.09
  45   1    -0.01   0.00   0.02     0.02   0.02  -0.05     0.01  -0.03  -0.02
  46   1    -0.02  -0.01   0.02     0.03   0.03  -0.04     0.01   0.01  -0.02
  47   8     0.29  -0.32   0.02    -0.02  -0.08   0.01    -0.15  -0.17  -0.09
  48   1     0.02  -0.02   0.02    -0.01  -0.02   0.00    -0.03  -0.02  -0.02
  49   1     0.19  -0.14   0.03     0.01  -0.02   0.00    -0.03  -0.06  -0.00
  50   8    -0.02   0.12  -0.17    -0.08   0.04  -0.01    -0.14  -0.13  -0.18
  51   1     0.00   0.01  -0.02    -0.02   0.01   0.00    -0.04  -0.04  -0.03
  52   1    -0.02   0.02  -0.03    -0.02   0.01   0.01    -0.03  -0.03  -0.05
  53   8     0.25   0.00  -0.19     0.18  -0.01  -0.02     0.01   0.17   0.21
  54   1     0.03  -0.00  -0.04     0.00   0.00  -0.00     0.04   0.03   0.05
  55   1     0.04   0.00  -0.05     0.03  -0.00  -0.01     0.00   0.04   0.04
  56   8    -0.06  -0.02   0.01     0.11  -0.01   0.03     0.02   0.05  -0.02
  57   1    -0.01   0.00   0.00     0.03  -0.00   0.03    -0.00   0.00  -0.01
  58   1    -0.02  -0.00   0.01     0.04  -0.01   0.01     0.01   0.01  -0.01
  59   8    -0.08  -0.06  -0.16     0.02  -0.02  -0.06     0.06  -0.05  -0.06
  60   1    -0.01  -0.02  -0.01     0.01  -0.01  -0.00     0.02  -0.02  -0.01
  61   1    -0.01   0.00  -0.05     0.01  -0.01  -0.01    -0.01   0.01  -0.03
  62   8     0.05  -0.01   0.03    -0.19   0.03   0.02    -0.01   0.03  -0.07
  63   1     0.01  -0.00   0.02    -0.04   0.00  -0.02     0.00   0.01  -0.03
  64   1     0.00   0.00  -0.00    -0.03   0.01   0.03     0.00   0.00  -0.01
  65   8     0.03  -0.10   0.15    -0.04  -0.01   0.11    -0.06  -0.00   0.18
  66   1     0.01  -0.02   0.03    -0.01   0.00   0.01    -0.02   0.00   0.03
  67   1     0.01  -0.04   0.04    -0.01  -0.02   0.02    -0.00  -0.01   0.05
  68   8    -0.22   0.29   0.12    -0.01  -0.05   0.01    -0.03   0.19  -0.07
  69   1    -0.06   0.09  -0.05    -0.01  -0.02   0.01    -0.01   0.06  -0.07
  70   1    -0.06   0.08   0.03    -0.00  -0.01  -0.00    -0.01   0.06  -0.01
  71   8     0.00   0.08  -0.08    -0.02  -0.16   0.11    -0.00  -0.13   0.05
  72   1     0.00   0.02  -0.01    -0.01  -0.04   0.02     0.01  -0.04   0.02
  73   1     0.00   0.02  -0.02    -0.01  -0.05   0.02    -0.00  -0.02   0.01
  74   8     0.05  -0.06   0.04     0.01   0.07  -0.05    -0.05   0.06  -0.07
  75   1     0.01   0.00   0.00    -0.00  -0.01   0.00    -0.01   0.00  -0.01
  76   1     0.01  -0.01   0.01    -0.00   0.02  -0.03    -0.01   0.01  -0.02
  77   8    -0.06   0.03  -0.09     0.12   0.09   0.21     0.09  -0.02   0.03
  78   1    -0.01   0.01  -0.01     0.02   0.02   0.03     0.02  -0.00   0.01
  79   1    -0.02   0.00  -0.03     0.02   0.02   0.03     0.02  -0.01   0.00
  80   8     0.00   0.02   0.03    -0.01   0.08  -0.13     0.01  -0.01   0.02
  81   1     0.01   0.01   0.01    -0.02   0.02  -0.02    -0.01  -0.01   0.01
  82   1    -0.00   0.01   0.01     0.01   0.00  -0.02     0.01  -0.00   0.01
  83   8     0.01   0.03  -0.04    -0.08  -0.18  -0.05    -0.00   0.06  -0.02
  84   1    -0.00   0.00  -0.01    -0.01  -0.08  -0.02     0.01   0.01  -0.01
  85   1     0.01   0.01  -0.01    -0.01  -0.03   0.01    -0.02   0.03   0.01
  86   8     0.01   0.04  -0.01     0.15   0.03   0.32    -0.05  -0.01  -0.11
  87   1    -0.01  -0.00  -0.01    -0.02   0.01   0.04     0.03   0.02   0.01
  88   1     0.01   0.01   0.03     0.04   0.00   0.12    -0.01   0.00  -0.08
  89   8     0.13   0.14   0.08     0.09   0.05  -0.00     0.16   0.00  -0.01
  90   1     0.02   0.02   0.02     0.01   0.00   0.00     0.02  -0.00   0.01
  91   1     0.06   0.03   0.01     0.04   0.01  -0.00     0.03   0.00   0.01
                     28                     29                     30
                        a                      a                      a 
 Frequencies --    87.0080                88.3749                91.8358
 Red. masses --    13.9334                14.2564                13.6654
 Frc consts  --     0.0000                 0.0000                 0.0000
 IR Inten    --     0.8072                 2.2393                 1.2250
 Raman Activ --     0.0000                 0.0000                 0.0000
 Depolar     --     0.0000                 0.0000                 0.0000
 Atom AN      X      Y      Z        X      Y      Z        X      Y      Z
   1   1     0.03   0.05   0.03     0.00  -0.01   0.01    -0.05  -0.01  -0.00
   2   6     0.08   0.06   0.12     0.04  -0.04   0.04    -0.12   0.00  -0.02
   3   1     0.02   0.01   0.06     0.02  -0.02   0.01    -0.03   0.00  -0.03
   4   1     0.02   0.01   0.04     0.02  -0.00   0.02    -0.03   0.00   0.01
   5   6     0.05  -0.03   0.01     0.02  -0.04   0.05    -0.07   0.04   0.02
   6   1     0.00  -0.04   0.01     0.02  -0.01   0.01     0.00   0.02   0.00
   7   6     0.06  -0.02  -0.10    -0.02  -0.00   0.09    -0.09   0.05   0.12
   8   1     0.03   0.01  -0.03    -0.02  -0.01   0.03    -0.06   0.02   0.03
   9   1     0.01  -0.01  -0.04    -0.00   0.01   0.03    -0.02   0.02   0.07
  10   6     0.06  -0.00   0.00    -0.01  -0.09   0.01    -0.09   0.02  -0.04
  11   1     0.01  -0.02  -0.02    -0.02  -0.03  -0.01    -0.00   0.02   0.01
  12   1     0.01  -0.01   0.03     0.01  -0.04   0.01    -0.02   0.02  -0.06
  13   1     0.03   0.03  -0.00    -0.01  -0.01  -0.00    -0.05  -0.03  -0.01
  14   7     0.01  -0.05  -0.15    -0.02   0.01   0.11    -0.01   0.02   0.10
  15   1     0.00  -0.01  -0.04    -0.02  -0.01   0.02    -0.00   0.01   0.00
  16   1    -0.01  -0.02  -0.04     0.01   0.00   0.03     0.01  -0.00   0.03
  17   8     0.18   0.11   0.26     0.09  -0.11   0.08     0.21  -0.11   0.10
  18   1     0.08   0.06   0.08     0.03  -0.02   0.02     0.06  -0.02   0.00
  19   1     0.02  -0.00   0.06     0.01  -0.03   0.02     0.02  -0.03   0.03
  20   8    -0.11  -0.18   0.02     0.14  -0.07  -0.21    -0.08   0.02  -0.13
  21   1    -0.01  -0.04   0.01     0.02  -0.01  -0.02    -0.01   0.01  -0.03
  22   1    -0.03  -0.06   0.02     0.04  -0.03  -0.08    -0.01  -0.01  -0.04
  23   8    -0.08  -0.18  -0.03     0.25   0.16  -0.08     0.00   0.03   0.05
  24   1    -0.02  -0.05  -0.00     0.06   0.04  -0.01     0.01   0.01   0.01
  25   1    -0.02  -0.05  -0.01     0.04   0.02  -0.01    -0.00   0.00   0.01
  26   8    -0.16   0.02  -0.10    -0.08   0.03  -0.05    -0.06   0.13   0.13
  27   1    -0.03  -0.00  -0.03    -0.01   0.00  -0.01    -0.00   0.02   0.02
  28   1    -0.04   0.01  -0.02    -0.01  -0.00  -0.02    -0.00   0.01   0.02
[...]
  35   8     0.00   0.00   0.00    -0.00  -0.00  -0.00     0.00  -0.00   0.00
  36   1    -0.00  -0.00  -0.00     0.00   0.00   0.00    -0.00  -0.00  -0.00
  37   1    -0.00  -0.00   0.00     0.00   0.00  -0.00     0.00   0.00  -0.00
  38   8     0.00   0.00   0.00     0.00  -0.00  -0.00    -0.00  -0.00   0.00
  39   1     0.00   0.00   0.00    -0.00  -0.00  -0.00     0.00   0.00   0.00
  40   1    -0.00  -0.00   0.00     0.00   0.00   0.00     0.00   0.00  -0.00
  41   8     0.00   0.00   0.00    -0.00  -0.00  -0.00     0.00  -0.00   0.00
  42   1     0.00  -0.00   0.00    -0.00   0.00  -0.00    -0.00   0.00  -0.00
  43   1    -0.00  -0.00  -0.00     0.00   0.00   0.00    -0.00  -0.00  -0.00
  44   8    -0.00   0.00   0.00     0.00  -0.00  -0.00     0.00  -0.00  -0.01
  45   1     0.00  -0.00  -0.01    -0.00   0.00   0.00    -0.01   0.00   0.03
  46   1    -0.00  -0.00   0.00     0.00   0.00  -0.00     0.00   0.00  -0.00
  47   8    -0.00  -0.00  -0.00     0.00   0.00   0.00     0.00   0.00   0.00
  48   1    -0.00  -0.00  -0.00     0.00   0.00   0.00     0.00   0.00  -0.00
  49   1     0.00   0.00   0.00    -0.00  -0.00  -0.00    -0.00  -0.00  -0.00
  50   8     0.00   0.00   0.00    -0.00  -0.00  -0.00    -0.00  -0.00  -0.00
  51   1    -0.00  -0.00  -0.00     0.00   0.00   0.00     0.00   0.00   0.00
  52   1    -0.00   0.00   0.00     0.00   0.00   0.00    -0.00   0.00   0.00
  53   8     0.00   0.00   0.01    -0.00  -0.00  -0.00    -0.00  -0.00  -0.00
  54   1    -0.00  -0.01  -0.02     0.00   0.00   0.00     0.00   0.00   0.00
  55   1    -0.00  -0.00   0.00     0.00   0.00   0.00     0.00   0.00   0.00
  56   8     0.00  -0.00   0.00     0.00  -0.00   0.00     0.00   0.00  -0.00
  57   1    -0.00   0.00  -0.00    -0.00   0.00   0.00    -0.00   0.00  -0.00
  58   1    -0.00   0.00  -0.00     0.00   0.00  -0.00    -0.00  -0.00   0.00
  59   8     0.00   0.00   0.00    -0.00  -0.00  -0.00     0.00  -0.00  -0.00
  60   1    -0.00  -0.00   0.00     0.00   0.00   0.00    -0.00  -0.00  -0.00
  61   1    -0.00  -0.00  -0.00    -0.00  -0.00  -0.00     0.00   0.00   0.00
  62   8    -0.00  -0.00  -0.00    -0.00  -0.00  -0.00     0.01   0.00   0.00
  63   1     0.01   0.00   0.00     0.00   0.00   0.00    -0.03  -0.00  -0.01
  64   1    -0.00   0.00   0.00    -0.00   0.00   0.00     0.00  -0.00  -0.00
  65   8     0.00   0.00  -0.00    -0.00  -0.00   0.00    -0.00  -0.00   0.01
  66   1    -0.00   0.00  -0.00    -0.00   0.00   0.00    -0.00   0.00   0.00
  67   1    -0.00  -0.00   0.01     0.00   0.00  -0.00     0.01   0.00  -0.02
  68   8     0.00  -0.00   0.00    -0.00   0.00  -0.00     0.00  -0.00  -0.00
  69   1    -0.00   0.00   0.00     0.00  -0.00   0.00    -0.00   0.00   0.00
  70   1    -0.00  -0.00  -0.00     0.00   0.00   0.00    -0.00  -0.00  -0.00
  71   8     0.00   0.00  -0.00     0.08   0.20  -0.07     0.03   0.07  -0.02
  72   1    -0.01  -0.01   0.00    -0.35  -0.80   0.28    -0.12  -0.27   0.09
  73   1     0.00   0.00  -0.00     0.03   0.02  -0.02     0.01   0.01  -0.01
  74   8     0.00   0.00  -0.00    -0.00  -0.00  -0.00     0.00   0.00  -0.00
  75   1     0.00   0.00   0.00     0.00   0.01   0.02     0.00   0.01   0.01
  76   1    -0.00  -0.00  -0.00     0.01   0.00  -0.00    -0.02  -0.01  -0.00
  77   8    -0.00  -0.00   0.00     0.00   0.00  -0.00    -0.00  -0.00   0.00
  78   1     0.00   0.00  -0.00    -0.00  -0.01   0.00     0.01   0.02  -0.01
  79   1    -0.00   0.00  -0.00    -0.00   0.00  -0.00     0.00  -0.00   0.00
  80   8    -0.00   0.00  -0.01     0.03  -0.02   0.06    -0.10   0.07  -0.19
  81   1     0.01  -0.01   0.02    -0.13   0.09  -0.27     0.40  -0.27   0.78
  82   1    -0.00  -0.00  -0.00     0.00   0.00   0.01    -0.00  -0.00  -0.03
  83   8     0.00   0.00   0.00    -0.00   0.00   0.00     0.00   0.00   0.00
  84   1    -0.00  -0.00  -0.00     0.00   0.00   0.00    -0.00  -0.00  -0.00
  85   1     0.00  -0.00   0.00    -0.00  -0.00   0.00     0.00  -0.00   0.00
  86   8    -0.00  -0.01  -0.01    -0.00  -0.00  -0.00    -0.00  -0.00   0.00
  87   1    -0.02  -0.01   0.02     0.00  -0.00  -0.00     0.00   0.00  -0.00
  88   1     0.03   0.06   0.00     0.00   0.00   0.00     0.00   0.00   0.00
  89   8     0.00  -0.00   0.00    -0.00  -0.00  -0.00     0.00  -0.00   0.00
  90   1    -0.00   0.00  -0.00     0.00   0.00   0.00    -0.00   0.00  -0.00
  91   1    -0.00   0.00  -0.00     0.00   0.00  -0.00    -0.00   0.00  -0.00
                    262                    263                    264
                        a                      a                      a 
 Frequencies --  3676.3737              3677.8127              3681.4642
 Red. masses --     1.8351                 1.8398                 1.8422
 Frc consts  --     0.0000                 0.0000                 0.0000
 IR Inten    --     4.5245                15.5587                10.6641
 Raman Activ --     0.0000                 0.0000                 0.0000
 Depolar     --     0.0000                 0.0000                 0.0000
 Atom AN      X      Y      Z        X      Y      Z        X      Y      Z
   1   1     0.00   0.00  -0.00     0.00   0.00  -0.00    -0.00   0.00   0.00
   2   6    -0.00   0.00   0.00    -0.00   0.00   0.00     0.00  -0.00  -0.00
   3   1     0.00  -0.00  -0.00    -0.00  -0.00   0.00     0.00   0.00   0.00
   4   1    -0.00  -0.00  -0.00     0.00   0.00  -0.00    -0.00   0.00   0.00
   5   6    -0.00   0.00  -0.00    -0.00   0.00  -0.00     0.00  -0.00  -0.00
   6   1     0.00  -0.00  -0.00    -0.00  -0.00  -0.00     0.00   0.00   0.00
   7   6    -0.00   0.00   0.00     0.00   0.00   0.00     0.00  -0.00  -0.00
   8   1    -0.00  -0.00  -0.00     0.00   0.00  -0.00    -0.00   0.00   0.00
   9   1     0.00  -0.00  -0.00    -0.00   0.00  -0.00    -0.00   0.00  -0.00
  10   6    -0.00   0.00   0.00    -0.00   0.00   0.00     0.00  -0.00   0.00
  11   1     0.00  -0.00   0.00     0.00  -0.00   0.00     0.00   0.00   0.00
  12   1    -0.00  -0.00  -0.00     0.00  -0.00  -0.00    -0.00   0.00  -0.00
  13   1     0.00  -0.00  -0.00     0.00  -0.00  -0.00    -0.00   0.00   0.00
  14   7     0.00   0.00   0.00    -0.00   0.00   0.00     0.00  -0.00  -0.00
  15   1     0.00  -0.00   0.00     0.00  -0.00  -0.00    -0.00   0.00   0.00
  16   1    -0.00  -0.00  -0.00    -0.00  -0.00  -0.00     0.00  -0.00   0.00
  17   8     0.00  -0.00  -0.00     0.00  -0.00  -0.00    -0.16   0.17   0.01
  18   1    -0.00   0.01   0.00    -0.01   0.02   0.00     0.65  -0.72  -0.04
  19   1     0.00  -0.00   0.00     0.00  -0.00   0.00    -0.02   0.02  -0.02
  20   8    -0.00  -0.00  -0.00    -0.00  -0.00  -0.00    -0.00  -0.00  -0.00
  21   1    -0.00   0.00  -0.00    -0.00   0.00  -0.00    -0.00   0.00  -0.00
  22   1     0.01   0.00   0.00     0.01   0.00   0.00     0.01   0.00   0.00
  23   8     0.00   0.00  -0.00    -0.00  -0.00   0.00     0.00  -0.00   0.00
  24   1     0.00  -0.00  -0.00    -0.00   0.00   0.00    -0.00   0.00   0.00
  25   1     0.00  -0.00   0.00     0.00  -0.00  -0.00    -0.00   0.00   0.00
  26   8     0.00  -0.00   0.00    -0.00  -0.00   0.00     0.00  -0.00   0.00
  27   1     0.00   0.00  -0.00     0.00   0.00  -0.00    -0.00   0.00  -0.00
  28   1    -0.00   0.00  -0.00    -0.00  -0.00  -0.00    -0.00  -0.00  -0.00
  29   8     0.00   0.00   0.00    -0.00   0.00   0.00     0.00  -0.00  -0.00
  30   1    -0.00  -0.00  -0.00    -0.00   0.00   0.00    -0.00  -0.00  -0.00
  31   1     0.00  -0.00  -0.00     0.00  -0.00  -0.00    -0.00   0.00   0.00
  32   8    -0.01   0.02   0.01     0.05  -0.19  -0.13     0.00  -0.00  -0.00
  33   1    -0.00   0.00   0.00     0.02  -0.01  -0.02     0.00  -0.00  -0.00
  34   1     0.02  -0.09  -0.06    -0.20   0.78   0.53    -0.00   0.02   0.01
  35   8    -0.00  -0.00  -0.00     0.00   0.00   0.00     0.00   0.00   0.00
  36   1     0.00   0.00   0.00    -0.01  -0.01  -0.01    -0.00  -0.00  -0.00
  37   1     0.00   0.00  -0.00    -0.00  -0.00  -0.00    -0.00  -0.00   0.00
  38   8    -0.00   0.00  -0.00     0.00   0.00   0.00     0.00   0.00  -0.00
  39   1     0.00  -0.00   0.00    -0.00   0.00  -0.00     0.00   0.00   0.00
  40   1    -0.00  -0.00   0.00    -0.00  -0.00   0.00    -0.00  -0.00   0.00
  41   8     0.00  -0.00   0.00     0.00  -0.00   0.00     0.00   0.00   0.00
  42   1    -0.01   0.01  -0.02    -0.00   0.00  -0.00    -0.00   0.00  -0.00
  43   1     0.00   0.00   0.00    -0.00  -0.00  -0.00    -0.00  -0.00  -0.00
  44   8     0.09  -0.04  -0.21     0.01  -0.00  -0.02     0.00  -0.00  -0.00
  45   1    -0.39   0.15   0.87    -0.04   0.02   0.10    -0.00   0.00   0.01
  46   1     0.03   0.00  -0.02     0.00  -0.00  -0.00     0.00   0.00  -0.00
  47   8    -0.00  -0.00  -0.00    -0.00  -0.00  -0.00    -0.00  -0.01  -0.00
  48   1    -0.00  -0.00  -0.00    -0.00  -0.00  -0.00    -0.00  -0.00  -0.00
  49   1     0.00   0.00   0.00     0.00   0.00   0.00     0.01   0.03   0.02
  50   8     0.00  -0.00  -0.00     0.00   0.00   0.00     0.00  -0.00   0.00
  51   1    -0.00  -0.00  -0.00    -0.00  -0.00  -0.00    -0.00   0.00  -0.00
  52   1    -0.00   0.00   0.00     0.00  -0.00  -0.00     0.00  -0.00  -0.00
  53   8     0.00   0.00   0.00     0.00   0.00   0.00    -0.00  -0.01  -0.00
  54   1    -0.00  -0.00  -0.00    -0.00  -0.00  -0.00    -0.00  -0.00   0.00
  55   1    -0.00  -0.00  -0.00    -0.00  -0.00  -0.00     0.00   0.03   0.00
  56   8    -0.00  -0.00   0.00     0.00   0.00  -0.00     0.00   0.00  -0.00
  57   1    -0.00   0.00  -0.00    -0.00   0.00  -0.00    -0.00   0.00   0.00
  58   1     0.00   0.00  -0.00    -0.00  -0.02   0.01    -0.00  -0.00   0.00
  59   8     0.00   0.00   0.00     0.00   0.00   0.00     0.00  -0.00  -0.00
  60   1    -0.00  -0.00   0.00    -0.00  -0.00   0.00     0.00  -0.00   0.00
  61   1    -0.00  -0.00  -0.00    -0.00  -0.00  -0.00     0.00   0.00   0.00
  62   8    -0.00  -0.00  -0.00    -0.00  -0.00  -0.00    -0.01  -0.00  -0.00
  63   1     0.01   0.00   0.00     0.00   0.00   0.00     0.03   0.01   0.01
  64   1    -0.00  -0.00  -0.00    -0.00  -0.00  -0.00    -0.00   0.00   0.00
  65   8     0.00   0.00  -0.00     0.00   0.00  -0.01    -0.00  -0.00   0.01
  66   1     0.00  -0.00  -0.00     0.00  -0.00  -0.00    -0.00   0.00   0.00
  67   1    -0.00  -0.00   0.01    -0.01  -0.00   0.04     0.01   0.00  -0.03
  68   8     0.00  -0.00  -0.00    -0.00  -0.00  -0.00     0.00   0.00   0.00
  69   1    -0.00   0.00   0.00    -0.00   0.00   0.00     0.00  -0.00  -0.00
  70   1     0.00   0.00   0.00     0.00   0.00   0.00    -0.02  -0.00  -0.00
  71   8    -0.00  -0.00   0.00    -0.00  -0.01   0.00    -0.00  -0.00   0.00
  72   1     0.00   0.01  -0.00     0.01   0.02  -0.01     0.00   0.00  -0.00
  73   1    -0.00  -0.00   0.00    -0.00  -0.00  -0.00    -0.00  -0.00   0.00
  74   8    -0.00  -0.00   0.00    -0.00   0.00   0.00     0.00  -0.00  -0.00
  75   1    -0.00  -0.00  -0.00    -0.00  -0.00  -0.00    -0.00  -0.00  -0.00
  76   1     0.00   0.00   0.00     0.00   0.00  -0.00     0.00   0.00   0.00
  77   8     0.00   0.00  -0.00     0.00   0.00  -0.00     0.00   0.00  -0.00
  78   1    -0.00  -0.00   0.00    -0.00  -0.00   0.00     0.00   0.00  -0.00
  79   1     0.00   0.00   0.00     0.00  -0.00   0.00     0.00  -0.00   0.00
  80   8     0.00  -0.00   0.01     0.00  -0.00   0.00     0.00  -0.00   0.00
  81   1    -0.01   0.01  -0.02    -0.01   0.01  -0.02    -0.00   0.00  -0.00
  82   1     0.00  -0.00   0.00     0.00  -0.00   0.00    -0.00   0.00   0.00
  83   8     0.00   0.00   0.00    -0.00  -0.00  -0.00     0.00  -0.00   0.00
  84   1    -0.00  -0.00  -0.00     0.00   0.00   0.00    -0.00   0.00  -0.00
  85   1     0.00  -0.00   0.00    -0.00   0.00  -0.00    -0.00   0.00  -0.00
  86   8    -0.00  -0.00   0.00     0.00   0.00   0.00    -0.00  -0.00  -0.00
  87   1    -0.00  -0.00  -0.00    -0.00   0.00  -0.00    -0.00  -0.00   0.00
  88   1     0.00   0.00  -0.00    -0.00  -0.00  -0.00     0.00   0.00   0.00
  89   8     0.00  -0.00   0.00     0.00  -0.00   0.00    -0.00  -0.00  -0.00
  90   1    -0.00   0.00  -0.00    -0.00   0.00  -0.00     0.00  -0.00   0.00
  91   1    -0.00  -0.00   0.00     0.00  -0.00  -0.00    -0.00   0.00  -0.00
                    265                    266                    267
                        a                      a                      a 
 Frequencies --  3681.7028              3683.0930              3689.4444
 Red. masses --     1.8383                 1.8407                 1.8431
 Frc consts  --     0.0000                 0.0000                 0.0000
 IR Inten    --    10.6052                 9.7410                 8.1287
 Raman Activ --     0.0000                 0.0000                 0.0000
 Depolar     --     0.0000                 0.0000                 0.0000
 Atom AN      X      Y      Z        X      Y      Z        X      Y      Z
   1   1     0.00   0.00   0.00    -0.00  -0.00  -0.00     0.00  -0.00  -0.00
   2   6    -0.00   0.00   0.00    -0.00   0.00   0.00    -0.00   0.00   0.00
   3   1    -0.00  -0.00   0.00    -0.00   0.00  -0.00    -0.00  -0.00   0.00
   4   1     0.00   0.00  -0.00    -0.00   0.00  -0.00     0.00  -0.00   0.00
   5   6    -0.00  -0.00  -0.00     0.00   0.00  -0.00    -0.00  -0.00  -0.00
   6   1     0.00   0.00   0.00     0.00  -0.00  -0.00    -0.00   0.00   0.00
   7   6     0.00   0.00  -0.00     0.00  -0.00   0.00    -0.00   0.00   0.00
   8   1    -0.00  -0.00   0.00     0.00   0.00   0.00     0.00  -0.00  -0.00
   9   1    -0.00   0.00  -0.00    -0.00   0.00  -0.00     0.00   0.00   0.00
  10   6     0.00  -0.00   0.00     0.00  -0.00   0.00    -0.00  -0.00  -0.00
  11   1     0.00   0.00   0.00    -0.00   0.00  -0.00    -0.00  -0.00   0.00
  12   1    -0.00  -0.00  -0.00    -0.00   0.00  -0.00     0.00   0.00   0.00
  13   1     0.00   0.00   0.00    -0.00   0.00   0.00     0.00  -0.00  -0.00
  14   7    -0.00  -0.00  -0.00    -0.00   0.00   0.00    -0.00  -0.00  -0.00
  15   1     0.00  -0.00   0.00     0.00   0.00   0.00     0.00  -0.00  -0.00
  16   1     0.00   0.00   0.00     0.00  -0.00  -0.00     0.00   0.00   0.00
  17   8     0.01  -0.01  -0.00     0.00  -0.01  -0.00     0.01  -0.01  -0.00
  18   1    -0.02   0.02   0.00    -0.02   0.02   0.00    -0.03   0.03   0.00
  19   1     0.00  -0.00   0.00     0.00  -0.00   0.00     0.00  -0.00   0.00
  20   8    -0.00  -0.00  -0.00     0.00   0.00   0.00     0.00   0.00   0.00
  21   1    -0.00   0.00  -0.00     0.00  -0.00   0.00     0.00  -0.00   0.00
  22   1     0.01   0.00   0.00    -0.01  -0.00  -0.00    -0.00  -0.00  -0.00
  23   8    -0.00   0.00  -0.00     0.00  -0.00   0.00     0.00   0.00   0.00
  24   1     0.00  -0.00  -0.00    -0.00   0.00   0.00     0.00  -0.00  -0.00
  25   1     0.00  -0.00   0.00    -0.00   0.00  -0.00     0.00   0.00  -0.00
  26   8     0.00   0.00  -0.00    -0.00  -0.00   0.00    -0.00  -0.00  -0.00
  27   1    -0.01  -0.02   0.01     0.00   0.00  -0.00    -0.00  -0.00   0.00
  28   1    -0.00   0.00  -0.00     0.00  -0.00  -0.00     0.00   0.00   0.00
  29   8     0.00   0.00  -0.00    -0.00   0.00  -0.00    -0.00  -0.00   0.00
  30   1     0.00   0.00  -0.00     0.00   0.00   0.00     0.00   0.00   0.00
  31   1    -0.00  -0.00   0.00    -0.00   0.00   0.00     0.00  -0.00  -0.00
  32   8     0.00  -0.01  -0.00    -0.00   0.00   0.00    -0.00   0.00   0.00
  33   1     0.00  -0.00  -0.00    -0.00   0.00   0.00    -0.00   0.00   0.00
  34   1    -0.01   0.03   0.02     0.00  -0.00  -0.00     0.00  -0.00  -0.00
  35   8     0.00   0.00   0.00     0.00   0.00  -0.00    -0.00  -0.00  -0.00
  36   1    -0.00  -0.00  -0.00    -0.00  -0.00  -0.00     0.00   0.00   0.00
  37   1    -0.00  -0.00   0.00    -0.00  -0.00   0.00     0.00   0.00  -0.00
  38   8     0.00   0.00  -0.00     0.00   0.00  -0.00     0.00   0.00   0.00
  39   1     0.00   0.00   0.00     0.00   0.00   0.00    -0.00   0.00  -0.00
  40   1    -0.00  -0.00   0.00    -0.02  -0.02   0.00    -0.00  -0.00   0.00
  41   8     0.00   0.00   0.00     0.00   0.00   0.00     0.00   0.00   0.00
  42   1    -0.00   0.00  -0.00     0.00   0.00   0.00    -0.00   0.00   0.00
  43   1    -0.00  -0.00  -0.00    -0.01  -0.01  -0.02    -0.00  -0.00  -0.00
  44   8     0.00  -0.00  -0.00    -0.00   0.00   0.00    -0.00   0.00   0.00
  45   1    -0.00   0.00   0.01     0.01  -0.00  -0.01     0.00  -0.00  -0.00
  46   1     0.00  -0.00  -0.00    -0.00  -0.00   0.00    -0.00  -0.00   0.00
  47   8     0.00   0.00  -0.00     0.00   0.00   0.00    -0.07  -0.19  -0.11
  48   1    -0.00  -0.00   0.00     0.00   0.00   0.00    -0.01  -0.02  -0.03
  49   1     0.00   0.00   0.00    -0.00  -0.01  -0.00     0.29   0.79   0.48
  50   8     0.00  -0.00  -0.00    -0.00  -0.00  -0.00     0.00   0.00   0.00
  51   1    -0.00  -0.00  -0.00     0.00   0.00   0.00    -0.02  -0.01  -0.01
  52   1    -0.00   0.00   0.00    -0.00   0.00  -0.00     0.00   0.00   0.00
  53   8     0.00   0.00   0.00     0.00   0.00  -0.00     0.00   0.00   0.00
  54   1    -0.00   0.00  -0.00     0.00   0.00   0.00     0.00  -0.00  -0.00
  55   1    -0.00  -0.00  -0.00    -0.00  -0.00  -0.00    -0.00  -0.00  -0.00
  56   8     0.00   0.00  -0.00     0.00  -0.00  -0.00    -0.00  -0.00   0.00
  57   1    -0.00   0.00  -0.00    -0.00   0.00   0.00     0.00  -0.00  -0.00
  58   1    -0.00  -0.00   0.00    -0.00   0.00   0.00     0.00   0.00  -0.00
  59   8    -0.00   0.00   0.00     0.00  -0.00  -0.00    -0.00   0.00   0.01
  60   1     0.00   0.00   0.00    -0.00  -0.00  -0.00     0.00   0.00   0.00
  61   1    -0.00  -0.00  -0.00     0.00   0.00   0.00    -0.00  -0.02  -0.02
  62   8    -0.01  -0.00  -0.00    -0.23  -0.04  -0.05    -0.00  -0.00  -0.00
  63   1     0.05   0.01   0.01     0.94   0.16   0.19     0.01   0.00   0.00
  64   1    -0.00   0.00   0.00    -0.03   0.01   0.01    -0.00  -0.00  -0.00
  65   8    -0.06  -0.03   0.22     0.00   0.00  -0.01     0.00   0.00  -0.00
  66   1    -0.02   0.01   0.03     0.00  -0.00  -0.00     0.00  -0.00  -0.00
  67   1     0.26   0.10  -0.93    -0.01  -0.01   0.05    -0.00  -0.00   0.00
  68   8    -0.00  -0.00  -0.00    -0.00  -0.00  -0.00     0.00  -0.00   0.00
  69   1    -0.00   0.00   0.00    -0.00   0.00   0.00    -0.00   0.00   0.00
  70   1     0.00   0.00   0.00     0.00   0.00   0.00     0.00  -0.00   0.00
  71   8    -0.00  -0.00   0.00     0.00   0.00  -0.00     0.00   0.00  -0.00
  72   1     0.00   0.01  -0.00    -0.00  -0.01   0.00    -0.00  -0.00   0.00
  73   1    -0.00  -0.00   0.00     0.00   0.00  -0.00     0.00   0.00  -0.00
  74   8     0.00  -0.00  -0.00     0.00   0.00  -0.00     0.00   0.00   0.00
  75   1    -0.00  -0.00  -0.00     0.00   0.00   0.00    -0.00  -0.00  -0.00
  76   1     0.00   0.00   0.00    -0.00  -0.00  -0.00    -0.00  -0.00  -0.00
  77   8     0.00   0.00  -0.00     0.00  -0.00  -0.00     0.00  -0.00   0.00
  78   1    -0.00  -0.00   0.00     0.00   0.00  -0.00    -0.00  -0.00   0.00
  79   1    -0.00   0.00   0.00    -0.00  -0.00   0.00    -0.00   0.00  -0.00
  80   8     0.00  -0.00   0.00    -0.00   0.00  -0.01    -0.00   0.00  -0.00
  81   1    -0.01   0.01  -0.02     0.01  -0.01   0.03     0.00  -0.00   0.00
  82   1    -0.00   0.00   0.00    -0.00  -0.00  -0.00     0.00  -0.00  -0.00
  83   8     0.00   0.00   0.00     0.00  -0.00   0.00     0.00  -0.00   0.00
  84   1    -0.00  -0.00  -0.00    -0.00  -0.00  -0.00    -0.00  -0.00  -0.00
  85   1    -0.00  -0.00   0.00    -0.00   0.00  -0.00     0.00   0.00  -0.00
  86   8     0.00   0.00  -0.00     0.00   0.00   0.00     0.00   0.00   0.00
  87   1    -0.00   0.00   0.00     0.00   0.00  -0.00     0.00   0.00  -0.00
  88   1    -0.00  -0.00  -0.00    -0.00  -0.00  -0.00    -0.00  -0.00  -0.00
  89   8    -0.00   0.00  -0.01     0.00  -0.00   0.00     0.00  -0.00   0.00
  90   1     0.01  -0.01   0.02    -0.00   0.00  -0.00    -0.00   0.00  -0.00
  91   1    -0.00   0.00  -0.00     0.00  -0.00   0.00     0.00   0.00  -0.00
