91
 energy: -144.262025799207 gnorm: 0.000299234606 xtb: 6.5.1 (579679a)
H            0.71345614964329        2.72861988675266       -2.98702698715128
C            0.65673059394417        3.01990198549732       -1.94016075871109
H            1.40847644424828        3.78473206510563       -1.76189975467098
H           -0.32329007135111        3.45328325159672       -1.74912370356829
C            0.90752762641968        1.80782264206177       -1.04608786689798
H            0.88237549287279        2.12843661787414       -0.00140739846338
C           -0.20660318497556        0.77120447143791       -1.24890150051809
H           -0.12072845162569        0.33389534138943       -2.24395918744539
H           -1.16664655022026        1.28887463789508       -1.17878302302066
C            2.28065929588486        1.21357658071202       -1.33396962480229
H            2.43508758019885        0.31739316432287       -0.74187036103685
H            3.06185854942646        1.92564597359766       -1.08048177688984
H            2.36994144253029        0.96403144900800       -2.38684863733075
N           -0.23727652911268       -0.32752713181940       -0.28601478211198
H            0.51528278785446       -0.98404991806742       -0.46944793191141
H           -0.12797643876237        0.03062872956701        0.65723086697156
O           -2.63587111516855        4.40197376634132        1.22515648364622
H           -3.27853226956751        5.10925021072560        1.27959405314579
H           -2.48245020569204        4.09045933650711        2.16450910370152
O           -3.53694587514192        0.76983425963815       -1.96642399641264
H           -3.20260949929759       -0.09367150493248       -1.57788890548076
H           -4.43990690996793        0.60142087392415       -2.23875018024411
O           -2.16677995801124       -3.86970279806474       -1.43825351636750
H           -2.49767466729703       -2.97334434114303       -1.22296495254666
H           -1.69983500882424       -4.15994732598708       -0.63588498084406
O           -1.30387889530378        1.17415644923049        2.37206052545780
H           -1.59754050648689        0.36104643460331        2.82245026886614
H           -1.94404236640290        1.32487375239679        1.64674168000162
O           -2.66749878289811       -1.33802092658772       -0.72739401519124
H           -1.73961080153150       -1.03298382764867       -0.51125206992275
H           -3.20153305248487       -1.24370979028671        0.09434545064890
O           -0.32677558799721       -3.22751514783864       -3.16168451504150
H           -1.07906807925151       -3.47194549810522       -2.54859248322680
H           -0.13950006272349       -4.00964704107026       -3.68121312999869
O            1.54893825706589       -2.60436653576872       -1.33477207130932
H            0.86421335142324       -2.73739579025847       -2.02111521989006
H            2.36492238858669       -2.31330018299985       -1.81540207914369
O            3.12374510840908       -2.77290781643504        0.90869920343739
H            2.47954281555562       -2.70232579620622        0.18493682614040
H            3.80613467958049       -2.11414417656451        0.67764811459303
O            3.78011757603942       -1.69054124804314       -2.39089046853212
H            3.44637030765655       -1.07906134797801       -3.07914958355915
H            4.13419292833282       -1.14618505079490       -1.67694380365690
O            2.63540300988757       -0.15816143734088       -4.32561169940806
H            2.99949364534549       -0.31826328244420       -5.19669604690659
H            1.68195136961497       -0.40326297559184       -4.39001360794736
O            0.38589281747251        4.76275913735300        3.74892483110919
H            0.30001454985995        5.00127799681732        2.79019664638479
H            0.67298563727287        5.55264129234298        4.20579604407705
O           -2.05549400505429        3.49138735774457        3.60921153971723
H           -1.22565145048084        3.94004353051041        3.84578546826993
H           -1.79784487805255        2.59331814572281        3.32080636795761
O           -3.24730937315640        1.79882339492504        0.58209378547597
H           -3.32808836745411        1.58000767018922       -0.36356722535712
H           -3.13103369849262        2.76123953785357        0.65241356758132
O            0.08392970780099       -0.87836426166587       -4.59752683738694
H           -0.65927649354233       -0.25679194207918       -4.51189074843744
H           -0.15726207600440       -1.67305404660953       -4.09619295838196
O            1.08283001083647        2.48460552588522        2.18865606980769
H            0.26828147279512        1.95812354720239        2.28466315940143
H            1.10163114625465        3.08445683530380        2.94384414805786
O            4.59419077285209       -0.58054734985752        0.24164493384443
H            5.51392967109785       -0.41533311850708        0.44858807979298
H            4.06806816913001       -0.02388282938087        0.86714287881564
O           -2.29246920854178       -1.08677894475738        3.49374332924191
H           -1.66928931155029       -1.83412411789261        3.27529438197608
H           -2.53594690752075       -1.19941575406893        4.41244987193490
O            0.06852080618321        4.98787806110898        1.12523565232689
H            0.51804129387937        4.14739889432809        0.96710671519658
H           -0.88040330584820        4.81630109068677        0.98877495135971
O           -0.76356431759376       -4.67088715169773        0.82744539310617
H           -1.11288990761587       -5.51619473959573        1.11194901371248
H            0.12805622763311       -4.85404868678896        0.43492368792603
O           -0.56607808284375       -2.96694423409516        2.98836197455354
H           -0.67473387530021       -3.49749966101979        2.17932477331285
H            0.27688746388251       -2.48525833198592        2.89883963594861
O            3.13880678024081        0.64724591902859        2.10358788873935
H            2.61207496675912       -0.09029356598630        2.45546317422348
H            2.51268410526165        1.38665473390556        2.01460689552651
O            1.86349808387724       -1.69120908222236        2.91620918565552
H            2.28834592537311       -1.97964142841441        3.72488631326320
H            2.33738215118433       -2.15535398215036        2.16977544555524
O            1.61476464834085       -5.07183158287686       -0.26007787738536
H            2.34452877326115       -4.95666543385803        0.35456182615456
H            1.60740005670330       -4.25048012816527       -0.80041247729585
O           -1.89395974280759        1.01824253331623       -4.16473725719759
H           -2.48000835341022        0.91073794555521       -3.39216048576185
H           -1.46513203636818        1.86876632434456       -4.05888365842029
O           -4.09067792296442       -0.72749026167315        1.44438267760480
H           -3.54224556604678       -0.92165665892804        2.22259104669639
H           -4.02786265061741        0.22771823383468        1.30400394350062
