      -----------------------------------------------------------      
     |                   =====================                   |     
     |                           x T B                           |     
     |                   =====================                   |     
     |                         S. Grimme                         |     
     |          Mulliken Center for Theoretical Chemistry        |     
     |                    University of Bonn                     |     
      -----------------------------------------------------------      

   * xtb version 6.5.1 (579679a) compiled by 'ehlert@majestix' on 2022-07-11

   xtb is free software: you can redistribute it and/or modify it under
   the terms of the GNU Lesser General Public License as published by
   the Free Software Foundation, either version 3 of the License, or
   (at your option) any later version.
   
   xtb is distributed in the hope that it will be useful,
   but WITHOUT ANY WARRANTY; without even the implied warranty of
   MERCHANTABILITY or FITNESS FOR A PARTICULAR PURPOSE.  See the
   GNU Lesser General Public License for more details.
   
   Cite this work as:
   * C. Bannwarth, E. Caldeweyher, S. Ehlert, A. Hansen, P. Pracht,
     J. Seibert, S. Spicher, S. Grimme, WIREs Comput. Mol. Sci., 2020, 11,
     e01493. DOI: 10.1002/wcms.1493
   
   for GFN2-xTB:
   * C. Bannwarth, S. Ehlert and S. Grimme., J. Chem. Theory Comput., 2019,
     15, 1652-1671. DOI: 10.1021/acs.jctc.8b01176
   for GFN1-xTB:
   * S. Grimme, C. Bannwarth, P. Shushkov, J. Chem. Theory Comput., 2017,
     13, 1989-2009. DOI: 10.1021/acs.jctc.7b00118
   for GFN0-xTB:
   * P. Pracht, E. Caldeweyher, S. Ehlert, S. Grimme, ChemRxiv, 2019, preprint.
     DOI: 10.26434/chemrxiv.8326202.v1
   for GFN-FF:
   * S. Spicher and S. Grimme, Angew. Chem. Int. Ed., 2020, 59, 15665-15673.
     DOI: 10.1002/anie.202004239
   
   for ALPB and GBSA implicit solvation:
   * S. Ehlert, M. Stahn, S. Spicher, S. Grimme, J. Chem. Theory Comput.,
     2021, 17, 4250-4261. DOI: 10.1021/acs.jctc.1c00471
   
   for DFT-D4:
   * E. Caldeweyher, C. Bannwarth and S. Grimme, J. Chem. Phys., 2017,
     147, 034112. DOI: 10.1063/1.4993215
   * E. Caldeweyher, S. Ehlert, A. Hansen, H. Neugebauer, S. Spicher,
     C. Bannwarth and S. Grimme, J. Chem. Phys., 2019, 150, 154122.
     DOI: 10.1063/1.5090222
   * E. Caldeweyher, J.-M. Mewes, S. Ehlert and S. Grimme, Phys. Chem. Chem. Phys.
     2020, 22, 8499-8512. DOI: 10.1039/D0CP00502A
   
   for sTDA-xTB:
   * S. Grimme and C. Bannwarth, J. Chem. Phys., 2016, 145, 054103.
     DOI: 10.1063/1.4959605
   
   in the mass-spec context:
   * V. Asgeirsson, C. Bauer and S. Grimme, Chem. Sci., 2017, 8, 4879.
     DOI: 10.1039/c7sc00601b
   * J. Koopman and S. Grimme, ACS Omega 2019, 4, 12, 15120-15133.
     DOI: 10.1021/acsomega.9b02011
   
   for metadynamics refer to:
   * S. Grimme, J. Chem. Theory Comput., 2019, 155, 2847-2862
     DOI: 10.1021/acs.jctc.9b00143
   
   for SPH calculations refer to:
   * S. Spicher and S. Grimme, J. Chem. Theory Comput., 2021, 17, 1701-1714
     DOI: 10.1021/acs.jctc.0c01306
   
   with help from (in alphabetical order)
   P. Atkinson, C. Bannwarth, F. Bohle, G. Brandenburg, E. Caldeweyher
   M. Checinski, S. Dohm, S. Ehlert, S. Ehrlich, I. Gerasimov, C. Hölzer
   A. Katbashev, J. Koopman, C. Lavigne, S. Lehtola, F. März, M. Müller,
   F. Musil, H. Neugebauer, J. Pisarek, C. Plett, P. Pracht, F. Pultar,
   J. Seibert, P. Shushkov, S. Spicher, M. Stahn, M. Steiner, T. Strunk,
   J. Stückrath, T. Rose, and J. Unsleber
   
 * started run on 2022/11/24 at 09:07:52.366     

           -------------------------------------------------
          |                Calculation Setup                |
           -------------------------------------------------

          program call               : xtb solvent_cluster.coord --gfn2 --input xcontrol --opt 1
          hostname                   : cn0341
          coordinate file            : solvent_cluster.coord
          omp threads                :                     2

   ID    Z sym.   atoms
    1    8 o      1, 4, 7, 10, 13, 16, 19, 22, 25, 28, 31, 34, 37, 40, 43,
                  46, 49, 52, 55, 58, 61, 64, 67, 70, 73, 76, 79, 82, 85, 88,
                  91, 94, 97, 100, 103, 106, 109, 112, 115, 118, 121, 124,
                  127, 130, 133, 136, 139, 142, 145, 148, 151, 154, 157, 160,
                  163, 166, 169, 172, 175, 178, 181, 184, 187, 190, 193, 196,
                  199, 202, 205, 208, 211, 214, 217, 220, 223, 226, 229, 232,
                  235, 238, 241, 244, 247, 250, 253, 256, 259, 262, 265, 268,
                  271, 274, 277, 280, 283, 286, 289, 292, 295, 298, 301, 304,
                  307, 310, 313, 316, 319, 322, 325, 328, 331, 334, 337, 340,
                  343, 346, 349, 352, 355, 358, 361, 364, 367, 370, 373, 376,
                  379, 382, 385, 388, 391, 394, 397, 400, 403, 406, 409, 412,
                  415, 418, 421, 424, 427, 430, 433, 436, 439, 442, 445, 448,
                  451, 454, 457, 460, 463, 466, 469, 472, 475, 478, 481, 484,
                  487, 490, 493, 496, 499, 502, 505, 508, 511, 514, 517, 520,
                  523, 526, 529, 532, 535, 538, 541, 544, 547, 550, 553, 556,
                  559, 562, 565, 568, 571, 574, 577, 580, 583, 586, 589, 592,
                  595, 598, 601, 604, 607, 610, 613, 616, 619, 622, 625, 628,
                  631, 634, 637, 640, 643, 646, 649, 652, 655, 658, 661, 664,
                  667, 670, 673, 676, 679, 682, 685, 688, 691, 694, 697, 700,
                  703, 706, 709, 712, 715, 718, 721, 724, 727, 730, 733, 736,
                  739, 742, 745, 748, 751, 754
    2    1 h      2, 3, 5, 6, 8, 9, 11, 12, 14, 15, 17, 18, 20, 21, 23, 24,
                  26, 27, 29, 30, 32, 33, 35, 36, 38, 39, 41, 42, 44, 45, 47,
                  48, 50, 51, 53, 54, 56, 57, 59, 60, 62, 63, 65, 66, 68, 69,
                  71, 72, 74, 75, 77, 78, 80, 81, 83, 84, 86, 87, 89, 90, 92,
                  93, 95, 96, 98, 99, 101, 102, 104, 105, 107, 108, 110, 111,
                  113, 114, 116, 117, 119, 120, 122, 123, 125, 126, 128, 129,
                  131, 132, 134, 135, 137, 138, 140, 141, 143, 144, 146, 147,
                  149, 150, 152, 153, 155, 156, 158, 159, 161, 162, 164, 165,
                  167, 168, 170, 171, 173, 174, 176, 177, 179, 180, 182, 183,
                  185, 186, 188, 189, 191, 192, 194, 195, 197, 198, 200, 201,
                  203, 204, 206, 207, 209, 210, 212, 213, 215, 216, 218, 219,
                  221, 222, 224, 225, 227, 228, 230, 231, 233, 234, 236, 237,
                  239, 240, 242, 243, 245, 246, 248, 249, 251, 252, 254, 255,
                  257, 258, 260, 261, 263, 264, 266, 267, 269, 270, 272, 273,
                  275, 276, 278, 279, 281, 282, 284, 285, 287, 288, 290, 291,
                  293, 294, 296, 297, 299, 300, 302, 303, 305, 306, 308, 309,
                  311, 312, 314, 315, 317, 318, 320, 321, 323, 324, 326, 327,
                  329, 330, 332, 333, 335, 336, 338, 339, 341, 342, 344, 345,
                  347, 348, 350, 351, 353, 354, 356, 357, 359, 360, 362, 363,
                  365, 366, 368, 369, 371, 372, 374, 375, 377, 378, 380, 381,
                  383, 384, 386, 387, 389, 390, 392, 393, 395, 396, 398, 399,
                  401, 402, 404, 405, 407, 408, 410, 411, 413, 414, 416, 417,
                  419, 420, 422, 423, 425, 426, 428, 429, 431, 432, 434, 435,
                  437, 438, 440, 441, 443, 444, 446, 447, 449, 450, 452, 453,
                  455, 456, 458, 459, 461, 462, 464, 465, 467, 468, 470, 471,
                  473, 474, 476, 477, 479, 480, 482, 483, 485, 486, 488, 489,
                  491, 492, 494, 495, 497, 498, 500, 501, 503, 504, 506, 507,
                  509, 510, 512, 513, 515, 516, 518, 519, 521, 522, 524, 525,
                  527, 528, 530, 531, 533, 534, 536, 537, 539, 540, 542, 543,
                  545, 546, 548, 549, 551, 552, 554, 555, 557, 558, 560, 561,
                  563, 564, 566, 567, 569, 570, 572, 573, 575, 576, 578, 579,
                  581, 582, 584, 585, 587, 588, 590, 591, 593, 594, 596, 597,
                  599, 600, 602, 603, 605, 606, 608, 609, 611, 612, 614, 615,
                  617, 618, 620, 621, 623, 624, 626, 627, 629, 630, 632, 633,
                  635, 636, 638, 639, 641, 642, 644, 645, 647, 648, 650, 651,
                  653, 654, 656, 657, 659, 660, 662, 663, 665, 666, 668, 669,
                  671, 672, 674, 675, 677, 678, 680, 681, 683, 684, 686, 687,
                  689, 690, 692, 693, 695, 696, 698, 699, 701, 702, 704, 705,
                  707, 708, 710, 711, 713, 714, 716, 717, 719, 720, 722, 723,
                  725, 726, 728, 729, 731, 732, 734, 735, 737, 738, 740, 741,
                  743, 744, 746, 747, 749, 750, 752, 753, 755, 756

molecular fragmentation (1/2 indicates fragments):
111222222222222222222222222222222222222222222222222222222222222222222222
222222222222222222222222222222222222222222222222222222222222222222222222
222222222222222222222222222222222222222222222222222222222222222222222222
222222222222222222222222222222222222222222222222222222222222222222222222
222222222222222222222222222222222222222222222222222222222222222222222222
222222222222222222222222222222222222222222222222222222222222222222222222
222222222222222222222222222222222222222222222222222222222222222222222222
222222222222222222222222222222222222222222222222222222222222222222222222
222222222222222222222222222222222222222222222222222222222222222222222222
222222222222222222222222222222222222222222222222222222222222222222222222
222222222222222222222222222222222222
# atoms in fragment 1/2:     3   753
 fragment masses (1/2) :       18.02     4521.84
CMA distance (Bohr)    :  14.521
constraining FC (au)   :  0.0500

           -------------------------------------------------
          |                 G F N 2 - x T B                 |
           -------------------------------------------------

        Reference                      10.1021/acs.jctc.8b01176
      * Hamiltonian:
        H0-scaling (s, p, d)           1.850000    2.230000    2.230000
        zeta-weighting                 0.500000
      * Dispersion:
        s8                             2.700000
        a1                             0.520000
        a2                             5.000000
        s9                             5.000000
      * Repulsion:
        kExp                           1.500000    1.000000
        rExp                           1.000000
      * Coulomb:
        alpha                          2.000000
        third order                    shell-resolved
        anisotropic                    true
        a3                             3.000000
        a5                             4.000000
        cn-shift                       1.200000
        cn-exp                         4.000000
        max-rad                        5.000000


          ...................................................
          :                      SETUP                      :
          :.................................................:
          :  # basis functions                1512          :
          :  # atomic orbitals                1512          :
          :  # shells                         1008          :
          :  # electrons                      2016          :
          :  max. iterations                   250          :
          :  Hamiltonian                  GFN2-xTB          :
          :  restarted?                      false          :
          :  GBSA solvation                  false          :
          :  PC potential                    false          :
          :  electronic temp.          300.0000000     K    :
          :  accuracy                    1.0000000          :
          :  -> integral cutoff          0.2500000E+02      :
          :  -> integral neglect         0.1000000E-07      :
          :  -> SCF convergence          0.1000000E-05 Eh   :
          :  -> wf. convergence          0.1000000E-03 e    :
          :  Broyden damping             0.4000000          :
          ...................................................

 iter      E             dE          RMSdq      gap      omega  full diag
   1  -1291.0207541 -0.129102E+04  0.407E+00    8.51       0.0  T
   2  -1291.0929354 -0.721813E-01  0.241E+00    8.29       1.0  T
   3  -1291.1236548 -0.307194E-01  0.208E-01    7.88       1.0  T
   4  -1291.1287416 -0.508681E-02  0.454E-02    8.04       1.0  T
   5  -1291.1288078 -0.662544E-04  0.304E-02    8.02       1.0  T
   6  -1291.1288455 -0.377049E-04  0.425E-03    8.04       1.0  T
   7  -1291.1288479 -0.231514E-05  0.765E-04    8.04       4.8  T
   8  -1291.1288479 -0.336117E-07  0.395E-04    8.04       9.2  T
   9  -1291.1288479 -0.152002E-07  0.661E-05    8.04      55.0  T

   *** convergence criteria satisfied after 9 iterations ***

         #    Occupation            Energy/Eh            Energy/eV
      -------------------------------------------------------------
         1        2.0000           -0.6880200             -18.7220
       ...           ...                  ...                  ...
      1002        2.0000           -0.4081508             -11.1063
      1003        2.0000           -0.4065483             -11.0627
      1004        2.0000           -0.4063374             -11.0570
      1005        2.0000           -0.4058973             -11.0450
      1006        2.0000           -0.4027627             -10.9597
      1007        2.0000           -0.4013484             -10.9212
      1008        2.0000           -0.4011344             -10.9154 (HOMO)
      1009                         -0.1058338              -2.8799 (LUMO)
      1010                         -0.0974982              -2.6531
      1011                         -0.0821025              -2.2341
      1012                         -0.0810594              -2.2057
      1013                         -0.0727470              -1.9795
       ...                                ...                  ...
      1512                          0.4342548              11.8167
      -------------------------------------------------------------
                  HL-Gap            0.2953006 Eh            8.0355 eV
             Fermi-level           -0.2534841 Eh           -6.8977 eV

 SCC (total)                   0 d,  0 h,  0 min, 21.368 sec
 SCC setup                      ...        0 min,  0.042 sec (  0.196%)
 Dispersion                     ...        0 min,  0.110 sec (  0.514%)
 classical contributions        ...        0 min,  0.023 sec (  0.108%)
 integral evaluation            ...        0 min,  0.612 sec (  2.864%)
 iterations                     ...        0 min,  8.079 sec ( 37.811%)
 molecular gradient             ...        0 min, 12.435 sec ( 58.194%)
 printout                       ...        0 min,  0.067 sec (  0.313%)

         :::::::::::::::::::::::::::::::::::::::::::::::::::::
         ::                     SUMMARY                     ::
         :::::::::::::::::::::::::::::::::::::::::::::::::::::
         :: total energy           -1283.351289171266 Eh    ::
         :: gradient norm              0.036019881626 Eh/a0 ::
         :: HOMO-LUMO gap              8.035538749323 eV    ::
         ::.................................................::
         :: SCC energy             -1291.128847902443 Eh    ::
         :: -> isotropic ES            7.165399107914 Eh    ::
         :: -> anisotropic ES         -1.630727884215 Eh    ::
         :: -> anisotropic XC         -0.126202077950 Eh    ::
         :: -> dispersion             -0.790968286307 Eh    ::
         :: repulsion energy           7.622338719280 Eh    ::
         :: add. restraining           0.000000000000 Eh    ::
         :: total charge               0.000000000000 e     ::
         :::::::::::::::::::::::::::::::::::::::::::::::::::::

      ----------------------------------------------------------- 
     |                       L-ANC optimizer                     |
      ----------------------------------------------------------- 
          low memory version by Sebastian Ehlert

          ...................................................
          :                      SETUP                      :
          :.................................................:
          :   energy convergence        0.1000000E-05 Eh    :
          :   grad. convergence         0.8000000E-03 Eh/a0 :
          :   optimization log               true           :
          :   writing optlog all                1     steps :
          :   Hessian reset                    20     steps :
          :   maximium step len.        1.0000000     a0    :
          :   LBFGS images                     20           :
          ...................................................
 * calculating model hessian...
Using Lindh-Hessian (1995)
 Shifting diagonal of input Hessian by   1.000042976722625E-002
 Lowest  eigenvalues of input Hessian
    0.010000    0.010000   -0.000000   -0.000000   -0.000000   -0.000000
   -0.000000   -0.000000   -0.000000   -0.000000   -0.000000   -0.000000
   -0.000000   -0.000000   -0.000000   -0.000000   -0.000000   -0.000000
 Highest eigenvalues
    0.306505    0.318751    1.223269    1.228091    1.409332    1.449163
 

........................................................................
.............................. CYCLE    1 ..............................
........................................................................
   1  -1291.1251340 -0.129113E+04  0.306E-02    8.06       0.0  T
   2  -1291.1251462 -0.122139E-04  0.188E-02    8.06       1.0  T
   3  -1291.1251508 -0.461371E-05  0.174E-03    8.06       2.1  T
   4  -1291.1251511 -0.307616E-06  0.472E-04    8.06       7.7  T
   5  -1291.1251511 -0.457794E-08  0.606E-05    8.06      60.0  T
     SCC iter.                  ...        0 min,  3.539 sec
     gradient                   ...        0 min, 12.509 sec
 * total energy  : -1283.3528914 Eh     change       -0.1602186E-02 Eh
   gradient norm :     0.0192853 Eh/a0  converged?    E=F G=F D=F
   step length   :     0.3704888 a0

........................................................................
.............................. CYCLE    2 ..............................
........................................................................
   1  -1291.1244040 -0.129112E+04  0.288E-02    8.05       0.0  T
   2  -1291.1244134 -0.942862E-05  0.175E-02    8.04       1.0  T
   3  -1291.1244167 -0.325877E-05  0.153E-03    8.04       2.4  T
   4  -1291.1244169 -0.257910E-06  0.412E-04    8.04       8.8  T
   5  -1291.1244169 -0.442014E-08  0.643E-05    8.04      56.6  T
     SCC iter.                  ...        0 min,  3.261 sec
     gradient                   ...        0 min, 12.490 sec
 * total energy  : -1283.3532984 Eh     change       -0.4070374E-03 Eh
   gradient norm :     0.0290373 Eh/a0  converged?    E=F G=F D=F
   step length   :     0.4299023 a0

........................................................................
.............................. CYCLE    3 ..............................
........................................................................
   1  -1291.1290628 -0.129113E+04  0.174E-02    8.04       0.0  T
   2  -1291.1290683 -0.557359E-05  0.108E-02    8.04       1.0  T
   3  -1291.1290711 -0.274786E-05  0.127E-03    8.05       2.9  T
   4  -1291.1290712 -0.112013E-06  0.398E-04    8.05       9.1  T
   5  -1291.1290712 -0.521663E-08  0.497E-05    8.05      73.2  T
     SCC iter.                  ...        0 min,  3.168 sec
     gradient                   ...        0 min, 12.477 sec
 * total energy  : -1283.3541944 Eh     change       -0.8960394E-03 Eh
   gradient norm :     0.0106770 Eh/a0  converged?    E=F G=F D=F
   step length   :     0.1988264 a0

........................................................................
.............................. CYCLE    4 ..............................
........................................................................
   1  -1291.1274466 -0.129113E+04  0.139E-02    8.05       0.0  T
   2  -1291.1274499 -0.327994E-05  0.847E-03    8.06       1.0  T
   3  -1291.1274510 -0.113359E-05  0.971E-04    8.06       3.7  T
   4  -1291.1274511 -0.101762E-06  0.269E-04    8.06      13.5  T
   5  -1291.1274511 -0.164914E-08  0.300E-05    8.06     121.1  T
     SCC iter.                  ...        0 min,  3.171 sec
     gradient                   ...        0 min, 12.526 sec
 * total energy  : -1283.3547810 Eh     change       -0.5865919E-03 Eh
   gradient norm :     0.0162069 Eh/a0  converged?    E=F G=F D=F
   step length   :     0.2520839 a0

........................................................................
.............................. CYCLE    5 ..............................
........................................................................
   1  -1291.1279060 -0.129113E+04  0.141E-02    8.07       0.0  T
   2  -1291.1279139 -0.786018E-05  0.849E-03    8.07       1.0  T
   3  -1291.1279152 -0.131307E-05  0.157E-03    8.07       2.3  T
   4  -1291.1279154 -0.232891E-06  0.249E-04    8.07      14.6  T
   5  -1291.1279154 -0.181649E-08  0.425E-05    8.07      85.5  T
     SCC iter.                  ...        0 min,  3.144 sec
     gradient                   ...        0 min, 12.517 sec
 * total energy  : -1283.3552396 Eh     change       -0.4585575E-03 Eh
   gradient norm :     0.0144744 Eh/a0  converged?    E=F G=F D=F
   step length   :     0.3457873 a0

........................................................................
.............................. CYCLE    6 ..............................
........................................................................
   1  -1291.1264215 -0.129113E+04  0.151E-02    8.06       0.0  T
   2  -1291.1264255 -0.396774E-05  0.920E-03    8.06       1.0  T
   3  -1291.1264270 -0.152791E-05  0.112E-03    8.06       3.3  T
   4  -1291.1264271 -0.123404E-06  0.374E-04    8.06       9.7  T
   5  -1291.1264271 -0.461500E-08  0.377E-05    8.06      96.5  T
     SCC iter.                  ...        0 min,  3.148 sec
     gradient                   ...        0 min, 12.522 sec
 * total energy  : -1283.3552661 Eh     change       -0.2649873E-04 Eh
   gradient norm :     0.0230423 Eh/a0  converged?    E=F G=F D=F
   step length   :     0.3034485 a0

........................................................................
.............................. CYCLE    7 ..............................
........................................................................
   1  -1291.1313387 -0.129113E+04  0.102E-02    8.07       0.0  T
   2  -1291.1313413 -0.256735E-05  0.603E-03    8.07       1.0  T
   3  -1291.1313421 -0.767682E-06  0.914E-04    8.07       4.0  T
   4  -1291.1313421 -0.776292E-07  0.268E-04    8.07      13.6  T
     SCC iter.                  ...        0 min,  2.518 sec
     gradient                   ...        0 min, 12.561 sec
 * total energy  : -1283.3556294 Eh     change       -0.3633545E-03 Eh
   gradient norm :     0.0032288 Eh/a0  converged?    E=F G=F D=F
   step length   :     0.1485273 a0

........................................................................
.............................. CYCLE    8 ..............................
........................................................................
   1  -1291.1295801 -0.129113E+04  0.642E-03    8.07       0.0  T
   2  -1291.1295804 -0.294291E-06  0.390E-03    8.07       1.0  T
   3  -1291.1295806 -0.140902E-06  0.299E-04    8.07      12.2  T
   4  -1291.1295806 -0.617342E-08  0.102E-04    8.07      35.6  T
     SCC iter.                  ...        0 min,  2.522 sec
     gradient                   ...        0 min, 12.522 sec
 * total energy  : -1283.3557308 Eh     change       -0.1013627E-03 Eh
   gradient norm :     0.0093821 Eh/a0  converged?    E=F G=F D=F
   step length   :     0.1005946 a0

........................................................................
.............................. CYCLE    9 ..............................
........................................................................
   1  -1291.1293807 -0.129113E+04  0.106E-02    8.07       0.0  T
   2  -1291.1293825 -0.177484E-05  0.645E-03    8.07       1.0  T
   3  -1291.1293831 -0.566989E-06  0.715E-04    8.07       5.1  T
   4  -1291.1293831 -0.603939E-07  0.215E-04    8.07      16.9  T
     SCC iter.                  ...        0 min,  2.494 sec
     gradient                   ...        0 min, 12.590 sec
 * total energy  : -1283.3558705 Eh     change       -0.1397390E-03 Eh
   gradient norm :     0.0087617 Eh/a0  converged?    E=F G=F D=F
   step length   :     0.1855866 a0

........................................................................
.............................. CYCLE   10 ..............................
........................................................................
   1  -1291.1309691 -0.129113E+04  0.321E-03    8.07       0.0  T
   2  -1291.1309693 -0.166422E-06  0.194E-03    8.07       1.9  T
   3  -1291.1309693 -0.413772E-07  0.219E-04    8.07      16.6  T
   4  -1291.1309693 -0.575051E-08  0.604E-05    8.07      60.2  T
     SCC iter.                  ...        0 min,  2.487 sec
     gradient                   ...        0 min, 12.602 sec
 * total energy  : -1283.3559462 Eh     change       -0.7565460E-04 Eh
   gradient norm :     0.0027082 Eh/a0  converged?    E=F G=F D=F
   step length   :     0.0557481 a0

........................................................................
.............................. CYCLE   11 ..............................
........................................................................
   1  -1291.1313618 -0.129113E+04  0.343E-03    8.07       0.0  T
   2  -1291.1313619 -0.154205E-06  0.208E-03    8.07       1.8  T
   3  -1291.1313620 -0.295690E-07  0.199E-04    8.07      18.3  T
   4  -1291.1313620 -0.620366E-08  0.442E-05    8.07      82.3  T
     SCC iter.                  ...        0 min,  2.488 sec
     gradient                   ...        0 min, 12.573 sec
 * total energy  : -1283.3559678 Eh     change       -0.2157209E-04 Eh
   gradient norm :     0.0011792 Eh/a0  converged?    E=F G=F D=F
   step length   :     0.0693470 a0

........................................................................
.............................. CYCLE   12 ..............................
........................................................................
   1  -1291.1319062 -0.129113E+04  0.223E-03    8.07       0.0  T
   2  -1291.1319063 -0.106802E-06  0.135E-03    8.07       2.7  T
   3  -1291.1319063 -0.299633E-07  0.173E-04    8.07      21.0  T
   4  -1291.1319063 -0.364935E-08  0.490E-05    8.07      74.2  T
     SCC iter.                  ...        0 min,  2.471 sec
     gradient                   ...        0 min, 12.573 sec
 * total energy  : -1283.3559723 Eh     change       -0.4516163E-05 Eh
   gradient norm :     0.0020685 Eh/a0  converged?    E=F G=F D=F
   step length   :     0.0460023 a0

........................................................................
.............................. CYCLE   13 ..............................
........................................................................
   1  -1291.1317111 -0.129113E+04  0.523E-04    8.07       0.0  T
   2  -1291.1317112 -0.482805E-08  0.316E-04    8.07      11.5  T
   3  -1291.1317112 -0.209479E-08  0.400E-05    8.07      90.9  T
     SCC iter.                  ...        0 min,  1.840 sec
     gradient                   ...        0 min, 12.567 sec
 * total energy  : -1283.3559743 Eh     change       -0.2038878E-05 Eh
   gradient norm :     0.0009990 Eh/a0  converged?    E=F G=F D=F
   step length   :     0.0061622 a0

........................................................................
.............................. CYCLE   14 ..............................
........................................................................
   1  -1291.1314850 -0.129113E+04  0.870E-04    8.07       0.0  T
   2  -1291.1314850 -0.785121E-08  0.537E-04    8.07       6.8  T
   3  -1291.1314850 -0.366458E-08  0.437E-05    8.07      83.3  T
     SCC iter.                  ...        0 min,  1.824 sec
     gradient                   ...        0 min, 12.514 sec
 * total energy  : -1283.3559759 Eh     change       -0.1604828E-05 Eh
   gradient norm :     0.0005731 Eh/a0  converged?    E=F G=T D=F
   step length   :     0.0129837 a0

........................................................................
.............................. CYCLE   15 ..............................
........................................................................
   1  -1291.1315927 -0.129113E+04  0.663E-04    8.07       0.0  T
   2  -1291.1315927 -0.432010E-08  0.405E-04    8.07       9.0  T
   3  -1291.1315927 -0.189107E-08  0.351E-05    8.07     103.6  T
     SCC iter.                  ...        0 min,  1.819 sec
     gradient                   ...        0 min, 12.426 sec
 * total energy  : -1283.3559769 Eh     change       -0.1005065E-05 Eh
   gradient norm :     0.0005461 Eh/a0  converged?    E=F G=T D=F
   step length   :     0.0097863 a0

........................................................................
.............................. CYCLE   16 ..............................
........................................................................
   1  -1291.1315695 -0.129113E+04  0.847E-04    8.07       0.0  T
   2  -1291.1315696 -0.105806E-07  0.517E-04    8.07       7.0  T
   3  -1291.1315696 -0.440741E-08  0.553E-05    8.07      65.8  T
     SCC iter.                  ...        0 min,  1.820 sec
     gradient                   ...        0 min, 12.390 sec
 * total energy  : -1283.3559775 Eh     change       -0.5842735E-06 Eh
   gradient norm :     0.0007392 Eh/a0  converged?    E=T G=T D=F
   step length   :     0.0138523 a0

   *** GEOMETRY OPTIMIZATION CONVERGED AFTER 16 CYCLES ***

------------------------------------------------------------------------
 total energy gain   :        -0.0046883 Eh       -2.9420 kcal/mol
 total RMSD          :         0.0581530 a0        0.0308 Å
 total power (kW/mol):        -0.7693277 (step)   -0.0464 (real)
------------------------------------------------------------------------

 L-ANCopt (total)              0 d,  0 h,  4 min, 25.516 sec
 setup                          ...        0 min,  0.030 sec (  0.011%)
 model hessian                  ...        0 min,  7.536 sec (  2.838%)
 ANC generation                 ...        0 min,  2.479 sec (  0.933%)
 coordinate transformation      ...        0 min,  0.001 sec (  0.000%)
 Rational function              ...        0 min,  0.000 sec (  0.000%)
 singlepoint calculation        ...        4 min, 15.352 sec ( 96.172%)
 optimization log               ...        0 min,  0.112 sec (  0.042%)
 hessian update                 ...        0 min,  0.000 sec (  0.000%)

================
 final structure:
================
$coord
       -6.79840554599798       -9.11457956583393       -9.08995985352804      o
       -5.37290994911604       -9.96163131858706       -9.86886973582303      h
       -6.03556802025099       -7.61062776714897       -8.32714041132497      h
        6.20038576468700       -3.33549513503302        1.62372274197897      o
        7.18579050826900       -3.71645235020101        0.12023461061001      h
        7.34973045062400       -3.15779023875700        3.03491316879299      h
        4.76778902404100        4.20482177881201       -4.41684298603497      o
        3.15515928859100        4.48665912760502       -3.59246376970199      h
        5.77814543448099        5.68049309601898       -3.99260087990203      h
        4.36627072750592        1.02978339866700        0.31907261831298      o
        5.77987233446101        1.32625582909599       -0.82679113138802      h
        4.74595228411699       -0.66474218128702        0.98926999659798      h
        4.93953035396900       -1.06921670216899       -4.99305541247199      o
        6.40503634226499       -1.95851467748299       -4.28640102467697      h
        5.00980723170200        0.68497995926699       -4.48603529448699      h
       -4.12375566043796      -11.71984575036301        2.55343521375007      o
       -2.80412216881704      -10.93260288376699        1.57215176687703      h
       -3.76856517020405      -13.51676925818800        2.50647977088092      h
       10.19507697061699        1.60729160187296        2.84846512981300      o
       11.47803227088800        2.91502931494106        3.00367012029200      h
        8.66022002759500        2.22356781960005        3.64344165563701      h
        2.36652324686099       -4.68923185437000       -2.47258816412498      o
        2.20996728412002       -4.48334977829500       -0.63939992961905      h
        3.12328790810100       -3.19682158375400       -3.24550046632799      h
        5.16055227089700       -8.93441857724601        2.02075934782195      o
        6.71175273121101       -8.03882616327801        2.41990315324600      h
        5.13255637685599       -9.16158039916501        0.19022512588690      h
        1.09139209288800        4.37432316328199        3.05841637507303      o
        2.82192516946000        3.91651767821600        3.47782239395501      h
        0.09068048370000        2.89818022376797        3.46456662404601      h
        0.06243675795898        6.42940268597296        7.64811887665002      o
       -0.97707797458998        5.17175872409905        8.51311327247901      h
        0.21359915749200        5.87651983590500        5.89524337912802      h
       -1.43786135745900        0.41893500846999        5.10478179088800      o
       -2.55885824780200       -0.83232223848799        5.89758046972800      h
        0.25058401942700       -0.26492531387299        5.40656586169300      h
        1.12456249310499       -5.30819579889002       -7.79396561938403      o
        0.33961953032500       -5.24710576867909       -9.45956065175603      h
        2.77748342247401       -4.54663249815402       -7.96840193662106      h
       -5.71303416514899        3.00404049505099        4.28500001814101      o
       -6.64061990135400        1.69266653899700        3.39579186263600      h
       -4.02561304183799        2.34214787253002        4.57371754561000      h
        8.79446662201600        1.60122526542400       -1.99883409956100      o
        9.51165181927900        1.39202132533100       -0.31199455188199      h
        9.39853822290100        3.22133090771900       -2.63121044392599      h
        2.71354730662500       -0.10947020418091       -9.38497476781200      o
        1.07529155750199       -0.65080235533911       -8.69676543980700      h
        3.92740367282601       -0.65965983194401       -8.11144179797099      h
       -3.95652321190100        1.78790797964408      -10.53235833452100      o
       -4.13053019700801        3.62411593310001      -10.39177495495600      h
       -3.11181616969000        1.11886403867807       -9.02000900907900      h
      -13.75320348364900       -1.97771956376198       -0.14469881472200      o
      -13.78902017293800       -0.74322965144000        1.20915551019700      h
      -12.45102237065100       -3.22298249002600        0.26740368851101      h
       -9.82064655234799       -4.89241799109101        0.75956503951095      o
       -9.25027248374200       -6.55659649566201        1.32979743668498      h
       -9.09079759304100       -3.66431670193099        1.94213260467800      h
      -10.63359434454901        5.18985639991400        2.37700559638601      o
       -9.66586988923101        4.02596200505700        1.29323003581098      h
       -9.97345404864899        5.00649587966000        4.07656930704097      h
       -2.63826535478900        5.92306086867804       -5.72816888503500      o
       -4.30639400982600        5.66503303902403       -6.41875732793199      h
       -1.45889096424900        5.38057077944005       -7.02780304505103      h
        9.99677330012299        0.77937035465201       -6.89769472501500      o
        8.60854806232600        1.66163342941096       -7.74055589652500      h
        9.60571106022200        0.74967195151199       -5.10303246855300      h
       -4.75626174545001       -7.35848384206802       -0.37813179991901      o
       -3.30110278283699       -7.53122880714901       -1.50028832115698      h
       -5.20629983457706       -5.53680639527102       -0.53496749501305      h
       -8.45163664270102       -5.62249801134700       -3.94603450514902      o
       -9.02121900419500       -7.36437698173204       -4.24419603366900      h
       -8.88591994920600       -5.20005482113900       -2.19338403411399      h
       -4.56793980754200       -2.92340950554105        7.03434886053100      o
       -4.22813780773600       -3.24179692717694        8.81962638001499      h
       -3.95056674109500       -4.42761355032501        6.12392051672797      h
      -11.54125568774400        0.68767626466003       -3.64148502942100      o
      -12.46481810027100       -0.37511918047996       -2.42297930564901      h
      -10.90243800177701       -0.40332253203796       -4.95596541317700      h
        4.45020300399898       -6.38669222105286      -13.77010742714097      o
        5.88693938360102       -6.01205330138301      -14.81293373415208      h
        4.70714564945598       -8.14244508239105      -13.15926765144798      h
       10.54770897959601       -9.19566274748800       -1.79500434466902      o
       11.46877683462800       -8.44203342694700       -3.21481618862500      h
        9.48595213804199      -10.55720127467300       -2.44660256942994      h
      -14.26833080280100       -7.58737203919206       -1.13897831475206      o
      -14.26197323709599       -6.75200531689501        0.50634186605099      h
      -13.11942778682502       -8.99071055944499       -1.03987575070806      h
        8.81319678419299        7.71587204427499        5.13945284553606      o
        8.71840321879999        9.32727556584703        6.02865178503703      h
        9.59217754897501        8.06031567966493        3.50772811911793      h
      -18.54343637574298       -7.71400223603710       -4.88467063380597      o
      -19.84014490437500       -7.15851616998798       -6.06105388107604      h
      -18.34920740358302       -6.31620042308702       -3.70545744142501      h
       -9.13357335819800       -3.26144395150301        9.84027799645099      o
       -9.75231347223800       -3.93212402872301        8.24939007129700      h
       -8.31932213224700       -4.72187040614702       10.61125610046101      h
        7.12875088982500        9.04712504634100       -4.06599873244703      o
        6.04062482957000        9.77563289019600       -2.77783634485701      h
        6.33908590440902        9.52202919074800       -5.65193266241299      h
        8.73705481259700       -2.70424698540501        6.14531426369299      o
       10.53320625909000       -3.10264424325400        6.32483563806203      h
        8.58150608739300       -1.02401368607598        6.84843053705700      h
       12.56073404930500       -2.89907632349900        1.76332128746402      o
       14.35629205400900       -2.62419596922999        1.97986507167701      h
       11.71268180458100       -1.36186812997198        2.27298987866598      h
       -8.61583457724499       -9.44671901850100        2.53516998538405      o
       -6.91055623478600      -10.17648489184900        2.52298648169393      h
       -9.70747713894598      -10.60948766128000        1.64930425921900      h
       -1.08857676518500        9.13865587213604        2.94429923217000      o
       -2.34077506694102        8.84295324595004        4.27215368438202      h
       -1.30466823460999       10.87365762807001        2.39828050812309      h
        1.50246645897100       -5.23851986685899        2.51455933442798      o
        2.79798093005699       -6.54559188635598        2.54979577599399      h
        2.16737118824800       -3.87512524158703        3.55064042056503      h
       -7.99354562495801        2.22442636972000       -0.49490585857798      o
       -6.67595218471801        3.22214499126399       -1.24099881767395      h
       -9.09454100900000        1.59980790690100       -1.84388784733500      h
       12.83778589144200       -1.80543397499700       -3.34668810882001      o
       13.91060363534901       -2.94484902903799       -2.37633049972701      h
       13.22393446951999       -0.12097677288699       -2.70301666817699      h
       10.66131506860303      -13.48489199082399       -7.51616523091003      o
       12.39067606986701      -13.16683555336397       -6.95392786568295      h
       10.34873805820802      -12.25385629968295       -8.81859925046701      h
        9.53040352527600        7.42139500079804       -8.81588354835997      o
       10.37638685494500        7.22999381417098      -10.45856762401303      h
        8.63403381108999        9.02917856031801       -8.85915805622498      h
       -6.51265718787700        0.18068823535602       -5.63005373530203      o
       -6.78023946588299        1.95919031724794       -6.01022944031998      h
       -7.35070879255101       -0.75182985678593       -6.94420146417500      h
       -8.53629813590301        0.14306195716003      -11.28651300605800      o
       -8.00845592987099       -1.61338281127204      -11.60523602582600      h
       -6.89758678708201        0.93635450302603      -10.85126356657900      h
       14.62876114574499       -3.45733410294292      -12.04202646311697      o
       15.28573983337800       -5.14936598957398      -12.14933562092206      h
       15.37838152909302       -2.71804055658002      -10.52020878278105      h
       14.27023619438999        2.99263992069503       -8.40396156100901      o
       12.78277176007101        2.41599589577999       -7.47169035022400      h
       14.33311782879700        4.83148963562799       -8.35569451850601      h
        8.39231505242700       -4.01807437946199       -2.90146360692095      o
       10.04313623926301       -3.19079789804300       -2.96338651154395      h
        8.47457014517201       -5.50948037695301       -3.96742524688206      h
      -18.40610109814601       -3.83830116188296       -1.26841890711600      o
      -19.16898993297599       -4.40206258277202        0.29772063353599      h
      -16.72769677139900       -3.19490872963806       -0.86746448571900      h
       -5.20442819254903       11.69748455290799        0.93057249984612      o
       -4.21156153308601       11.19741465950399       -0.52825693775988      h
       -5.40317466683997       13.49717064561700        0.83822477859313      h
       -5.30948528835101        6.55434070371803      -10.92284483445102      o
       -6.79707095917200        6.01252045921205      -11.87624917196892      h
       -4.09047598303801        7.10643949987598      -12.20188793316598      h
        7.83415540021499       -7.92393514396298       -6.27607536782701      o
        9.13025708342002       -8.43281951344600       -7.46765523692401      h
        6.78629018299100       -6.74047184699499       -7.24127389733308      h
        0.85766558128400        4.59583735552101       -9.31217868942401      o
        1.65904960296299        2.94805205197203       -9.04767680625599      h
        0.88852029280300        4.79976015050203      -11.14498106570195      h
       13.40096103978504       10.29105739180896        4.97749102465199      o
       12.58181080740295       11.13409455803101        6.35882228272607      h
       14.80539558162397        9.34202945323098        5.65014291335995      h
        5.82863429770200        3.53395881731600        5.08956091008099      o
        6.63317581012502        5.18883552781504        5.18084110757103      h
        4.98831808721301        3.30902380744799        6.71211736422699      h
        4.74391889817798        7.83887963326296        8.55899496304905      o
        3.10469698546799        6.97990124065403        8.62627232451401      h
        5.83296604808800        7.17384349414400        9.88798817035303      h
       15.88000334538200       -1.98745984511898       -7.32232247451400      o
       17.19017788991901       -1.02787129968499       -6.45076443912200      h
       14.45904779770800       -1.93350025547202       -6.12911168953099      h
       -9.31973470723202        6.08012991620197        7.23238912212501      o
       -8.88412488832199        4.66541511987900        8.31604819848104      h
       -7.70510694904001        6.73464974590897        6.56959932291900      h
       -7.28835112359101        1.61040031179704        8.99966908517600      o
       -7.79565068120999       -0.12785943919803        9.30196503927599      h
       -6.79994443071901        1.76250144705800        7.23263287466300      h
      -14.59179694853102       -4.33645729277896       -5.24006763215799      o
      -12.92212168659702       -4.02000364735995       -5.94727824623500      h
      -14.41778891783799       -5.46377349359300       -3.80061524941603      h
      -24.68431045279600        1.59456309536102       -2.56949333952904      o
      -25.30148251589600        0.62027268140692       -1.16652821702897      h
      -24.12010740729900        3.21422587376501       -1.91647620515692      h
        9.86159404638801       -7.03006679992299        2.70663451071197      o
       10.88479448096501       -5.49247111072005        2.59642121620996      h
       10.08408259531001       -7.80843377680301        1.05726719965292      h
      -11.98125460738800        2.54595026607902       -8.40380990974595      o
      -10.90977287440500        1.27790069701802       -9.20754529247898      h
      -13.32873324469800        1.67687582682593       -7.52967019822401      h
       -9.21539444778900        4.63881813723397      -13.65689354565205      o
      -10.88806666333299        5.32146169735293      -13.34510096427800      h
       -9.22097143630101        2.92917981585200      -12.97244385973800      h
        4.51109659625199       -6.12568470062396       13.51290115697700      o
        5.09868400486399       -7.67773749726112       12.74627832628301      h
        2.70825587819100       -6.40592539709711       13.93179135607595      h
      -11.80441828774000        3.30675095373495       11.15352838007397      o
      -11.78083478984000        2.22290191796997        9.65592222405800      h
      -13.49904440527200        3.95167852923196       11.29266752637903      h
      -20.27824545125000        0.66644146046601        1.03136987745797      o
      -20.50994230024200        2.27628983244698        1.88817909125604      h
      -19.00105094444200        1.02445786691597       -0.26185774158203      h
       10.39658524007599        8.02591918481201        0.20870863611904      o
       10.35060129246700        9.81522885431601       -0.25314054991698      h
        8.65679014381700        7.34959015718101        0.08106052006098      h
       -3.11225638021600       -6.74488029814400        4.30126475578295      o
       -1.32443926558700       -6.39862435509799        4.00578050481598      h
       -3.83530025969001       -7.05970915057799        2.62361942763798      h
      -16.38497393349800        0.18013469531901       -6.36324827355606      o
      -15.69969835211700       -1.49947622635905       -5.96586016073300      h
      -18.18680293461600       -0.01628199575297       -5.94514820402499      h
       -2.53601438070100       -1.06648767843898      -14.41732708393400      o
       -0.80239961199401       -0.70751140704699      -14.86508337641000      h
       -2.93021234869399        0.04503164194913      -12.98217881452400      h
       -0.54425679931898       -5.56978434277408      -12.57895849511699      o
       -1.21310190067499       -4.03756878838700      -13.33881965411699      h
        1.12648167118899       -5.81121478764994      -13.29661582774700      h
       -1.51947674395501       -0.71235905337297       -7.06513996311901      o
       -2.52833810130100       -2.22512841878401       -6.79896451181600      h
       -0.85688053715700       -0.12319101070204       -5.45471355893100      h
        0.87660900281302        6.54771298883900       -1.75243784398404      o
       -0.68795478003001        5.97735072005902       -2.49594619371999      h
        0.90256699050100        5.88811200163800       -0.03188888898992      h
        5.24593997217500       -2.70445875451986        9.92274413001002      o
        4.70958766368800       -3.93725146258207       11.18232348438399      h
        6.72364594710701       -3.39083307793699        9.10316822986696      h
      -12.54981168219500        5.76221778105105       -3.71698532813002      o
      -12.30115925918700        3.93828756152503       -3.77128939875497      h
      -11.02361138798700        6.48411222451201       -2.97451279236801      h
       -1.45551646739301       -7.59552714736799       -4.07079348061905      o
       -1.03023884227403       -9.34269377618402       -4.43060137920506      h
        0.06406817670100       -6.60668563063297       -3.74866975992097      h
       -5.05966347835902        8.38212898509700        5.95993567977594      o
       -5.69719785918202       10.10008991769599        5.68467006556600      h
       -4.69300914914602        8.26869104617204        7.76446402420997      h
       -2.63710139868799        3.05456069786503       10.16288484977602      o
       -1.69671484579700        1.45345613641793       10.07001618776998      h
       -4.42619311759498        2.62204674838093        9.98006265329699      h
      -10.52666963769401       -6.26843289619103        5.95307835582404      o
       -9.62202190850000       -7.50149730564801        4.93012538085996      h
      -12.09659665798900       -5.88449889589000        5.04431066406701      h
      -22.74030435037999        6.39084735973006       -1.53907519268691      o
      -23.78379354112802        7.77514988153500       -2.04951828995803      h
      -21.36466586149200        6.26095708780101       -2.78440420682489      h
       -7.90312824440000       10.43772801612804       -8.75946460170994      o
       -7.02416409049799        8.85832937190104       -9.13631866380698      h
       -9.68398739809799        9.99833802136498       -8.59029428872297      h
      -23.09475072757299       -6.85572468779198       -2.06292775033498      o
      -23.79977452035600       -5.40186980634794       -1.21214270998702      h
      -23.25643625559400       -6.55101939697898       -3.84636847244699      h
      -14.90540015249300       -5.64861176838900        3.56096959816498      o
      -15.93613055935200       -4.20222244678500        4.05927787108600      h
      -15.79509147861000       -7.16109975719701        4.14884918562098      h
        6.93920027610400       11.79853275082203       -8.50954707917699      o
        5.36009788591399       12.40710713457307       -9.16223810278604      h
        7.60254290934602       13.12387166580101       -7.38842896423799      h
        3.38103623179101       10.99074107776300       -0.96838319431899      o
        3.89869022584199       10.77975390911500        0.78063590487605      h
        2.32875662778901        9.50980642195400       -1.30881514957803      h
        6.44799564554201        3.64515700126604       -9.07192008364097      o
        5.39116662004700        3.76574973970001       -7.55744184207800      h
        7.63128286578300        5.07939218212102       -8.89767683422398      h
        1.57539034028000        4.41139843953197      -14.33838206823200      o
        3.26022191146300        5.11607111197504      -14.57658041182601      h
        1.79412885580201        2.58393098713297      -14.53759473470197      h
       18.67713860361298       -6.01328722439798       -7.94010839014501      o
       20.18735313947498       -5.07318934963299       -8.35160872048805      h
       17.47052345408800       -4.67911524826297       -7.44009443168393      h
       19.40892310640901        2.27574198294201       -8.44666032002200      o
       17.59275125824601        2.14348571799902       -8.66948554081900      h
       19.59937439035100        3.79991535823001       -7.43701556601300      h
       -5.18453945847900        8.71469633748096       11.05080574437394      o
       -3.58611923535799        9.66668100590694       11.11449846257603      h
       -6.55609044349297        9.90882288630500       11.12062572152099      h
       17.51217706048100       -1.66931349714506        2.67489839831700      o
       17.12035404166800       -0.15344657988501        3.63320503076800      h
       19.09620869536200       -1.33061695092503        1.78893930608398      h
       14.94194456390700       -7.38309590929900        4.57260149935397      o
       14.46687829272900       -5.78568826219004        5.34224038387392      h
       16.41046566286700       -7.07225246602608        3.51720846337997      h
        5.87602670360401        6.20767271821198        0.36412072412199      o
        5.09279284620100        7.22603661956301        1.69048537138602      h
        5.32429949559801        4.48733328053401        0.59636618587901      h
      -10.35025284325301       -2.89657908958497       -7.46160525643100      o
       -9.44724342293200       -3.91304140147702       -6.17943921040701      h
      -10.65893762290500       -4.06102131486102       -8.86243418018401      h
      -17.80244892514800       -1.50490103713102        4.81592978031601      o
      -19.04247466170400       -1.14904959672702        3.49106858843501      h
      -18.73436350874200       -1.49699858380200        6.40752698934899      h
       -8.29585150559901       -1.42626960708799        4.04601321663001      o
       -9.69940333490500       -0.94033207908400        5.13899044603700      h
       -7.01198779460000       -2.15277270550100        5.16748278147900      h
        4.36524541209499       15.92091775202101       -2.57613147171106      o
        2.80762084410101       15.90008513064201       -3.55423884181996      h
        4.40657925682599       14.28533081712500       -1.76745400114090      h
       -6.24839229127100       -0.38255688368007       14.79914943359399      o
       -6.26867468379100        1.39596087991398       14.30553339007801      h
       -8.01776463221401       -0.83949186913307       14.93389109577400      h
       11.72630019589302        4.39147381162994        7.35456743832901      o
       10.55549013519600        3.21968542941496        8.15113712501600      h
       10.69672026269600        5.72778746274898        6.56476713474000      h
        3.20665477178700       -1.35745823941900        5.52385238398199      o
        4.41136301151700       -0.16784377752703        4.87504385978300      h
        3.79417164618900       -1.90331165269594        7.19344814117700      h
       18.64518910619900       -0.06264440577100       -3.57590435291901      o
       17.30235269539000        1.00620079196102       -2.91215997074401      h
       20.17104362005300        0.95918080588002       -3.52962660451400      h
       14.85895436209800        8.08149775956002       -8.96300450608902      o
       14.26350465418700        8.25160643297500      -10.67031570914399      h
       13.70183526839401        9.02364571126902       -7.87801863462499      h
       10.85009355069399       -3.83390476038202       -8.41823577812101      o
       11.94518923659001       -3.68212922509196       -9.87518626008196      h
       10.63881215077200       -2.11675689767901       -7.73609865378599      h
      -20.88240626401800       -0.99852051125605       -4.66207576663399      o
      -22.30012220271900       -0.03266264653903       -3.96668855063802      h
      -20.17609547318800       -2.01424310088496       -3.27860252082600      h
      -19.52664198722400        5.50408222284500        2.42591769608496      o
      -20.79874563449699        6.14797668724501        1.28299380249308      h
      -17.90733798689699        6.13865956692801        1.81119626871302      h
       -9.80556081831602       15.91161920922300        3.05938207794503      o
      -11.23790907587397       15.34635299162300        4.04788741715805      h
      -10.15335151022898       15.36840641546099        1.34207108086986      h
       -8.07364894534601        7.80080610701200       -2.47596519037894      o
       -6.70419714199400        7.30541566487599       -1.30389924540606      h
       -7.79346472257700        9.56512816801700       -2.89934617220703      h
        7.81572523297798       -0.10810997585197      -12.71933560448199      o
        9.48043955857101        0.67484771360009      -12.85538891788399      h
        6.93377760015599        0.82856228761601      -11.42213910798100      h
      -12.88074423454999       12.48673612883501        5.59290579852217      o
      -11.83265048275098       11.50486628696000        4.42563936231907      h
      -14.58856168082499       11.85457541013800        5.38952859727905      h
        1.48311044866101       12.49564682314603       -9.49082071100297      o
        1.74971410487301       10.99576568501800       -8.40702495303696      h
       -0.25529643507399       12.39681214986402      -10.10653312937088      h
        9.54620788920500       -4.79630270544901      -13.75548024361406      o
        8.77411768109601       -3.17087235003287      -13.32037011945700      h
       11.29022492897701       -4.42601835025899      -14.09421093170206      h
      -13.27377088577100       -2.10164360123908      -12.75111156911801      o
      -11.66460236292101       -1.31512599898911      -12.43745947227601      h
      -14.52639451381600       -0.77052920017801      -12.56252517672400      h
        0.19167734796500       -0.97575319014995       10.59274506712599      o
       -0.06781626122800       -1.23561219883100       12.38854873733600      h
        0.11531210411400       -2.64360679179603        9.75924739812098      h
       -9.90352801063300      -10.20932422398501       -5.22504767797501      o
       -8.92453479482501      -10.14703726668100       -6.78659382207796      h
      -11.68656878509900      -10.16162170082702       -5.74730237860199      h
       -6.10609588911700      -11.88172601237600       -2.36010300971700      o
       -5.71346545333401      -10.29563405275601       -1.47819316064307      h
       -7.59059082243999      -11.52315919962204       -3.38046114982298      h
      -16.61125839458800        2.49575830355997       -1.82678983087797      o
      -17.40086393470500        3.96198324791995       -2.60275510005896      h
      -16.03072559410399        1.48905545922405       -3.24748835258003      h
      -15.89319449762397      -13.09661587083300       -2.96457365363699      o
      -17.29919420989500      -12.20604056512203       -2.19645906534196      h
      -15.56786281613798      -12.26011139632098       -4.55249572704603      h
       21.28772686150601        0.02604341577295        8.10331378846499      o
       20.49598890757300       -1.61853933103608        7.80722963567995      h
       20.33110297445501        0.79466927962899        9.45932493527798      h
       -4.96223857068200        3.77041883130004      -16.69176912911903      o
       -6.60979549593599        4.00406524497999      -15.93545635672303      h
       -4.37441174229598        2.11777557315987      -16.19863084214900      h
       11.13375477850300        5.46209997307900       -4.21047203351099      o
       10.54925813611100        6.26824129819899       -5.74699245636500      h
       10.97124473394801        6.68095566445901       -2.84023384394898      h
      -24.14820610507700       -2.56161119338302        1.32385973048000      o
      -23.28654854821200       -3.91963593862700        2.21273055667599      h
      -22.78583068063100       -1.38148707410402        0.92541224314900      h
        3.84296441989999        9.32778219041399        3.73642196983300      o
        4.39373206475302        8.90576247267297        5.42762957047697      h
        2.00333649144300        9.09608749967803        3.68686936131803      h
       -0.88148103170603       -0.55998965696283       15.68607862968299      o
       -1.06012894337099        1.27663184487590       15.52281662991299      h
       -2.56186368609302       -1.16949206415320       16.01560135369399      h
       -0.31428664262700       -6.76493699653697       14.38622017601399      o
       -1.42777498073101       -5.49145178611801       13.65838554816201      h
       -0.52841416239201       -8.24044534906909       13.32236344358401      h
       10.31944532518300       -6.00033767871989       11.00509960915600      o
       10.20667172300600       -6.97065111112303        9.41003796742902      h
        9.72818502688500       -7.15124168241798       12.27357435124897      h
        2.50771002102400        8.54793227301603       -6.67893880927498      o
        1.74172521547900        8.25383985207499       -5.05598799710298      h
        2.08777063606200        7.07593172541097       -7.71594110090800      h
        3.80845548181699        3.71321292623192       14.46263415665299      o
        2.07996006404401        4.18729844816094       14.84318736523199      h
        4.04687110005400        2.00064924955398       15.07874662698099      h
       -7.60932655722996      -15.48379472825400        0.86400013409499      o
       -6.18558560641900      -16.59072323459300        1.14866555603694      h
       -6.95213131834099      -14.16699693388199       -0.27930859047089      h
       -2.61273893439798       10.56403651301997       -3.61928779120309      o
       -4.15026311958300       11.34058919935403       -4.22650323315093      h
       -2.55815074650000        8.88585490653902       -4.39370655836590      h
       -1.84084344383997       14.06743555061298        6.26977559693310      o
       -3.67849263893200       13.99254661944500        6.23858179487899      h
       -1.31860438863198       14.30379229731097        4.54256686559104      h
       22.42298408590000        3.32553166267999       -2.85097519118599      o
       22.66327814180800        4.28457294253301       -4.36899452274297      h
       21.30848648825200        4.37823712379498       -1.80231925593298      h
       22.11109156334500       -0.97594009803105        0.61767214335702      o
       22.28452319682100       -2.12837184386902       -0.84901664916601      h
       22.58351615657100        0.65636077729402       -0.02735932058000      h
      -14.43112460085702        5.99943643572300        6.16025552212907      o
      -12.66881752401799        6.23996028533000        6.60291116817801      h
      -14.48632356783400        4.67762326540600        4.86887509376295      h
        2.39767542826801      -10.06902562498595       -7.67538877237508      o
        1.93467500360802       -8.24735244386699       -7.68037956752001      h
        3.07512057150803      -10.37619672357002       -6.00187127787804      h
       -9.94461612711801       10.80576683680602        9.43007442477795      o
       -9.88880190033101        9.05172870561399        8.87657058525204      h
      -11.31758250175002       11.55882112281201        8.46032989021502      h
        0.23702090014201      -10.90084898527200       -0.04261384190998      o
        0.63330848570500      -12.69901120014100        0.11941070672590      h
        1.56455435462199      -10.20103991977999       -1.07088834051601      h
      -17.03451457985900       10.53984641611401       -5.26848398417607      o
      -16.70600710374399       11.22975055012803       -3.59816740254503      h
      -15.41512129073698       10.36892788325801       -6.12953507544900      h
      -14.82331939471499        2.00339333610099        3.00906624785800      o
      -16.19211779092699        0.96976072214399        3.71893452186503      h
      -15.39488658091600        2.60323283392799        1.36458169423198      h
       14.98941297231899        6.57516176035195       10.41705867444101      o
       14.06627574057102        8.00122814725601       11.12350295305601      h
       13.69323884590197        5.68315933813913        9.41731673711800      h
      -17.14442464780100       -4.46466540550092       -9.82576722854600      o
      -15.76574041257899       -4.10878525997094      -10.96459890491102      h
      -16.38046959009501       -4.73894949699791       -8.17983309524701      h
       10.64181662605800       12.95070329080298       -0.80082124881908      o
        9.81839279639499       13.80076177234100        0.62161168849200      h
       12.44304720917101       13.12081288829400       -0.53689286761902      h
       11.95779039465898       10.65460951534502       -5.48981705903196      o
       11.89665536478302       12.43098468346901       -5.83583957027900      h
       10.25220080507600       10.19442642603400       -4.93691869317996      h
        9.54434786804701      -14.74219550798499        1.51443518831505      o
        9.05329382029801      -14.39689467476401       -0.21959656902113      h
       11.06809293109099      -13.77789310523301        1.81810898488001      h
        0.87544797465400      -10.38542965319399        5.08681358851292      o
        2.32475666131201       -9.37713741100701        5.53692784020998      h
        0.73616781435402      -10.32326228190499        3.25913621137086      h
       -4.83709425684701      -10.14051749729394        7.60618580265499      o
       -4.10486338944299       -8.99287315653001        6.32381979679195      h
       -5.96571527242100      -11.24969239362301        6.68248397219494      h
      -12.19788245530399        0.05636511100296        7.01992157656199      o
      -13.13218082689301        0.86342723551699        5.67878791692599      h
      -13.15664209815100       -1.42844662410501        7.54195591057700      h
       13.63281261197800      -11.32508687674899        1.44446482413097      o
       12.53212129296700      -10.52640042979200        0.16532515569500      h
       13.93141724721899      -10.02049544192399        2.70247536543795      h
       18.96773612380800       -4.35038033796094        6.77412308023198      o
       18.27847832917100       -3.52000152557602        5.25777334857501      h
       20.45818509869500       -5.21763172136302        6.20320493023503      h
       15.78285515651200       -6.33395080147597       11.00516136521103      o
       16.68297808299600       -5.69752756779504        9.54150075571997      h
       13.99094127022799       -6.27328123169895       10.61771702283705      h
      -20.62116321835100       -5.77219148702601        3.12801961709402      o
      -20.19638674250701       -5.97339633226102        4.91445588799498      h
      -20.53445370233799       -7.42905622418499        2.36482682513598      h
       -7.03178146581702        4.55729669430601       13.57437321796504      o
       -8.65736547428398        4.29868952664392       12.78765962902501      h
       -6.25180402101901        5.94241622684198       12.65523467278206      h
       -7.34335923977500       -7.80500218546803       11.35374023082493      o
       -6.42058005667100       -8.65731942052804        9.98764258464199      h
       -9.04431737335001       -8.47968092279696       11.31460917821802      h
       -7.85301409342500      -14.09393449843300        5.76231492808303      o
       -7.74523902614400      -14.46308596272600        3.93571353028306      h
       -7.42957442540101      -15.63286099255299        6.61000480859708      h
      -17.11961099367700      -10.06523098158101        4.80938317417497      o
      -15.65964723805401      -11.13822495509300        5.10854416571093      h
      -17.80855928862099      -10.51699636412901        3.17439777589796      h
       10.46708286992501       -8.90647458736197      -10.56851768384799      o
       12.31200647057300       -8.91018761066901      -10.60527833130996      h
        9.97791645506500       -7.50305528567096      -11.65506919080402      h
       11.28824237420899        9.88690010810395       11.44554532048498      o
       10.05228470985300        8.61778552029992       11.91029015324704      h
       10.48068896989302       10.92868943007907       10.18437997146704      h
        8.95002531514701       12.36424712486704        7.35053215344108      o
        9.03831687967799       13.44444789747799        5.85788032237093      h
        7.32318044127602       12.75192411556007        8.10453266245796      h
      -19.09334993741000       -6.59949113591902        7.95937729108000      o
      -18.67247484179500       -8.31083890377300        7.48786742177798      h
      -17.46297880203700       -5.72877505507301        8.17950615413800      h
        7.84823806884701        5.91838561146797       12.10500522187997      o
        6.64908601930502        5.45082778934998       13.40460559151800      h
        8.38225083216900        4.33678449807204       11.32185796608101      h
        7.94062844367101      -13.24063516126899       -3.27972674241505      o
        6.15922155120602      -13.50730195719299       -3.59261661923997      h
        8.83014036638700      -13.53924493316301       -4.87873160706111      h
      -14.98611260279799        7.01299157941899        0.48165015178491      o
      -14.48497459660300        6.51852454714296       -1.23048165561797      h
      -13.53591867874299        6.52858388472699        1.50566276789699      h
      -12.26580966309899       -8.84277238708298        9.80575038579698      o
      -12.94770527913501      -10.39642286518503        9.17168012491701      h
      -11.54182452870301       -7.98232495950402        8.30941333231095      h
       -1.52155817239798      -14.44657199347498        6.88172967409800      o
       -3.03575093003798      -13.62837612976797        7.47247812519400      h
       -0.57465779349599      -13.05990041749001        6.07159545461198      h
        3.38015828930403      -13.66426790788404        8.67254849178496      o
        4.09626852049501      -13.66793824058101        6.96399030959902      h
        1.90348476047500      -14.72178520671900        8.56555726941091      h
       13.38775529300001       -7.09025043007299       -5.36411525676702      o
       12.49785139104399       -5.86850854626698       -6.43398715432298      h
       14.68472073629902       -6.19177063579799       -4.41357549887905      h
       13.59370051558900       -2.95493439721893        7.18549987333202      o
       14.37675904686500       -1.43364056365511        6.47092781084402      h
       13.59253657158300       -2.61920142562395        8.99076544861398      h
       -3.95460396654200       -3.93942324392399       12.04408417077499      o
       -4.80748765205801       -2.58488602439203       12.97756034017800      h
       -5.01939960439700       -5.41849715046298       12.16244498922698      h
       -3.19734675031199       11.91220966052098      -11.36672317268508      o
       -4.84343881122199       11.70103194003496      -10.61399823662094      h
       -3.08822980261900       10.75979267419805      -12.77513716802604      h
       18.94649134412902       -7.36910809168203        1.41214387122401      o
       19.23611324530501       -8.95903273942604        0.57645446593808      h
       20.56163460708800       -6.70217286472198        2.00155815898098      h
       -0.80970433385600       10.87163821381896       10.04330821471804      o
       -0.36150299372301        9.32003822481000        9.15256023378596      h
       -1.18608811931903       12.10153395442602        8.71690235139694      h
       -7.70400654140000        5.01376856991206       -6.63279811041000      o
       -9.35711104914100        4.54592427630000       -7.26051155297205      h
       -7.94066269778900        6.09534118491805       -5.14802342583696      h
        1.88774217357700      -15.62172854328600        0.65967984584196      o
        3.15797533835801      -15.08723866800301        1.92016545325496      h
        2.73389496555501      -15.77538553867600       -0.94671482803303      h
      -11.28329570907900       13.26761085387503       -1.28842152041803      o
      -10.74866452160098       11.93458686660101       -0.10014046521999      h
      -13.11147214470304       13.17375064642800       -1.25409345008503      h
      -12.76872315034901      -12.57461164638901        5.22938668604202      o
      -11.07575066434300      -12.99342177798800        5.80001039462696      h
      -12.66261863198701      -12.68026020638200        3.39432309959797      h
      -16.40916841022201       -0.83193196208001       12.24237157583099      o
      -14.86720350965200       -0.85090093648401       13.25503967139500      h
      -16.52932686393199        0.84961807013396       11.47650569414099      h
       -6.80255795685603       13.10564677949299        6.06401318643205      o
       -7.76495312723800       14.19299827944199        4.91601879925804      h
       -7.93526131999701       12.65329479010498        7.44511765452714      h
      -11.44630917889400       -1.01197924548000       13.78844579678299      o
      -10.78942893199902       -1.99556883302198       12.36813047257500      h
      -11.38182191105500        0.73211327183598       13.18862720329299      h
      -18.85120197814200        6.04430168333399       -4.72766717715699      o
      -18.14660003530800        7.79001181664504       -4.93363480112497      h
      -19.03224725775301        5.34841194971199       -6.38761994780401      h
      -16.95553449141000        3.67068833475600        9.88460527007500      o
      -18.70344786357601        4.02498895549695        9.41660599663696      h
      -16.01029715865000        4.51818557981897        8.53989486188404      h
       -0.33110647233802       13.99026876873000        1.10120114628508      o
       -1.51213092943605       14.97177785133900        0.08801000821487      h
        0.82510883328600       13.17436684543100       -0.07497682874700      h
       19.01897494820500        6.77921747733499       -5.91588070526698      o
       18.03112818472200        7.42892943963604       -7.30594486391998      h
       18.01882254067399        7.20198179509800       -4.43489256227697      h
      -11.26654591998198       -6.81545015464194      -10.50947621823404      o
      -11.44720139372598       -6.13979687978301      -12.18137100921502      h
       -9.63725259074798       -7.67038486007504      -10.42147327891602      h
      -16.11814440760400       11.80443365688099       -0.29038817824503      o
      -17.06419383270597       12.36250352896900        1.15071760283092      h
      -15.64616720057099       10.04715731341100        0.12783581327695      h
      -18.94602939759699       -9.74600510063501       -0.07241093598801      o
      -20.34558945201100       -9.11739649999299       -1.07970010767307      h
      -17.46640008699500       -8.80986291493300       -0.67088885773399      h
      -20.64897392227300       -1.86695950748101        9.08188577604401      o
      -20.67867118855400       -3.69420246837500        9.06594150833300      h
      -19.64213484173501       -1.37802504344200       10.52147154452598      h
      -21.14525338012403        5.05468031506098        7.32089153868797      o
      -20.43207240462300        5.38314800772099        5.65936936367996      h
      -22.36232833077501        3.72698237921298        7.02168674878403      h
      -14.50862752889298       -9.72228071383896       -7.05830438896799      o
      -15.96383422957403       -8.83384974743600       -6.30134886843000      h
      -13.99928610178799       -8.75236024352198       -8.51508487061601      h
      -17.10397595259502        1.14963181373300      -11.32720218892199      o
      -16.82507829380300        0.77159509764297       -9.52978437773399      h
      -18.44792821010500        0.04886802222003      -11.83805499352001      h
        8.47457652961098        1.37087875809302        9.65184448628799      o
        8.88495650550101        0.28201013040495       11.09165778476599      h
        6.60826121628900        1.42984123561897        9.59427268095400      h
        9.24039989926999       -1.59027460288101       13.63708602293297      o
        9.17139144395600       -3.22105294018102       12.79369598856199      h
        7.69982326356999       -1.41246389064408       14.60055624045499      h
        2.66049257407600       -0.52786993038998      -14.31304253304501      o
        2.71120328526599       -0.56953541767794      -12.44478786068800      h
        4.40524649339600       -0.67131561737894      -14.79840410281400      h
        5.85807233761300       -4.42334989753698       -9.27312788761899      o
        5.41494658897499       -4.95828214632696      -10.98173802234101      h
        7.63046460669902       -3.93186083884297       -9.27361349522100      h
       -4.44277732569199       -5.02645519726199       -6.98434593712499      o
       -5.71645695073901       -4.91455113755299       -5.65785750355200      h
       -3.06348219725101       -6.00632558398303       -6.19976600317303      h
       17.49994246237999        2.16127598623602       10.86471473717500      o
       16.36264159026801        0.92841544967395       11.61824226592799      h
       16.78433453584200        3.81920655641895       11.19189016871199      h
       16.76629830560000       -4.70575907608001       -2.34701479670501      o
       17.83434887130300       -3.25693479855900       -2.71497855595702      h
       17.53606057165000       -5.60164818363501       -0.94133242308998      h
        4.24139724465901       -1.40706826876909       15.81644333847601      o
        2.44502537750798       -1.27159675549909       16.15969150072700      h
        4.42680358430400       -3.12094710437911       15.20183135685003      h
       10.19806973470502       -9.24596987614310        7.25011044749003      o
       11.80880134550799      -10.11630673642297        7.49884902858394      h
       10.20059195684301       -8.56051849450204        5.52973457551799      h
        4.01557706410105       12.78396286151795        8.84494471417803      o
        4.16935966560599       10.93018745004300        8.81809104627802      h
        2.49511398619099       13.10378406887708        9.79030465292504      h
       14.22926682809499       -1.53287084482798       12.19860173337797      o
       12.65055975685699       -1.44339433916709       13.11461244687600      h
       15.00284330452901       -3.15801776478499       12.55229376409701      h
       -1.37772994667201        4.40388830143593       14.73972960251501      o
       -1.87937090078299        4.07519084096706       12.95582276834802      h
       -2.82535276969402        5.18155800043296       15.49842070216698      h
        6.40027482360099      -10.06780735438298       10.56389314669302      o
        5.29334142325000      -11.49762394457397       10.24563959097598      h
        7.86576569900201      -10.33068376993401        9.48939128053202      h
       15.65738894864800        1.48822692475496        6.14574225014900      o
       16.56351455597300        1.69757771960904        7.74143827816801      h
       14.20589125144900        2.61547209511601        6.25570659536699      h
       17.37800241397399        7.01991127131998        5.99933234564903      o
       18.51804898022299        5.60384356311894        5.64954506737502      h
       16.84698289000601        6.84677791351006        7.76490403858200      h
       -0.42291801881300      -10.01501845374094       10.42274513534502      o
        0.85419955630700      -11.09383239635109        9.68162389215300      h
[...]
   382   8 o      384   1 h                                       0.9861764
   385   8 o      386   1 h                                       0.9664877
   385   8 o      387   1 h                                       0.9784769
   388   8 o      389   1 h                                       0.9733893
   388   8 o      390   1 h                                       0.9630224
   391   8 o      392   1 h                                       0.9586560
   391   8 o      393   1 h                                       0.9828993
   394   8 o      395   1 h                                       0.9913220
   394   8 o      396   1 h                                       0.9618307
   397   8 o      398   1 h                                       0.9699289
   397   8 o      399   1 h                                       0.9783199
   400   8 o      401   1 h                                       0.9946404
   400   8 o      402   1 h                                       0.9691238
   403   8 o      404   1 h                                       0.9737626
   403   8 o      405   1 h                                       0.9746824
   406   8 o      407   1 h                                       0.9781456
   406   8 o      408   1 h                                       0.9626702
   409   8 o      410   1 h                                       0.9719940
   409   8 o      411   1 h                                       0.9747578
   412   8 o      413   1 h                                       0.9823215
   412   8 o      414   1 h                                       0.9744373
   415   8 o      416   1 h                                       0.9735871
   415   8 o      417   1 h                                       0.9864891
   418   8 o      419   1 h                                       0.9648396
   418   8 o      420   1 h                                       0.9711460
   421   8 o      422   1 h                                       0.9791841
   421   8 o      423   1 h                                       0.9675449
   424   8 o      425   1 h                                       0.9582314
   424   8 o      426   1 h                                       0.9795500
   427   8 o      428   1 h                                       0.9710414
   427   8 o      429   1 h                                       0.9676706
   430   8 o      431   1 h                                       0.9641708
   430   8 o      432   1 h                                       0.9705273
   433   8 o      434   1 h                                       0.9896764
   433   8 o      435   1 h                                       0.9696052
   436   8 o      437   1 h                                       0.9646282
   436   8 o      438   1 h                                       0.9752388
   439   8 o      440   1 h                                       0.9879641
   439   8 o      441   1 h                                       0.9719755
   442   8 o      443   1 h                                       0.9848843
   442   8 o      444   1 h                                       0.9612270
   445   8 o      446   1 h                                       0.9696454
   445   8 o      447   1 h                                       0.9706832
   448   8 o      449   1 h                                       0.9775142
   448   8 o      450   1 h                                       0.9664090
   451   8 o      452   1 h                                       0.9654142
   451   8 o      453   1 h                                       0.9716906
   454   8 o      455   1 h                                       0.9820750
   454   8 o      456   1 h                                       0.9685507
   457   8 o      458   1 h                                       0.9877857
   457   8 o      459   1 h                                       0.9563587
   460   8 o      461   1 h                                       0.9717728
   460   8 o      462   1 h                                       0.9688308
   463   8 o      464   1 h                                       0.9764874
   463   8 o      465   1 h                                       0.9742416
   466   8 o      467   1 h                                       0.9691648
   466   8 o      468   1 h                                       0.9653687
   469   8 o      470   1 h                                       0.9761332
   469   8 o      471   1 h                                       0.9707821
   472   8 o      473   1 h                                       0.9653923
   472   8 o      474   1 h                                       0.9849968
   475   8 o      476   1 h                                       0.9679080
   475   8 o      477   1 h                                       0.9757477
   478   8 o      479   1 h                                       0.9674573
   478   8 o      480   1 h                                       0.9810803
   481   8 o      482   1 h                                       0.9796259
   481   8 o      483   1 h                                       0.9737890
   484   8 o      485   1 h                                       0.9585059
   484   8 o      486   1 h                                       0.9905018
   487   8 o      488   1 h                                       0.9629293
   487   8 o      489   1 h                                       0.9865709
   490   8 o      491   1 h                                       0.9803355
   490   8 o      492   1 h                                       0.9628052
   493   8 o      494   1 h                                       0.9799369
   493   8 o      495   1 h                                       0.9747369
   496   8 o      497   1 h                                       0.9812106
   496   8 o      498   1 h                                       0.9716856
   499   8 o      500   1 h                                       0.9805584
   499   8 o      501   1 h                                       0.9664490
   502   8 o      503   1 h                                       0.9643245
   502   8 o      504   1 h                                       0.9647297
   505   8 o      506   1 h                                       0.9627708
   505   8 o      507   1 h                                       0.9758837
   508   8 o      509   1 h                                       0.9760099
   508   8 o      510   1 h                                       0.9777129
   511   8 o      512   1 h                                       0.9679254
   511   8 o      513   1 h                                       0.9801016
   514   8 o      515   1 h                                       0.9883008
   514   8 o      516   1 h                                       0.9642198
   517   8 o      518   1 h                                       0.9864289
   517   8 o      519   1 h                                       0.9688739
   520   8 o      521   1 h                                       0.9710322
   520   8 o      522   1 h                                       0.9743012
   523   8 o      524   1 h                                       0.9762585
   523   8 o      525   1 h                                       0.9798498
   526   8 o      527   1 h                                       0.9795397
   526   8 o      528   1 h                                       0.9750497
   529   8 o      530   1 h                                       0.9780816
   529   8 o      531   1 h                                       0.9765865
   532   8 o      534   1 h                                       0.9572820
   535   8 o      536   1 h                                       0.9757193
   535   8 o      537   1 h                                       0.9786162
   538   8 o      539   1 h                                       0.9735618
   538   8 o      540   1 h                                       0.9737328
   541   8 o      542   1 h                                       0.9656934
   541   8 o      543   1 h                                       0.9717805
   544   8 o      545   1 h                                       0.9590199
   544   8 o      546   1 h                                       0.9747863
   547   8 o      548   1 h                                       0.9588536
   547   8 o      549   1 h                                       0.9879746
   550   8 o      551   1 h                                       0.9712311
   550   8 o      552   1 h                                       0.9791697
   553   8 o      554   1 h                                       0.9670999
   553   8 o      555   1 h                                       0.9649601
   556   8 o      557   1 h                                       0.9724738
   556   8 o      558   1 h                                       0.9661763
   559   8 o      560   1 h                                       0.9871557
   559   8 o      561   1 h                                       0.9645529
   562   8 o      563   1 h                                       0.9831035
   562   8 o      564   1 h                                       0.9582141
   565   8 o      566   1 h                                       0.9796369
   565   8 o      567   1 h                                       0.9885739
   568   8 o      569   1 h                                       0.9722337
   568   8 o      570   1 h                                       0.9661316
   571   8 o      572   1 h                                       0.9892478
   571   8 o      573   1 h                                       0.9613447
   574   8 o      575   1 h                                       0.9760217
   574   8 o      576   1 h                                       0.9733030
   577   8 o      578   1 h                                       0.9749441
   577   8 o      579   1 h                                       0.9869073
   580   8 o      581   1 h                                       0.9730535
   580   8 o      582   1 h                                       0.9711336
   583   8 o      584   1 h                                       0.9721925
   583   8 o      585   1 h                                       0.9715980
   586   8 o      587   1 h                                       0.9704487
   586   8 o      588   1 h                                       0.9684817
   589   8 o      590   1 h                                       0.9777348
   589   8 o      591   1 h                                       0.9799847
   592   8 o      593   1 h                                       0.9844480
   592   8 o      594   1 h                                       0.9624335
   595   8 o      596   1 h                                       0.9670195
   595   8 o      597   1 h                                       0.9706647
   598   8 o      599   1 h                                       0.9959236
   598   8 o      600   1 h                                       0.9577954
   601   8 o      602   1 h                                       0.9715790
   601   8 o      603   1 h                                       0.9716308
   604   8 o      605   1 h                                       0.9773515
   604   8 o      606   1 h                                       0.9742640
   607   8 o      608   1 h                                       0.9796649
   607   8 o      609   1 h                                       0.9799357
   610   8 o      611   1 h                                       0.9677044
   610   8 o      612   1 h                                       0.9699924
   613   8 o      614   1 h                                       0.9955002
   613   8 o      615   1 h                                       0.9569667
   616   8 o      617   1 h                                       0.9761616
   616   8 o      618   1 h                                       0.9654417
   619   8 o      620   1 h                                       0.9730151
   619   8 o      621   1 h                                       0.9614307
   622   8 o      623   1 h                                       0.9744628
   622   8 o      624   1 h                                       0.9635596
   625   8 o      626   1 h                                       0.9562564
   628   8 o      629   1 h                                       0.9571918
   628   8 o      630   1 h                                       0.9771071
   631   8 o      632   1 h                                       0.9911923
   631   8 o      633   1 h                                       0.9733213
   634   8 o      635   1 h                                       0.9574399
   634   8 o      636   1 h                                       0.9790383
   637   8 o      638   1 h                                       0.9719011
   637   8 o      639   1 h                                       0.9674976
   640   8 o      641   1 h                                       0.9606373
   640   8 o      642   1 h                                       0.9817220
   643   8 o      644   1 h                                       0.9566860
   643   8 o      645   1 h                                       0.9997281 (max)
   646   8 o      647   1 h                                       0.9663900
   646   8 o      648   1 h                                       0.9734509
   649   8 o      650   1 h                                       0.9671387
   649   8 o      651   1 h                                       0.9773015
   652   8 o      653   1 h                                       0.9670666
   652   8 o      654   1 h                                       0.9874258
   655   8 o      656   1 h                                       0.9569903
   655   8 o      657   1 h                                       0.9780048
   658   8 o      659   1 h                                       0.9739087
   658   8 o      660   1 h                                       0.9800324
   661   8 o      662   1 h                                       0.9776323
   661   8 o      663   1 h                                       0.9786516
   664   8 o      665   1 h                                       0.9622614
   664   8 o      666   1 h                                       0.9710409
   667   8 o      668   1 h                                       0.9660846
   667   8 o      669   1 h                                       0.9671214
   670   8 o      671   1 h                                       0.9812436
   670   8 o      672   1 h                                       0.9764063
   673   8 o      674   1 h                                       0.9585680
   673   8 o      675   1 h                                       0.9777505
   676   8 o      677   1 h                                       0.9723153
   676   8 o      678   1 h                                       0.9742455
   679   8 o      680   1 h                                       0.9757495
   679   8 o      681   1 h                                       0.9795210
   682   8 o      683   1 h                                       0.9680457
   682   8 o      684   1 h                                       0.9679655
   685   8 o      686   1 h                                       0.9700894
   685   8 o      687   1 h                                       0.9695375
   688   8 o      689   1 h                                       0.9736640
   688   8 o      690   1 h                                       0.9704055
   691   8 o      692   1 h                                       0.9692967
   691   8 o      693   1 h                                       0.9796982
   694   8 o      695   1 h                                       0.9759334
   694   8 o      696   1 h                                       0.9826113
   697   8 o      698   1 h                                       0.9793765
   697   8 o      699   1 h                                       0.9687968
   700   8 o      701   1 h                                       0.9801334
   700   8 o      702   1 h                                       0.9627353
   703   8 o      704   1 h                                       0.9762732
   703   8 o      705   1 h                                       0.9750734
   706   8 o      707   1 h                                       0.9725033
   706   8 o      708   1 h                                       0.9758228
   709   8 o      710   1 h                                       0.9841206
   709   8 o      711   1 h                                       0.9792711
   712   8 o      713   1 h                                       0.9694438
   712   8 o      714   1 h                                       0.9801990
   715   8 o      716   1 h                                       0.9740932
   715   8 o      717   1 h                                       0.9752350
   718   8 o      719   1 h                                       0.9725919
   718   8 o      720   1 h                                       0.9768932
   721   8 o      722   1 h                                       0.9705848
   721   8 o      723   1 h                                       0.9742200
   724   8 o      725   1 h                                       0.9705250
   724   8 o      726   1 h                                       0.9670742
   727   8 o      728   1 h                                       0.9670744
   727   8 o      729   1 h                                       0.9787955
   730   8 o      731   1 h                                       0.9559033 (min)
   730   8 o      732   1 h                                       0.9867005
   733   8 o      734   1 h                                       0.9882334
   733   8 o      735   1 h                                       0.9601260
   736   8 o      737   1 h                                       0.9904175
   736   8 o      738   1 h                                       0.9641325
   739   8 o      740   1 h                                       0.9610558
   739   8 o      741   1 h                                       0.9926019
   742   8 o      743   1 h                                       0.9705625
   742   8 o      744   1 h                                       0.9676404
   745   8 o      746   1 h                                       0.9810173
   745   8 o      747   1 h                                       0.9642549
   748   8 o      749   1 h                                       0.9760689
   748   8 o      750   1 h                                       0.9694085
   751   8 o      752   1 h                                       0.9733331
   751   8 o      753   1 h                                       0.9612253
   754   8 o      755   1 h                                       0.9632307
   754   8 o      756   1 h                                       0.9638965

 * 1 distinct bonds (by element types)

   Z      Z             #   av. dist./Å        max./Å        min./Å
   1 H    8 O         502     0.9737191     0.9997281     0.9559033


optimized geometry written to: xtbopt.coord


           -------------------------------------------------
          | TOTAL ENERGY            -1283.355977515021 Eh   |
          | GRADIENT NORM               0.007841387213 Eh/α |
          | HOMO-LUMO GAP               8.072987279873 eV   |
           -------------------------------------------------

------------------------------------------------------------------------
 * finished run on 2022/11/24 at 09:12:55.247     
------------------------------------------------------------------------
 total:
 * wall-time:     0 d,  0 h,  5 min,  2.881 sec
 *  cpu-time:     0 d,  0 h,  7 min, 29.604 sec
 * ratio c/w:     1.484 speedup
 SCF:
 * wall-time:     0 d,  0 h,  0 min, 21.376 sec
 *  cpu-time:     0 d,  0 h,  0 min, 34.533 sec
 * ratio c/w:     1.616 speedup
 ANC optimizer:
 * wall-time:     0 d,  0 h,  4 min, 40.478 sec
 *  cpu-time:     0 d,  0 h,  6 min, 53.327 sec
 * ratio c/w:     1.474 speedup

