      -----------------------------------------------------------      
     |                   =====================                   |     
     |                           x T B                           |     
     |                   =====================                   |     
     |                         S. Grimme                         |     
     |          Mulliken Center for Theoretical Chemistry        |     
     |                    University of Bonn                     |     
      -----------------------------------------------------------      

   * xtb version 6.5.1 (579679a) compiled by 'ehlert@majestix' on 2022-07-11

   xtb is free software: you can redistribute it and/or modify it under
   the terms of the GNU Lesser General Public License as published by
   the Free Software Foundation, either version 3 of the License, or
   (at your option) any later version.
   
   xtb is distributed in the hope that it will be useful,
   but WITHOUT ANY WARRANTY; without even the implied warranty of
   MERCHANTABILITY or FITNESS FOR A PARTICULAR PURPOSE.  See the
   GNU Lesser General Public License for more details.
   
   Cite this work as:
   * C. Bannwarth, E. Caldeweyher, S. Ehlert, A. Hansen, P. Pracht,
     J. Seibert, S. Spicher, S. Grimme, WIREs Comput. Mol. Sci., 2020, 11,
     e01493. DOI: 10.1002/wcms.1493
   
   for GFN2-xTB:
   * C. Bannwarth, S. Ehlert and S. Grimme., J. Chem. Theory Comput., 2019,
     15, 1652-1671. DOI: 10.1021/acs.jctc.8b01176
   for GFN1-xTB:
   * S. Grimme, C. Bannwarth, P. Shushkov, J. Chem. Theory Comput., 2017,
     13, 1989-2009. DOI: 10.1021/acs.jctc.7b00118
   for GFN0-xTB:
   * P. Pracht, E. Caldeweyher, S. Ehlert, S. Grimme, ChemRxiv, 2019, preprint.
     DOI: 10.26434/chemrxiv.8326202.v1
   for GFN-FF:
   * S. Spicher and S. Grimme, Angew. Chem. Int. Ed., 2020, 59, 15665-15673.
     DOI: 10.1002/anie.202004239
   
   for ALPB and GBSA implicit solvation:
   * S. Ehlert, M. Stahn, S. Spicher, S. Grimme, J. Chem. Theory Comput.,
     2021, 17, 4250-4261. DOI: 10.1021/acs.jctc.1c00471
   
   for DFT-D4:
   * E. Caldeweyher, C. Bannwarth and S. Grimme, J. Chem. Phys., 2017,
     147, 034112. DOI: 10.1063/1.4993215
   * E. Caldeweyher, S. Ehlert, A. Hansen, H. Neugebauer, S. Spicher,
     C. Bannwarth and S. Grimme, J. Chem. Phys., 2019, 150, 154122.
     DOI: 10.1063/1.5090222
   * E. Caldeweyher, J.-M. Mewes, S. Ehlert and S. Grimme, Phys. Chem. Chem. Phys.
     2020, 22, 8499-8512. DOI: 10.1039/D0CP00502A
   
   for sTDA-xTB:
   * S. Grimme and C. Bannwarth, J. Chem. Phys., 2016, 145, 054103.
     DOI: 10.1063/1.4959605
   
   in the mass-spec context:
   * V. Asgeirsson, C. Bauer and S. Grimme, Chem. Sci., 2017, 8, 4879.
     DOI: 10.1039/c7sc00601b
   * J. Koopman and S. Grimme, ACS Omega 2019, 4, 12, 15120-15133.
     DOI: 10.1021/acsomega.9b02011
   
   for metadynamics refer to:
   * S. Grimme, J. Chem. Theory Comput., 2019, 155, 2847-2862
     DOI: 10.1021/acs.jctc.9b00143
   
   for SPH calculations refer to:
   * S. Spicher and S. Grimme, J. Chem. Theory Comput., 2021, 17, 1701-1714
     DOI: 10.1021/acs.jctc.0c01306
   
   with help from (in alphabetical order)
   P. Atkinson, C. Bannwarth, F. Bohle, G. Brandenburg, E. Caldeweyher
   M. Checinski, S. Dohm, S. Ehlert, S. Ehrlich, I. Gerasimov, C. Hölzer
   A. Katbashev, J. Koopman, C. Lavigne, S. Lehtola, F. März, M. Müller,
   F. Musil, H. Neugebauer, J. Pisarek, C. Plett, P. Pracht, F. Pultar,
   J. Seibert, P. Shushkov, S. Spicher, M. Stahn, M. Steiner, T. Strunk,
   J. Stückrath, T. Rose, and J. Unsleber
   
 * started run on 2022/11/24 at 09:28:10.076     

           -------------------------------------------------
          |                Calculation Setup                |
           -------------------------------------------------

          program call               : xtb solvent_cluster.coord --gfn2 --sp --lmo --chrg 0
          hostname                   : cn0341
          coordinate file            : solvent_cluster.coord
          omp threads                :                     2

   ID    Z sym.   atoms
    1    8 o      1, 4, 7, 10, 13, 16, 19, 22, 25, 28, 31, 34, 37, 40, 43,
                  46, 49, 52, 55, 58, 61, 64, 67, 70, 73, 76, 79, 82, 85, 88,
                  91, 94, 97, 100, 103, 106, 109, 112, 115, 118, 121, 124,
                  127, 130, 133, 136, 139, 142, 145, 148, 151, 154, 157, 160,
                  163, 166, 169, 172, 175, 178, 181, 184, 187, 190, 193, 196,
                  199, 202, 205, 208, 211, 214, 217, 220, 223, 226, 229, 232,
                  235, 238, 241, 244, 247, 250, 253, 256, 259, 262, 265, 268,
                  271, 274, 277, 280, 283, 286, 289, 292, 295, 298, 301, 304,
                  307, 310, 313, 316, 319, 322, 325, 328, 331, 334, 337, 340,
                  343, 346, 349, 352, 355, 358, 361, 364, 367, 370, 373, 376,
                  379, 382, 385, 388, 391, 394, 397, 400, 403, 406, 409, 412,
                  415, 418, 421, 424, 427, 430, 433, 436, 439, 442, 445, 448,
                  451, 454, 457, 460, 463, 466, 469, 472, 475, 478, 481, 484,
                  487, 490, 493, 496, 499, 502, 505, 508, 511, 514, 517, 520,
                  523, 526, 529, 532, 535, 538, 541, 544, 547, 550, 553, 556,
                  559, 562, 565, 568, 571, 574, 577, 580, 583, 586, 589, 592,
                  595, 598, 601, 604, 607, 610, 613, 616, 619, 622, 625, 628,
                  631, 634, 637, 640, 643, 646, 649, 652, 655, 658, 661, 664,
                  667, 670, 673, 676, 679, 682, 685, 688, 691, 694, 697, 700,
                  703, 706, 709, 712, 715, 718, 721, 724, 727, 730, 733, 736,
                  739, 742, 745, 748, 751, 754
    2    1 h      2, 3, 5, 6, 8, 9, 11, 12, 14, 15, 17, 18, 20, 21, 23, 24,
                  26, 27, 29, 30, 32, 33, 35, 36, 38, 39, 41, 42, 44, 45, 47,
                  48, 50, 51, 53, 54, 56, 57, 59, 60, 62, 63, 65, 66, 68, 69,
                  71, 72, 74, 75, 77, 78, 80, 81, 83, 84, 86, 87, 89, 90, 92,
                  93, 95, 96, 98, 99, 101, 102, 104, 105, 107, 108, 110, 111,
                  113, 114, 116, 117, 119, 120, 122, 123, 125, 126, 128, 129,
                  131, 132, 134, 135, 137, 138, 140, 141, 143, 144, 146, 147,
                  149, 150, 152, 153, 155, 156, 158, 159, 161, 162, 164, 165,
                  167, 168, 170, 171, 173, 174, 176, 177, 179, 180, 182, 183,
                  185, 186, 188, 189, 191, 192, 194, 195, 197, 198, 200, 201,
                  203, 204, 206, 207, 209, 210, 212, 213, 215, 216, 218, 219,
                  221, 222, 224, 225, 227, 228, 230, 231, 233, 234, 236, 237,
                  239, 240, 242, 243, 245, 246, 248, 249, 251, 252, 254, 255,
                  257, 258, 260, 261, 263, 264, 266, 267, 269, 270, 272, 273,
                  275, 276, 278, 279, 281, 282, 284, 285, 287, 288, 290, 291,
                  293, 294, 296, 297, 299, 300, 302, 303, 305, 306, 308, 309,
                  311, 312, 314, 315, 317, 318, 320, 321, 323, 324, 326, 327,
                  329, 330, 332, 333, 335, 336, 338, 339, 341, 342, 344, 345,
                  347, 348, 350, 351, 353, 354, 356, 357, 359, 360, 362, 363,
                  365, 366, 368, 369, 371, 372, 374, 375, 377, 378, 380, 381,
                  383, 384, 386, 387, 389, 390, 392, 393, 395, 396, 398, 399,
                  401, 402, 404, 405, 407, 408, 410, 411, 413, 414, 416, 417,
                  419, 420, 422, 423, 425, 426, 428, 429, 431, 432, 434, 435,
                  437, 438, 440, 441, 443, 444, 446, 447, 449, 450, 452, 453,
                  455, 456, 458, 459, 461, 462, 464, 465, 467, 468, 470, 471,
                  473, 474, 476, 477, 479, 480, 482, 483, 485, 486, 488, 489,
                  491, 492, 494, 495, 497, 498, 500, 501, 503, 504, 506, 507,
                  509, 510, 512, 513, 515, 516, 518, 519, 521, 522, 524, 525,
                  527, 528, 530, 531, 533, 534, 536, 537, 539, 540, 542, 543,
                  545, 546, 548, 549, 551, 552, 554, 555, 557, 558, 560, 561,
                  563, 564, 566, 567, 569, 570, 572, 573, 575, 576, 578, 579,
                  581, 582, 584, 585, 587, 588, 590, 591, 593, 594, 596, 597,
                  599, 600, 602, 603, 605, 606, 608, 609, 611, 612, 614, 615,
                  617, 618, 620, 621, 623, 624, 626, 627, 629, 630, 632, 633,
                  635, 636, 638, 639, 641, 642, 644, 645, 647, 648, 650, 651,
                  653, 654, 656, 657, 659, 660, 662, 663, 665, 666, 668, 669,
                  671, 672, 674, 675, 677, 678, 680, 681, 683, 684, 686, 687,
                  689, 690, 692, 693, 695, 696, 698, 699, 701, 702, 704, 705,
                  707, 708, 710, 711, 713, 714, 716, 717, 719, 720, 722, 723,
                  725, 726, 728, 729, 731, 732, 734, 735, 737, 738, 740, 741,
                  743, 744, 746, 747, 749, 750, 752, 753, 755, 756

molecular fragmentation (1/2 indicates fragments):
111222222222222222222222222222222222222222222222222222222222222222222222
222222222222222222222222222222222222222222222222222222222222222222222222
222222222222222222222222222222222222222222222222222222222222222222222222
222222222222222222222222222222222222222222222222222222222222222222222222
222222222222222222222222222222222222222222222222222222222222222222222222
222222222222222222222222222222222222222222222222222222222222222222222222
222222222222222222222222222222222222222222222222222222222222222222222222
222222222222222222222222222222222222222222222222222222222222222222222222
222222222222222222222222222222222222222222222222222222222222222222222222
222222222222222222222222222222222222222222222222222222222222222222222222
222222222222222222222222222222222222
# atoms in fragment 1/2:     3   753
 fragment masses (1/2) :       18.02     4521.84
CMA distance (Bohr)    :  14.519
constraining FC (au)   :  0.0500

           -------------------------------------------------
          |                 G F N 2 - x T B                 |
           -------------------------------------------------

        Reference                      10.1021/acs.jctc.8b01176
      * Hamiltonian:
        H0-scaling (s, p, d)           1.850000    2.230000    2.230000
        zeta-weighting                 0.500000
      * Dispersion:
        s8                             2.700000
        a1                             0.520000
        a2                             5.000000
        s9                             5.000000
      * Repulsion:
        kExp                           1.500000    1.000000
        rExp                           1.000000
      * Coulomb:
        alpha                          2.000000
        third order                    shell-resolved
        anisotropic                    true
        a3                             3.000000
        a5                             4.000000
        cn-shift                       1.200000
        cn-exp                         4.000000
        max-rad                        5.000000


          ...................................................
          :                      SETUP                      :
          :.................................................:
          :  # basis functions                1512          :
          :  # atomic orbitals                1512          :
          :  # shells                         1008          :
          :  # electrons                      2016          :
          :  max. iterations                   250          :
          :  Hamiltonian                  GFN2-xTB          :
          :  restarted?                      false          :
          :  GBSA solvation                  false          :
          :  PC potential                    false          :
          :  electronic temp.          300.0000000     K    :
          :  accuracy                    1.0000000          :
          :  -> integral cutoff          0.2500000E+02      :
          :  -> integral neglect         0.1000000E-07      :
          :  -> SCF convergence          0.1000000E-05 Eh   :
          :  -> wf. convergence          0.1000000E-03 e    :
          :  Broyden damping             0.4000000          :
          ...................................................

 iter      E             dE          RMSdq      gap      omega  full diag
   1  -1291.0241464 -0.129102E+04  0.407E+00    8.48       0.0  T
   2  -1291.0957616 -0.716153E-01  0.241E+00    8.32       1.0  T
   3  -1291.1264129 -0.306513E-01  0.207E-01    7.92       1.0  T
   4  -1291.1314644 -0.505149E-02  0.453E-02    8.08       1.0  T
   5  -1291.1315297 -0.652742E-04  0.304E-02    8.06       1.0  T
   6  -1291.1315672 -0.375439E-04  0.422E-03    8.08       1.0  T
   7  -1291.1315695 -0.228229E-05  0.768E-04    8.07       4.7  T
   8  -1291.1315695 -0.341306E-07  0.395E-04    8.07       9.2  T
   9  -1291.1315696 -0.152379E-07  0.658E-05    8.07      55.2  T

   *** convergence criteria satisfied after 9 iterations ***

         #    Occupation            Energy/Eh            Energy/eV
      -------------------------------------------------------------
         1        2.0000           -0.6884488             -18.7336
       ...           ...                  ...                  ...
      1002        2.0000           -0.4102042             -11.1622
      1003        2.0000           -0.4081556             -11.1065
      1004        2.0000           -0.4063212             -11.0566
      1005        2.0000           -0.4053008             -11.0288
      1006        2.0000           -0.4040387             -10.9945
      1007        2.0000           -0.4032151             -10.9720
      1008        2.0000           -0.4026886             -10.9577 (HOMO)
      1009                         -0.1060135              -2.8848 (LUMO)
      1010                         -0.0977979              -2.6612
      1011                         -0.0818362              -2.2269
      1012                         -0.0808152              -2.1991
      1013                         -0.0728633              -1.9827
       ...                                ...                  ...
      1512                          0.4367044              11.8833
      -------------------------------------------------------------
                  HL-Gap            0.2966751 Eh            8.0729 eV
             Fermi-level           -0.2543511 Eh           -6.9212 eV
 
 localization/xTB-IFF output generation
 averaging CT terms over           14  occ. levels
 averaging CT terms over            2  virt. levels
 dipole moment from electron density (au)
     X       Y       Z   
   2.0377  -1.4735  -1.5624  total (Debye):    7.525
cpu  time for init local    0.84 s
wall time for init local    0.46 s
 doing rotations ...
 initialization of trafo matrix to unity

 converged in     16 iterations, threshold :   0.99995610D-06
 doing transformations ...
 lmo centers(Z=2) and atoms on file <lmocent.coord>
 LMO Fii/eV  ncent    charge center   contributions...
    1 LP   *******   0.00   6.97066   1.65519  -1.78608   43O :113.95   79O : 37.13  526O : 36.98   19O : 35.44  715O : 35.22  406O : 35.16  583O : 34.87  127O : 34.75  427O : 34.04   10O : 33.87  415O : 32.76  490O : 32.16
  430O : 31.26   25O : 30.01  550O : 29.52  403O : 29.11  739O : 28.91  502O : 28.36  349O : 27.18  352O : 26.42  148O : 26.41  169O : 26.00  742O : 25.59  223O : 24.74
  730O : 23.86  334O : 22.62  733O : 22.37  478O : 22.32  244O : 22.08  598O : 21.42  265O : 21.36  289O : 21.29  370O : 21.28  280O : 20.90   37O : 20.52  151O : 20.30
  649O : 19.95   64O : 19.90  121O : 19.75   61O : 19.42  325O : 18.99  424O : 18.72  112O : 18.61  376O : 18.52  751O : 18.40  298O : 18.33  388O : 18.13  589O : 17.70
   82O : 17.30  103O : 17.05  622O : 16.71  436O : 16.26  487O : 16.14  319O : 16.08  529O : 16.01  517O : 15.80   97O : 15.71  664O : 14.93  193O : 14.86  694O : 14.81
  697O : 14.71  577O : 14.63  316O : 14.34  736O : 14.21  250O : 14.16  484O : 14.14  616O : 14.09  466O : 14.04  136O : 14.04   58O : 13.96  463O : 13.76   73O : 13.71
  271O : 13.68  691O : 13.62  178O : 13.61    1O : 13.54  556O : 13.28  355O : 13.00   31O : 12.71  667O : 12.64  373O : 12.56  592O : 12.32  754O : 12.24  199O : 12.14
  448O : 12.02  541O : 11.77   16O : 11.75  646O : 11.67  574O : 11.63  520O : 11.59  100O : 11.51  706O : 11.50  604O : 11.40  145O : 11.39  535O : 11.30  115O : 11.23
    7O : 11.11  571O : 11.00  634O : 10.91  619O : 10.80  475O : 10.73  532O : 10.69  628O : 10.66  451O : 10.63   46O : 10.54  361O : 10.37  643O : 10.20   76O : 10.16
  748O : 10.14  721O : 10.04  208O : 10.01  307O :  9.45  412O :  9.42   94O :  9.41  286O :  9.33  673O :  9.27  637O :  9.21  154O :  9.01   34O :  8.99  220O :  8.92
  277O :  8.80  493O :  8.67  709O :  8.66  346O :  8.63  118O :  8.58  586O :  8.43  625O :  8.31  712O :  8.20  445O :  8.08  142O :  8.06  514O :  8.05  505O :  8.03
  688O :  7.98  460O :  7.98   55O :  7.94  442O :  7.92  241O :  7.87   22O :  7.86  205O :  7.84  562O :  7.81  163O :  7.75  717H :  7.57  232O :  7.45  655O :  7.29
  421O :  7.23  565O :  7.20  670O :  7.20  499O :  7.07  262O :  6.99  217O :  6.96  559O :  6.88  292O :  6.75  367O :  6.68  631O :  6.66  661O :  6.54  538O :  6.40
  226O :  6.36  613O :  6.35  405H :  6.34  547O :  6.29  676O :  6.26  682O :  6.22  157O :  6.18  238O :  6.12  190O :  6.00  400O :  5.87  109O :  5.81   28O :  5.81
   40O :  5.75  133O :  5.51  313O :  5.33  511O :  5.21  652O :  5.18  610O :  5.14  247O :  5.10  181O :  5.05  679O :  5.05  211O :  5.02   85O :  5.00  418O :  4.94
  568O :  4.81  409O :  4.78  379O :  4.75  322O :  4.70   26H :  4.70  184O :  4.60  295O :  4.54  580O :  4.53  685O :  4.51  508O :  4.50  703O :  4.46  385O :  4.45
  364O :  4.44  439O :  4.44  718O :  4.39  256O :  4.38  235O :  4.37  397O :  4.33  310O :  4.29  331O :  4.27  595O :  4.24   70O :  4.21  304O :  4.16  128H :  4.12
  106O :  3.89  417H :  3.78  722H :  3.73  382O :  3.67  416H :  3.57  340O :  3.52  607O :  3.49  166O :  3.45  523O :  3.43  358O :  3.36  328O :  3.32  553O :  3.29
  390H :  3.25  572H :  3.20  202O :  3.10  139O :  3.08  172O :  3.05  437H :  3.01  544O :  2.99  146H :  2.99   49O :  2.94   44H :  2.92  234H :  2.85  343O :  2.82
   36H :  2.79   74H :  2.75  650H :  2.73  658O :  2.70  624H :  2.69  479H :  2.67  465H :  2.66  724O :  2.65  644H :  2.60  496O :  2.59  640O :  2.58  337O :  2.56
  727O :  2.53  353H :  2.49  745O :  2.49  222H :  2.49  268O :  2.48  317H :  2.46  187O :  2.45  584H :  2.44   67O :  2.44  693H :  2.44  492H :  2.42  229O :  2.29
  283O :  2.28  259O :  2.28  753H :  2.27   88O :  2.26  494H :  2.23  669H :  2.21  253O :  2.20  144H :  2.15  698H :  2.14  732H :  2.10  117H :  2.03  467H :  1.96
  170H :  1.96  601O :  1.91  469O :  1.91  274O :  1.88  488H :  1.83   59H :  1.82  210H :  1.81   52O :  1.80  531H :  1.80  267H :  1.76  124O :  1.71  567H :  1.68
  282H :  1.68   23H :  1.65  740H :  1.54   13O :  1.51  599H :  1.50  104H :  1.48  594H :  1.45  707H :  1.45  686H :  1.43  519H :  1.43  110H :  1.43  407H :  1.42
  444H :  1.42  347H :  1.42  454O :  1.40   32H :  1.40   12H :  1.39  675H :  1.39  638H :  1.36  389H :  1.32  341H :  1.32  354H :  1.30  614H :  1.30   98H :  1.29
   60H :  1.27   62H :  1.27  486H :  1.25   78H :  1.25  242H :  1.24   91O :  1.23  663H :  1.22  476H :  1.22   24H :  1.22   87H :  1.21  173H :  1.18  678H :  1.18
  612H :  1.17  491H :  1.16  570H :  1.16  320H :  1.16  204H :  1.15  462H :  1.14    4O :  1.14  351H :  1.13  657H :  1.12  472O :  1.12  408H :  1.09  246H :  1.09
  387H :  1.08  560H :  1.07  175O :  1.06  160O :  1.06   47H :  1.03  521H :  1.03  108H :  1.01  428H :  1.00  621H :  0.99   77H :  0.98  433O :  0.97   27H :  0.97
  446H :  0.96  386H :  0.96  305H :  0.93  704H :  0.88  605H :  0.88  641H :  0.88  735H :  0.88  398H :  0.87   96H :  0.87  696H :  0.86  449H :  0.86  368H :  0.86
  411H :  0.86  301O :  0.86  432H :  0.82  227H :  0.82   56H :  0.80  470H :  0.80   71H :  0.79  506H :  0.78  668H :  0.77  600H :  0.76  654H :  0.76  159H :  0.76
  700O :  0.75  500H :  0.75  107H :  0.74  464H :  0.74  426H :  0.73  588H :  0.73  263H :  0.73  214O :  0.73  618H :  0.71   89H :  0.69  585H :  0.69  333H :  0.69
  587H :  0.68  579H :  0.68  434H :  0.67  249H :  0.66  552H :  0.66  674H :  0.65  629H :  0.65  273H :  0.65  324H :  0.64  456H :  0.63  485H :  0.62  186H :  0.61
  564H :  0.61  391O :  0.60   41H :  0.58  677H :  0.57  420H :  0.57  501H :  0.56  120H :  0.53    5H :  0.53  245H :  0.52  332H :  0.52  404H :  0.51  533H :  0.51
  630H :  0.51  481O :  0.51  450H :  0.50   81H :  0.50  558H :  0.50  548H :  0.50   20H :  0.50  633H :  0.48  122H :  0.48  557H :  0.47  264H :  0.46  255H :  0.46
  457O :  0.46  374H :  0.46  293H :  0.45  135H :  0.45   21H :  0.45  635H :  0.45  212H :  0.44  578H :  0.44  743H :  0.44  185H :  0.44  591H :  0.43  452H :  0.43
  602H :  0.42   99H :  0.41  101H :  0.41  147H :  0.40  699H :  0.40  130O :  0.40  593H :  0.40  431H :  0.40  543H :  0.39  183H :  0.39  551H :  0.39  131H :  0.39
   51H :  0.38  681H :  0.38  555H :  0.38  207H :  0.37  182H :  0.37  711H :  0.37  509H :  0.37  116H :  0.36  440H :  0.36  653H :  0.36  545H :  0.35  359H :  0.35
  134H :  0.34  461H :  0.34  423H :  0.34  429H :  0.33  447H :  0.33  152H :  0.33  344H :  0.32  203H :  0.32   95H :  0.31  747H :  0.31  196O :  0.31  126H :  0.31
  708H :  0.30  525H :  0.30  251H :  0.30  161H :  0.30  233H :  0.29  377H :  0.29  278H :  0.29  394O :  0.29   15H :  0.29  671H :  0.29  651H :  0.28  680H :  0.27
  129H :  0.27  297H :  0.27  443H :  0.27  215H :  0.27  549H :  0.26   84H :  0.26  360H :  0.26  137H :  0.26  513H :  0.26   18H :  0.25  321H :  0.25  455H :  0.25
  188H :  0.25  380H :  0.25  537H :  0.24  237H :  0.24  489H :  0.24  300H :  0.24    9H :  0.24  369H :  0.24  326H :  0.24  261H :  0.24  419H :  0.23    2H :  0.23
  302H :  0.22  744H :  0.22  689H :  0.22   68H :  0.22  165H :  0.22  458H :  0.21  438H :  0.21  168H :  0.21  197H :  0.21  566H :  0.21   66H :  0.20  659H :  0.20
  731H :  0.19  216H :  0.19  213H :  0.19  294H :  0.18  125H :  0.18  504H :  0.18  482H :  0.18  435H :  0.18  102H :  0.18  362H :  0.18  713H :  0.17  345H :  0.17
  639H :  0.17  522H :  0.17  719H :  0.17  660H :  0.17  530H :  0.17  726H :  0.17  221H :  0.16  138H :  0.16  623H :  0.16   90H :  0.16  683H :  0.16  366H :  0.16
  480H :  0.16  528H :  0.15  149H :  0.15  507H :  0.15  167H :  0.15  350H :  0.15  375H :  0.15   72H :  0.15  477H :  0.14  164H :  0.14  542H :  0.14  468H :  0.13
  192H :  0.13  284H :  0.13  266H :  0.13  356H :  0.13  338H :  0.13  357H :  0.12  312H :  0.12  180H :  0.12  648H :  0.12  296H :  0.12  393H :  0.12  647H :  0.11
  540H :  0.11  737H :  0.11  725H :  0.11  627H :  0.11  425H :  0.11  575H :  0.11  336H :  0.11  495H :  0.11  384H :  0.11  363H :  0.11  702H :  0.10   54H :  0.10
  473H :  0.10  327H :  0.10    8H :  0.10  741H :  0.10  606H :  0.10  524H :  0.10  243H :  0.10  395H :  0.10   92H :  0.10  383H :  0.10  620H :  0.10  153H :  0.10
  113H :  0.10  348H :  0.10  573H :  0.09  281H :  0.09  275H :  0.09  228H :  0.09   48H :  0.09  536H :  0.08  311H :  0.08  498H :  0.08  510H :  0.07  201H :  0.07
  483H :  0.07  162H :  0.07  318H :  0.07  632H :  0.07  276H :  0.07  329H :  0.07  720H :  0.07
    2 LP   *******   0.00  11.56776 -52.38037   9.38678   43O : 39.76  427O : 14.69   79O : 13.76  526O : 13.70   19O : 13.17  715O : 13.05  406O : 13.02  583O : 12.91  127O : 12.87   10O : 12.64  415O : 12.13  490O : 11.95
  430O : 11.58   25O : 11.10  550O : 10.93  403O : 10.78  739O : 10.71  502O : 10.51  349O : 10.07  352O :  9.78  148O :  9.78  169O :  9.63  742O :  9.48  223O :  9.17
  730O :  8.84  334O :  8.38  733O :  8.29  244O :  8.18  478O :  8.17  598O :  7.94  265O :  7.91  289O :  7.89  370O :  7.88  280O :  7.74   37O :  7.60  151O :  7.51
  649O :  7.39  121O :  7.35   64O :  7.34   61O :  7.19  325O :  7.03  424O :  6.93  112O :  6.88  376O :  6.87  751O :  6.81  298O :  6.79  388O :  6.71  589O :  6.56
   82O :  6.43  103O :  6.31  622O :  6.18  436O :  6.02  487O :  5.98  319O :  5.96  529O :  5.93  517O :  5.85   97O :  5.82  664O :  5.53  193O :  5.50  694O :  5.49
  697O :  5.45  577O :  5.42  316O :  5.31  736O :  5.26  250O :  5.24  484O :  5.24  616O :  5.22  136O :  5.21  466O :  5.20   58O :  5.17  463O :  5.09   73O :  5.08
  271O :  5.07  178O :  5.04  691O :  5.04    1O :  5.01  556O :  4.92  355O :  4.81   31O :  4.71  667O :  4.68  373O :  4.65  592O :  4.56  754O :  4.53  199O :  4.49
  448O :  4.45  541O :  4.36   16O :  4.35  646O :  4.32  574O :  4.31  520O :  4.29  706O :  4.26  100O :  4.26  604O :  4.22  145O :  4.22    7O :  4.19  535O :  4.19
  115O :  4.16  571O :  4.07  634O :  4.04  619O :  4.00  475O :  3.97  532O :  3.96  628O :  3.94  451O :  3.94   46O :  3.91  361O :  3.84  643O :  3.78   76O :  3.76
  748O :  3.75  721O :  3.72  208O :  3.71  307O :  3.50  412O :  3.49   94O :  3.49  286O :  3.46  673O :  3.43  637O :  3.41  154O :  3.34   34O :  3.33  220O :  3.30
  277O :  3.25  493O :  3.21  346O :  3.20  118O :  3.20  586O :  3.12  625O :  3.08  709O :  3.05  712O :  3.04  445O :  2.99  514O :  2.99  142O :  2.99  505O :  2.98
  688O :  2.96  460O :  2.96   55O :  2.94  442O :  2.93  241O :  2.92   22O :  2.91  205O :  2.90  562O :  2.89  163O :  2.87  717H :  2.80  232O :  2.76  655O :  2.70
  421O :  2.68  565O :  2.67  670O :  2.67  499O :  2.62  262O :  2.59  217O :  2.57  559O :  2.55  292O :  2.50  367O :  2.47  631O :  2.47  661O :  2.42  538O :  2.37
  226O :  2.36  613O :  2.35  405H :  2.35  547O :  2.33  682O :  2.30  676O :  2.30  157O :  2.29  238O :  2.27  190O :  2.22  400O :  2.17   28O :  2.16  109O :  2.15
   40O :  2.13  133O :  2.04  313O :  1.97  511O :  1.93  652O :  1.92  610O :  1.90  247O :  1.89  181O :  1.88  679O :  1.87  211O :  1.86   85O :  1.85  418O :  1.83
  568O :  1.78  409O :  1.77  379O :  1.76  322O :  1.74   26H :  1.74  439O :  1.71  184O :  1.70  295O :  1.68  580O :  1.68  685O :  1.67  508O :  1.67  703O :  1.65
  385O :  1.65  364O :  1.64  256O :  1.63  718O :  1.63  235O :  1.62  397O :  1.60  310O :  1.59  331O :  1.58  595O :  1.57   70O :  1.56  304O :  1.54  128H :  1.52
  106O :  1.44  417H :  1.40  722H :  1.38  382O :  1.36  416H :  1.32  340O :  1.30  607O :  1.29  166O :  1.28  523O :  1.27  358O :  1.25  328O :  1.23  553O :  1.22
  390H :  1.20  572H :  1.19   44H :  1.17  202O :  1.15  139O :  1.14  172O :  1.13  437H :  1.12  544O :  1.11  146H :  1.11   49O :  1.09  234H :  1.06  343O :  1.04
   36H :  1.03   74H :  1.02  650H :  1.01  658O :  1.00  624H :  0.99  465H :  0.98  479H :  0.98  724O :  0.98  644H :  0.96  496O :  0.96  640O :  0.96  337O :  0.95
  727O :  0.94  353H :  0.92  745O :  0.92  222H :  0.92  268O :  0.92  317H :  0.91  187O :  0.91  584H :  0.90   67O :  0.90  693H :  0.90  492H :  0.90  229O :  0.85
  283O :  0.85  259O :  0.84  753H :  0.84   88O :  0.84  494H :  0.82  669H :  0.82  253O :  0.81  144H :  0.80  698H :  0.79  732H :  0.78  117H :  0.75  170H :  0.72
  467H :  0.72  469O :  0.71  601O :  0.71  274O :  0.70  488H :  0.68   59H :  0.68  210H :  0.67   52O :  0.67  531H :  0.67  267H :  0.65  124O :  0.64  567H :  0.62
  282H :  0.62   23H :  0.61  740H :  0.57   13O :  0.56  599H :  0.56  104H :  0.55  594H :  0.54  707H :  0.54  686H :  0.53  519H :  0.53  110H :  0.53  407H :  0.53
  444H :  0.53  347H :  0.53  454O :  0.52   32H :  0.52   12H :  0.51  675H :  0.51  638H :  0.51  389H :  0.49  341H :  0.49  354H :  0.48  614H :  0.48   98H :  0.48
   60H :  0.47   62H :  0.47  486H :  0.46   78H :  0.46  242H :  0.46   91O :  0.45  663H :  0.45  476H :  0.45   24H :  0.45   87H :  0.45  173H :  0.44  612H :  0.43
  678H :  0.43  570H :  0.43  320H :  0.43  491H :  0.43  204H :  0.43  462H :  0.42    4O :  0.42  351H :  0.42  657H :  0.42  472O :  0.41  246H :  0.41  408H :  0.41
  387H :  0.40  560H :  0.39  175O :  0.39  160O :  0.39   47H :  0.38  521H :  0.38  108H :  0.37  621H :  0.37   77H :  0.36   27H :  0.36  433O :  0.36  446H :  0.36
  386H :  0.35  305H :  0.34  704H :  0.33  605H :  0.32  641H :  0.32  735H :  0.32  398H :  0.32   96H :  0.32  696H :  0.32  449H :  0.32  368H :  0.32  411H :  0.32
  301O :  0.32  227H :  0.30  432H :  0.30   56H :  0.30  470H :  0.29   71H :  0.29  428H :  0.29  506H :  0.29  668H :  0.28  600H :  0.28  654H :  0.28  159H :  0.28
  700O :  0.28  500H :  0.28  107H :  0.27  464H :  0.27  426H :  0.27  588H :  0.27  214O :  0.27  263H :  0.27  618H :  0.26   89H :  0.26  585H :  0.26  333H :  0.26
  587H :  0.25  579H :  0.25  434H :  0.25  249H :  0.25  552H :  0.24  674H :  0.24  629H :  0.24  273H :  0.24  324H :  0.24  456H :  0.23  485H :  0.23  186H :  0.23
  564H :  0.22  391O :  0.22   41H :  0.22  420H :  0.21  501H :  0.21  677H :  0.21    5H :  0.20  245H :  0.19  332H :  0.19  404H :  0.19  533H :  0.19  630H :  0.19
  481O :  0.19  450H :  0.19   81H :  0.19  558H :  0.19  548H :  0.19   20H :  0.19  120H :  0.18  633H :  0.18  122H :  0.18  557H :  0.17  264H :  0.17  255H :  0.17
  457O :  0.17  374H :  0.17  293H :  0.17  135H :  0.17  635H :  0.17  212H :  0.16   21H :  0.16  578H :  0.16  743H :  0.16  185H :  0.16  591H :  0.16  452H :  0.16
  602H :  0.16   99H :  0.15  101H :  0.15  147H :  0.15  699H :  0.15  130O :  0.15  183H :  0.15  431H :  0.15  593H :  0.15  543H :  0.15  551H :  0.14  131H :  0.14
   51H :  0.14  681H :  0.14  711H :  0.14  555H :  0.14  440H :  0.14  207H :  0.14  182H :  0.14  509H :  0.14  116H :  0.13  653H :  0.13  545H :  0.13  359H :  0.13
  134H :  0.13  461H :  0.12  423H :  0.12  447H :  0.12  152H :  0.12  344H :  0.12   15H :  0.12  203H :  0.12   95H :  0.12  747H :  0.12  196O :  0.12  126H :  0.11
  708H :  0.11  525H :  0.11  251H :  0.11  161H :  0.11  233H :  0.11  377H :  0.11  278H :  0.11  394O :  0.11  671H :  0.11  651H :  0.10   84H :  0.10  680H :  0.10
  129H :  0.10  297H :  0.10  443H :  0.10  215H :  0.10  549H :  0.10  360H :  0.10  137H :  0.10  513H :  0.10   18H :  0.09  321H :  0.09  455H :  0.09  188H :  0.09
  380H :  0.09  537H :  0.09  237H :  0.09    9H :  0.09  489H :  0.09  300H :  0.09  369H :  0.09  326H :  0.09  261H :  0.09  419H :  0.09    2H :  0.09  302H :  0.08
  744H :  0.08  689H :  0.08   68H :  0.08  165H :  0.08  458H :  0.08  438H :  0.08  168H :  0.08  197H :  0.08  566H :  0.08  429H :  0.07  659H :  0.07   66H :  0.07
  731H :  0.07
    3 LP   *******   0.00  -4.92501 -22.91202 -38.17543   43O : 38.62   79O : 16.38  526O : 13.31   19O : 12.79  715O : 12.67  406O : 12.65  583O : 12.54  127O : 12.51   10O : 12.28  427O : 12.25  415O : 11.78  490O : 11.57
  430O : 11.25   25O : 10.80  550O : 10.62  403O : 10.47  739O : 10.40  502O : 10.21  349O :  9.78  352O :  9.51  148O :  9.50  169O :  9.36  742O :  9.21  223O :  8.90
  730O :  8.58  334O :  8.14  733O :  8.05  478O :  8.03  244O :  7.94  598O :  7.71  265O :  7.68  289O :  7.66  370O :  7.66  280O :  7.52   37O :  7.38  151O :  7.32
  649O :  7.18   64O :  7.14  121O :  7.11   61O :  6.99  325O :  6.83  424O :  6.73  112O :  6.69  376O :  6.67  751O :  6.62  298O :  6.60  388O :  6.52  589O :  6.37
   82O :  6.22  103O :  6.13  622O :  6.01  436O :  5.85  487O :  5.81  319O :  5.79  529O :  5.76  517O :  5.69   97O :  5.65  664O :  5.37  193O :  5.35  694O :  5.33
  697O :  5.29  577O :  5.27  316O :  5.16  736O :  5.11  250O :  5.09  484O :  5.09  616O :  5.07  136O :  5.06  466O :  5.05   58O :  5.02  463O :  4.95   73O :  4.94
  271O :  4.92  691O :  4.90  178O :  4.90    1O :  4.87  556O :  4.78  355O :  4.68   31O :  4.58  667O :  4.55  373O :  4.52  592O :  4.43  754O :  4.40  199O :  4.36
  448O :  4.32  541O :  4.23   16O :  4.23  646O :  4.20  520O :  4.17  706O :  4.14  100O :  4.14  604O :  4.10  145O :  4.10    7O :  4.07  535O :  4.07  115O :  4.04
  574O :  4.01  571O :  3.97  634O :  3.93  619O :  3.89  475O :  3.86  532O :  3.85  628O :  3.83  451O :  3.82   46O :  3.79  361O :  3.73  643O :  3.67   76O :  3.66
  748O :  3.65  721O :  3.61  208O :  3.60  412O :  3.39   94O :  3.39  307O :  3.38  286O :  3.36  673O :  3.34  637O :  3.31  154O :  3.24   34O :  3.23  220O :  3.21
  277O :  3.16  493O :  3.12  709O :  3.12  118O :  3.11  346O :  3.11  586O :  3.03  625O :  2.99  712O :  2.95  445O :  2.91  142O :  2.90  514O :  2.90  505O :  2.89
  688O :  2.87  460O :  2.87   55O :  2.86  442O :  2.85  241O :  2.83   22O :  2.82  205O :  2.82  562O :  2.81  163O :  2.79  717H :  2.72  232O :  2.68  655O :  2.62
  421O :  2.60  565O :  2.59  670O :  2.59  499O :  2.54  262O :  2.52  217O :  2.50  559O :  2.47  292O :  2.43  367O :  2.40  631O :  2.40  661O :  2.35  538O :  2.30
  226O :  2.29  613O :  2.29  405H :  2.28  547O :  2.26  682O :  2.24  676O :  2.23  157O :  2.22  238O :  2.20  190O :  2.16  400O :  2.12   28O :  2.10  109O :  2.09
   40O :  2.07  133O :  1.99  313O :  1.92  511O :  1.88  652O :  1.87  610O :  1.85  247O :  1.83  181O :  1.82  679O :  1.82  211O :  1.80   85O :  1.80  418O :  1.78
  568O :  1.73  409O :  1.72  379O :  1.71  322O :  1.70   26H :  1.69  184O :  1.66  295O :  1.64  580O :  1.63  685O :  1.62  508O :  1.62  703O :  1.61  385O :  1.60
  439O :  1.60  364O :  1.60  256O :  1.58  718O :  1.58  235O :  1.57  397O :  1.56  331O :  1.55  310O :  1.54  595O :  1.52   70O :  1.52  304O :  1.50  128H :  1.48
  106O :  1.40  417H :  1.36  722H :  1.34  382O :  1.32  416H :  1.28  340O :  1.26  607O :  1.26  166O :  1.24  523O :  1.23  358O :  1.21  328O :  1.20  553O :  1.18
  390H :  1.17  572H :  1.16   44H :  1.14  202O :  1.11  139O :  1.11  172O :  1.10  437H :  1.08  544O :  1.08  146H :  1.07   49O :  1.06  234H :  1.03  343O :  1.02
   36H :  1.00   74H :  0.99  650H :  0.98  658O :  0.97  624H :  0.97  479H :  0.96  465H :  0.96  724O :  0.95  644H :  0.93  496O :  0.93  640O :  0.93  337O :  0.92
  727O :  0.91  353H :  0.90  222H :  0.90  268O :  0.89  317H :  0.89  187O :  0.88  584H :  0.88  693H :  0.88   67O :  0.88  492H :  0.87  745O :  0.87  229O :  0.82
  283O :  0.82  259O :  0.82  753H :  0.82   88O :  0.81  494H :  0.80  669H :  0.79  253O :  0.79  144H :  0.77  698H :  0.77  732H :  0.76  117H :  0.73  467H :  0.70
  170H :  0.70  601O :  0.69  469O :  0.69  274O :  0.68  488H :  0.66   59H :  0.66  210H :  0.65   52O :  0.65  531H :  0.65  267H :  0.63  124O :  0.62  567H :  0.60
  282H :  0.60   23H :  0.59  740H :  0.56  599H :  0.54   13O :  0.54  104H :  0.53  594H :  0.52  707H :  0.52  686H :  0.52  519H :  0.51  110H :  0.51  407H :  0.51
  444H :  0.51  347H :  0.51  454O :  0.50   32H :  0.50   12H :  0.50  675H :  0.50  638H :  0.49  389H :  0.47  341H :  0.47  354H :  0.47  614H :  0.47   98H :  0.47
   60H :  0.46   62H :  0.46  486H :  0.45   78H :  0.45  242H :  0.44   91O :  0.44  663H :  0.44  476H :  0.44   24H :  0.44   87H :  0.44  173H :  0.43  612H :  0.42
  678H :  0.42  491H :  0.42  570H :  0.42  320H :  0.42  204H :  0.42  462H :  0.41    4O :  0.41  351H :  0.41  657H :  0.40  472O :  0.40  408H :  0.39  246H :  0.39
  387H :  0.39  560H :  0.38  175O :  0.38  160O :  0.38   47H :  0.37  521H :  0.37  108H :  0.36  428H :  0.36  621H :  0.36   77H :  0.35  433O :  0.35   27H :  0.35
  446H :  0.35  386H :  0.34  305H :  0.33  704H :  0.32  605H :  0.32  641H :  0.32  735H :  0.32  398H :  0.31   96H :  0.31  696H :  0.31  449H :  0.31  368H :  0.31
  411H :  0.31  301O :  0.31  432H :  0.30  227H :  0.29   56H :  0.29  470H :  0.29   71H :  0.29  506H :  0.28  668H :  0.28  600H :  0.27  654H :  0.27  159H :  0.27
  700O :  0.27  500H :  0.27  107H :  0.27  464H :  0.26  426H :  0.26  588H :  0.26  214O :  0.26  263H :  0.26  618H :  0.25   89H :  0.25  585H :  0.25  333H :  0.25
  587H :  0.24  579H :  0.24  434H :  0.24  249H :  0.24  552H :  0.24  674H :  0.24  629H :  0.23  273H :  0.23  324H :  0.23  456H :  0.23  485H :  0.22  186H :  0.22
  564H :  0.22  391O :  0.21   41H :  0.21  420H :  0.20  501H :  0.20  677H :  0.20  332H :  0.19    5H :  0.19  245H :  0.19  404H :  0.18  533H :  0.18  630H :  0.18
  481O :  0.18  450H :  0.18  558H :  0.18  548H :  0.18   20H :  0.18  120H :  0.18  633H :  0.17  122H :  0.17  557H :  0.17  264H :  0.17  255H :  0.17  457O :  0.17
  374H :  0.16  293H :  0.16  135H :  0.16  635H :  0.16   21H :  0.16  212H :  0.16  578H :  0.16  743H :  0.16  185H :  0.16  591H :  0.16  452H :  0.15  602H :  0.15
   99H :  0.15  101H :  0.15  147H :  0.14  699H :  0.14  130O :  0.14  593H :  0.14  431H :  0.14  543H :  0.14  183H :  0.14  551H :  0.14  131H :  0.14   51H :  0.14
  681H :  0.14  555H :  0.14  207H :  0.13  182H :  0.13  711H :  0.13  509H :  0.13  116H :  0.13  440H :  0.13  653H :  0.13  545H :  0.13   81H :  0.13  359H :  0.12
  134H :  0.12  461H :  0.12  423H :  0.12  429H :  0.12  447H :  0.12  152H :  0.12  344H :  0.12   15H :  0.12  203H :  0.12   95H :  0.11  196O :  0.11  126H :  0.11
  708H :  0.11  525H :  0.11  747H :  0.11  251H :  0.11  161H :  0.11  233H :  0.11  377H :  0.11  278H :  0.10  394O :  0.10  671H :  0.10  651H :  0.10  680H :  0.10
  129H :  0.10  297H :  0.10  443H :  0.10  215H :  0.10  549H :  0.09   84H :  0.09  360H :  0.09  137H :  0.09  513H :  0.09   18H :  0.09  321H :  0.09  455H :  0.09
  188H :  0.09  380H :  0.09  537H :  0.09  237H :  0.09  489H :  0.09    9H :  0.09  300H :  0.09  369H :  0.09  326H :  0.08  261H :  0.08  419H :  0.08    2H :  0.08
  302H :  0.08  744H :  0.08  689H :  0.08   68H :  0.08  165H :  0.08  458H :  0.08  438H :  0.08  168H :  0.08  197H :  0.08  566H :  0.07  659H :  0.07
    4 LP   *******   0.00  -7.39085 -47.92078  33.25083   43O : 32.25  490O : 11.62   79O : 11.16  526O : 11.11   19O : 10.68  715O : 10.58  406O : 10.52  583O : 10.47  127O : 10.44  427O : 10.25   10O : 10.25  415O :  9.84
  430O :  9.23   25O :  9.02  550O :  8.87  403O :  8.74  739O :  8.68  502O :  8.52  349O :  8.17  352O :  7.94  148O :  7.93  169O :  7.81  742O :  7.69  223O :  7.43
  730O :  7.17  334O :  6.79  733O :  6.72  478O :  6.70  244O :  6.63  598O :  6.44  265O :  6.42  289O :  6.40  370O :  6.39  280O :  6.28   37O :  6.16  151O :  6.09
  649O :  5.99   64O :  5.96  121O :  5.93   61O :  5.83  325O :  5.71  424O :  5.62  112O :  5.59  376O :  5.57  751O :  5.53  298O :  5.51  388O :  5.45  589O :  5.32
   82O :  5.20  103O :  5.12  622O :  5.02  436O :  4.88  319O :  4.83  529O :  4.81  517O :  4.75   97O :  4.72  487O :  4.72  664O :  4.49  193O :  4.46  694O :  4.45
  697O :  4.42  577O :  4.40  316O :  4.31  736O :  4.27  250O :  4.25  484O :  4.25  616O :  4.23  136O :  4.22  466O :  4.22   58O :  4.19  463O :  4.13   73O :  4.12
  271O :  4.11  178O :  4.09    1O :  4.07  691O :  4.06  556O :  3.99  355O :  3.91   31O :  3.82  667O :  3.80  373O :  3.77  592O :  3.70  754O :  3.68  199O :  3.64
  448O :  3.61  541O :  3.54   16O :  3.53  646O :  3.50  574O :  3.49  520O :  3.48  706O :  3.45  100O :  3.45  604O :  3.42  145O :  3.42    7O :  3.40  535O :  3.40
  115O :  3.37  571O :  3.30  634O :  3.28  619O :  3.24  475O :  3.22  532O :  3.21  628O :  3.20  451O :  3.19   46O :  3.17  361O :  3.12  643O :  3.07   76O :  3.05
  748O :  3.04  721O :  3.02  208O :  3.01  307O :  2.84  412O :  2.83   94O :  2.83  286O :  2.80  673O :  2.78  637O :  2.77  709O :  2.71  154O :  2.71   34O :  2.70
  220O :  2.68  277O :  2.64  493O :  2.60  346O :  2.59  118O :  2.59  586O :  2.53  625O :  2.50  712O :  2.46  445O :  2.43  514O :  2.43  142O :  2.42  505O :  2.41
  688O :  2.40  460O :  2.40   55O :  2.39  442O :  2.38  241O :  2.36   22O :  2.36  205O :  2.35  562O :  2.35  163O :  2.33  717H :  2.27  232O :  2.24  655O :  2.19
  421O :  2.17  565O :  2.16  670O :  2.16  499O :  2.12  262O :  2.10  217O :  2.09  559O :  2.06  292O :  2.03  367O :  2.01  631O :  2.00  661O :  1.96  538O :  1.92
  226O :  1.91  613O :  1.91  405H :  1.91  547O :  1.89  682O :  1.87  676O :  1.87  157O :  1.85  238O :  1.84  190O :  1.81  400O :  1.76   28O :  1.75  109O :  1.75
   40O :  1.73  133O :  1.66  313O :  1.60  511O :  1.57  652O :  1.56  247O :  1.53  181O :  1.52  679O :  1.52  211O :  1.51  610O :  1.51   85O :  1.50  418O :  1.48
  568O :  1.45  409O :  1.44  379O :  1.43  322O :  1.41   26H :  1.41  184O :  1.38  295O :  1.37  580O :  1.36  685O :  1.36  508O :  1.35  703O :  1.34  385O :  1.34
  439O :  1.34  364O :  1.33  256O :  1.32  718O :  1.32  235O :  1.31  397O :  1.30  310O :  1.29  331O :  1.28  595O :  1.27   70O :  1.27  304O :  1.25  128H :  1.24
  106O :  1.17  417H :  1.14  722H :  1.12  382O :  1.10  416H :  1.07  340O :  1.06  607O :  1.05  166O :  1.04  523O :  1.03  358O :  1.01  328O :  1.00  553O :  0.99
  390H :  0.98  572H :  0.96   44H :  0.95  202O :  0.93  139O :  0.92  172O :  0.92  437H :  0.90  544O :  0.90  146H :  0.90   49O :  0.88  234H :  0.86  343O :  0.85
   36H :  0.84   74H :  0.83  650H :  0.82  658O :  0.81  624H :  0.81  479H :  0.80  465H :  0.80  724O :  0.80  644H :  0.78  496O :  0.78  640O :  0.77  337O :  0.77
  727O :  0.76  353H :  0.75  745O :  0.75  222H :  0.75  268O :  0.74  317H :  0.74  187O :  0.74  584H :  0.73  693H :  0.73   67O :  0.73  229O :  0.69  283O :  0.69
  259O :  0.68  753H :  0.68   88O :  0.68  494H :  0.67  669H :  0.66  253O :  0.66  492H :  0.65  144H :  0.65  698H :  0.64  732H :  0.63  117H :  0.61  170H :  0.59
  467H :  0.59  601O :  0.59  469O :  0.57  274O :  0.57   59H :  0.55  210H :  0.54   52O :  0.54  531H :  0.54  488H :  0.54  267H :  0.53  124O :  0.52  567H :  0.50
  282H :  0.50   23H :  0.49  740H :  0.46   13O :  0.45  599H :  0.45  104H :  0.45  594H :  0.44  707H :  0.44  686H :  0.43  519H :  0.43  110H :  0.43  407H :  0.43
  444H :  0.43  347H :  0.43  454O :  0.42   32H :  0.42   12H :  0.42  675H :  0.42  638H :  0.41  389H :  0.40  341H :  0.40  354H :  0.39  614H :  0.39   98H :  0.39
   60H :  0.38   62H :  0.38  486H :  0.38   78H :  0.37  242H :  0.37   91O :  0.37  663H :  0.37  476H :  0.37   24H :  0.37   87H :  0.36  173H :  0.36  612H :  0.35
  678H :  0.35  570H :  0.35  320H :  0.35  204H :  0.35  462H :  0.34    4O :  0.34  351H :  0.34  657H :  0.34  472O :  0.34  408H :  0.33  246H :  0.33  387H :  0.32
  560H :  0.32  175O :  0.32  160O :  0.32   47H :  0.31  521H :  0.31  108H :  0.30  428H :  0.30  621H :  0.30  491H :  0.29   77H :  0.29  433O :  0.29   27H :  0.29
  446H :  0.29  386H :  0.29  305H :  0.28  704H :  0.27  605H :  0.26  641H :  0.26  735H :  0.26  398H :  0.26   96H :  0.26  696H :  0.26  449H :  0.26  368H :  0.26
  411H :  0.26  301O :  0.26  432H :  0.25  227H :  0.25   56H :  0.24  470H :  0.24   71H :  0.24  506H :  0.24  668H :  0.23  600H :  0.23  654H :  0.23  159H :  0.23
  700O :  0.23  500H :  0.23  107H :  0.22  464H :  0.22  426H :  0.22  588H :  0.22  214O :  0.22  263H :  0.22  618H :  0.21   89H :  0.21  585H :  0.21  333H :  0.21
  579H :  0.20  587H :  0.20  434H :  0.20  249H :  0.20  552H :  0.20  674H :  0.20  629H :  0.20  273H :  0.19  324H :  0.19  456H :  0.19  485H :  0.19  186H :  0.18
  602H :  0.18  564H :  0.18  391O :  0.18   41H :  0.18  420H :  0.17  501H :  0.17  677H :  0.17    5H :  0.16  245H :  0.16  332H :  0.15  404H :  0.15  533H :  0.15
  630H :  0.15  481O :  0.15  450H :  0.15   81H :  0.15  558H :  0.15  548H :  0.15   20H :  0.15  120H :  0.15  633H :  0.14  122H :  0.14  557H :  0.14  264H :  0.14
  255H :  0.14  457O :  0.14  374H :  0.14  293H :  0.14  135H :  0.14  635H :  0.13  212H :  0.13   21H :  0.13  578H :  0.13  743H :  0.13  185H :  0.13  591H :  0.13
  452H :  0.13  431H :  0.13   99H :  0.12  101H :  0.12  147H :  0.12  699H :  0.12  130O :  0.12  593H :  0.12  543H :  0.12  183H :  0.12  711H :  0.12  551H :  0.12
  131H :  0.12   51H :  0.12  681H :  0.11  555H :  0.11  207H :  0.11  182H :  0.11  509H :  0.11  116H :  0.11  440H :  0.11  653H :  0.11  545H :  0.11  359H :  0.10
  134H :  0.10  461H :  0.10  423H :  0.10  429H :  0.10  447H :  0.10  152H :  0.10  344H :  0.10   15H :  0.10  203H :  0.10   95H :  0.09  747H :  0.09  196O :  0.09
  126H :  0.09  708H :  0.09  525H :  0.09  251H :  0.09  161H :  0.09  233H :  0.09  377H :  0.09  278H :  0.09  394O :  0.09  489H :  0.09  671H :  0.09  651H :  0.08
  680H :  0.08  129H :  0.08  297H :  0.08  443H :  0.08  215H :  0.08  549H :  0.08   84H :  0.08  360H :  0.08  137H :  0.08  513H :  0.08   18H :  0.08  321H :  0.08
  455H :  0.08  188H :  0.07  380H :  0.07  537H :  0.07  237H :  0.07    9H :  0.07  300H :  0.07  369H :  0.07  326H :  0.07  261H :  0.07
    5 LP   *******   0.00 -34.56774  14.77347   8.28116   43O : 30.78  715O : 12.42   79O : 10.65  526O : 10.61   19O : 10.19  406O : 10.08  583O :  9.99  127O :  9.96   10O :  9.78  427O :  9.76  415O :  9.39  490O :  9.22
  430O :  8.96   25O :  8.61  550O :  8.46  403O :  8.35  739O :  8.29  502O :  8.13  349O :  7.79  352O :  7.57  148O :  7.57  169O :  7.45  742O :  7.34  223O :  7.09
  730O :  6.84  334O :  6.49  733O :  6.41  478O :  6.40  244O :  6.33  598O :  6.14  265O :  6.12  289O :  6.10  370O :  6.10  280O :  5.99   37O :  5.88  151O :  5.82
  649O :  5.72   64O :  5.68  121O :  5.66   61O :  5.57  325O :  5.45  424O :  5.37  112O :  5.34  376O :  5.31  751O :  5.27  298O :  5.26  388O :  5.20  589O :  5.08
   82O :  4.96  103O :  4.88  622O :  4.79  436O :  4.66  487O :  4.63  529O :  4.59  517O :  4.53   97O :  4.50  319O :  4.48  664O :  4.28  193O :  4.26  694O :  4.25
  697O :  4.22  577O :  4.20  316O :  4.11  736O :  4.08  250O :  4.06  484O :  4.05  616O :  4.04  136O :  4.03  466O :  4.03   58O :  4.00  463O :  3.94   73O :  3.93
  271O :  3.92  691O :  3.90  178O :  3.90    1O :  3.88  556O :  3.81  355O :  3.73  717H :  3.66   31O :  3.64  667O :  3.62  373O :  3.60  592O :  3.53  754O :  3.51
  199O :  3.48  448O :  3.45  541O :  3.37   16O :  3.37  646O :  3.34  574O :  3.33  520O :  3.32  706O :  3.30  100O :  3.30  115O :  3.27  604O :  3.27  145O :  3.25
    7O :  3.24  535O :  3.24  571O :  3.15  634O :  3.13  619O :  3.10  475O :  3.08  532O :  3.07  628O :  3.06  451O :  3.05   46O :  3.02  361O :  2.97  643O :  2.93
   76O :  2.92  748O :  2.91  721O :  2.88  208O :  2.87  307O :  2.71  412O :  2.70   94O :  2.70  673O :  2.66  286O :  2.65  637O :  2.64  154O :  2.58   34O :  2.57
  220O :  2.56  277O :  2.52  709O :  2.48  493O :  2.48  118O :  2.47  346O :  2.47  586O :  2.42  625O :  2.38  712O :  2.35  445O :  2.32  142O :  2.31  514O :  2.31
  505O :  2.30  688O :  2.29  460O :  2.29   55O :  2.27  442O :  2.27  241O :  2.26   22O :  2.25  205O :  2.25  562O :  2.24  163O :  2.22  232O :  2.13  655O :  2.09
  421O :  2.07  670O :  2.07  565O :  2.06  499O :  2.03  262O :  2.01  217O :  2.00  559O :  1.97  292O :  1.93  367O :  1.91  631O :  1.91  661O :  1.88  538O :  1.83
  226O :  1.82  613O :  1.82  405H :  1.82  547O :  1.80  682O :  1.78  676O :  1.78  157O :  1.77  238O :  1.75  190O :  1.72  400O :  1.68   28O :  1.68  109O :  1.65
  133O :  1.58  313O :  1.53  511O :  1.49  652O :  1.49  610O :  1.47  247O :  1.46   40O :  1.45  679O :  1.45  181O :  1.45  211O :  1.44   85O :  1.43  418O :  1.42
  568O :  1.38  409O :  1.37  379O :  1.36  322O :  1.35   26H :  1.35  184O :  1.32  295O :  1.30  580O :  1.30  685O :  1.29  508O :  1.29  703O :  1.28  439O :  1.27
  364O :  1.27  385O :  1.27  256O :  1.26  718O :  1.26  235O :  1.25  397O :  1.24  310O :  1.23  331O :  1.22  595O :  1.22   70O :  1.21  304O :  1.19  128H :  1.18
  106O :  1.12  417H :  1.09  722H :  1.07  382O :  1.05  416H :  1.02  340O :  1.01  607O :  1.00  166O :  0.99  523O :  0.98  358O :  0.97  328O :  0.95  553O :  0.94
  390H :  0.93  572H :  0.92   44H :  0.91  202O :  0.89  139O :  0.88  172O :  0.87  437H :  0.86  544O :  0.86   49O :  0.84  146H :  0.84  234H :  0.82  343O :  0.81
   36H :  0.80   74H :  0.79  650H :  0.78  658O :  0.78  624H :  0.77  479H :  0.77  465H :  0.76  724O :  0.76  644H :  0.74  496O :  0.74  640O :  0.74  337O :  0.73
  727O :  0.73  353H :  0.72  745O :  0.71  222H :  0.71  317H :  0.71  268O :  0.71  187O :  0.70  584H :  0.70   67O :  0.70  693H :  0.70  492H :  0.69  229O :  0.66
  283O :  0.65  259O :  0.65  753H :  0.65   88O :  0.65  494H :  0.64  669H :  0.63  253O :  0.63  144H :  0.62  698H :  0.61  732H :  0.60  117H :  0.59  170H :  0.56
  467H :  0.56  601O :  0.55  469O :  0.55  274O :  0.54  488H :  0.52  210H :  0.52   52O :  0.52  531H :  0.52  267H :  0.50   59H :  0.50  124O :  0.49  567H :  0.48
  282H :  0.48   23H :  0.47  740H :  0.44   13O :  0.43  599H :  0.43  104H :  0.43  594H :  0.42  707H :  0.42  686H :  0.41  519H :  0.41  407H :  0.41  444H :  0.41
  347H :  0.41  454O :  0.40   32H :  0.40   12H :  0.40  675H :  0.40  110H :  0.40  638H :  0.39  389H :  0.38  341H :  0.38  354H :  0.37  614H :  0.37   60H :  0.37
   98H :  0.37   62H :  0.37  486H :  0.36   78H :  0.36  242H :  0.35   91O :  0.35  663H :  0.35  476H :  0.35   24H :  0.35   87H :  0.35  173H :  0.34  612H :  0.34
  678H :  0.34  491H :  0.33  570H :  0.33  204H :  0.33  462H :  0.33    4O :  0.33  351H :  0.33  657H :  0.32  472O :  0.32  320H :  0.31  246H :  0.31  408H :  0.31
  560H :  0.31  175O :  0.30  160O :  0.30  387H :  0.30   47H :  0.30  521H :  0.29  108H :  0.29  428H :  0.29  621H :  0.28   77H :  0.28  433O :  0.28   27H :  0.28
  446H :  0.28  386H :  0.27  305H :  0.27  704H :  0.25  605H :  0.25  641H :  0.25  735H :  0.25  398H :  0.25   96H :  0.25  696H :  0.25  449H :  0.25  368H :  0.25
  411H :  0.25  301O :  0.25  432H :  0.24  227H :  0.24   56H :  0.23  470H :  0.23   71H :  0.23  506H :  0.22  668H :  0.22  600H :  0.22  654H :  0.22  159H :  0.22
  700O :  0.22  500H :  0.22  107H :  0.21  464H :  0.21  426H :  0.21  588H :  0.21  214O :  0.21  263H :  0.21  618H :  0.20   89H :  0.20  585H :  0.20  333H :  0.20
  579H :  0.19  587H :  0.19  434H :  0.19  249H :  0.19  552H :  0.19  674H :  0.19  629H :  0.19  273H :  0.19  324H :  0.18  456H :  0.18  485H :  0.18  186H :  0.18
  564H :  0.17  391O :  0.17   41H :  0.17  420H :  0.16  501H :  0.16  677H :  0.16    5H :  0.15  245H :  0.15  332H :  0.15  404H :  0.15  533H :  0.15  630H :  0.15
  481O :  0.15  450H :  0.14   81H :  0.14  558H :  0.14  548H :  0.14   20H :  0.14  120H :  0.14  633H :  0.14  122H :  0.14  557H :  0.14  264H :  0.13  457O :  0.13
  255H :  0.13  374H :  0.13  293H :  0.13  135H :  0.13  635H :  0.13  212H :  0.13   21H :  0.13  578H :  0.13  743H :  0.13  185H :  0.12  591H :  0.12  116H :  0.12
  452H :  0.12  602H :  0.12   99H :  0.12  147H :  0.12  101H :  0.12  699H :  0.11  130O :  0.11  593H :  0.11  431H :  0.11  543H :  0.11  183H :  0.11  551H :  0.11
  131H :  0.11   51H :  0.11  555H :  0.11  207H :  0.11  182H :  0.11  711H :  0.11  681H :  0.11  509H :  0.11  440H :  0.10  653H :  0.10  545H :  0.10  359H :  0.10
  134H :  0.10  461H :  0.10  423H :  0.10  429H :  0.10  447H :  0.09  152H :  0.09  344H :  0.09   15H :  0.09  203H :  0.09   95H :  0.09  747H :  0.09  196O :  0.09
  126H :  0.09  708H :  0.09  525H :  0.09  251H :  0.09  161H :  0.09  233H :  0.08  377H :  0.08  278H :  0.08  394O :  0.08  671H :  0.08  651H :  0.08  129H :  0.08
  297H :  0.08  443H :  0.08  680H :  0.08  215H :  0.08  549H :  0.08   84H :  0.08  360H :  0.07  137H :  0.07  513H :  0.07   18H :  0.07  455H :  0.07  321H :  0.07
  188H :  0.07  380H :  0.07  537H :  0.07
    6 LP   *******   0.00 -40.67606  36.82695  22.97642   43O : 30.19  526O : 12.07   79O : 10.45   19O : 10.00  715O :  9.91  406O :  9.89  583O :  9.80  127O :  9.77   10O :  9.60  427O :  9.57  415O :  9.21  490O :  9.05
  430O :  8.79   25O :  8.44  550O :  8.30  403O :  8.25  739O :  8.13  502O :  7.98  349O :  7.64  352O :  7.43  148O :  7.43  169O :  7.31  742O :  7.20  223O :  6.96
  730O :  6.71  334O :  6.36  733O :  6.29  478O :  6.28  244O :  6.21  598O :  6.03  265O :  6.01  289O :  5.99  370O :  5.98  280O :  5.88   37O :  5.77  151O :  5.71
  649O :  5.61   64O :  5.58  121O :  5.55   61O :  5.46  325O :  5.35  424O :  5.26  112O :  5.23  376O :  5.21  751O :  5.17  298O :  5.16  388O :  5.10  589O :  4.98
   82O :  4.87  103O :  4.79  622O :  4.70  436O :  4.57  487O :  4.54  319O :  4.52  529O :  4.50  517O :  4.46   97O :  4.42  664O :  4.20  193O :  4.18  694O :  4.16
  697O :  4.14  577O :  4.12  736O :  4.00  250O :  3.98  484O :  3.98  616O :  3.96  136O :  3.95  466O :  3.95   58O :  3.93  316O :  3.92  463O :  3.87   73O :  3.86
  271O :  3.85  691O :  3.83  178O :  3.83    1O :  3.81  556O :  3.74  355O :  3.66   31O :  3.57  667O :  3.55  373O :  3.53  592O :  3.46  754O :  3.44  199O :  3.41
  448O :  3.38  541O :  3.31   16O :  3.30  646O :  3.28  574O :  3.27  520O :  3.26  706O :  3.23  100O :  3.23  604O :  3.21    7O :  3.18  535O :  3.18  115O :  3.16
  145O :  3.14  571O :  3.09  634O :  3.07  619O :  3.04  475O :  3.02  532O :  3.01  628O :  3.00  451O :  2.99   46O :  2.97  361O :  2.92  643O :  2.87   76O :  2.86
  748O :  2.85  721O :  2.82  208O :  2.82  307O :  2.65  412O :  2.65   94O :  2.65  286O :  2.62  673O :  2.61  637O :  2.59  154O :  2.53   34O :  2.53  220O :  2.51
  277O :  2.47  709O :  2.44  493O :  2.44  346O :  2.43  118O :  2.43  586O :  2.37  625O :  2.34  712O :  2.31  445O :  2.27  142O :  2.27  514O :  2.26  505O :  2.26
  688O :  2.24  460O :  2.24   55O :  2.23  442O :  2.23  241O :  2.21   22O :  2.21  205O :  2.20  562O :  2.20  163O :  2.18  717H :  2.13  232O :  2.10  655O :  2.05
  421O :  2.03  565O :  2.03  670O :  2.02  499O :  1.99  262O :  1.97  217O :  1.95  559O :  1.93  292O :  1.90  367O :  1.88  631O :  1.88  661O :  1.84  538O :  1.79
  226O :  1.79  613O :  1.79  405H :  1.78  547O :  1.77  682O :  1.75  676O :  1.75  157O :  1.74  238O :  1.72  190O :  1.69  400O :  1.65   28O :  1.64  109O :  1.63
   40O :  1.62  133O :  1.55  313O :  1.50  511O :  1.47  652O :  1.46  610O :  1.45  679O :  1.44  247O :  1.43  181O :  1.42  211O :  1.41   85O :  1.41  418O :  1.39
  568O :  1.35  409O :  1.35  379O :  1.34  322O :  1.32   26H :  1.32  184O :  1.29  295O :  1.28  580O :  1.27  685O :  1.27  508O :  1.26  385O :  1.26  703O :  1.25
  439O :  1.25  364O :  1.25  256O :  1.24  718O :  1.24  235O :  1.23  397O :  1.22  310O :  1.21  331O :  1.20  595O :  1.19   70O :  1.18  304O :  1.17  128H :  1.16
  106O :  1.09  417H :  1.06  722H :  1.05  382O :  1.03  416H :  1.00  340O :  0.99  607O :  0.98  166O :  0.97  523O :  0.96  358O :  0.95  328O :  0.94  553O :  0.92
  390H :  0.91  572H :  0.90   44H :  0.89  202O :  0.87  139O :  0.87  172O :  0.86  437H :  0.85  544O :  0.84  146H :  0.83   49O :  0.83  234H :  0.80  343O :  0.79
   36H :  0.79   74H :  0.77  650H :  0.77  658O :  0.76  624H :  0.76  479H :  0.75  465H :  0.75  724O :  0.75  644H :  0.73  496O :  0.73  640O :  0.73  337O :  0.72
  727O :  0.71  353H :  0.70  745O :  0.70  222H :  0.70  317H :  0.70  268O :  0.70  187O :  0.69  584H :  0.69   67O :  0.69  693H :  0.69  492H :  0.68  283O :  0.64
  259O :  0.64  753H :  0.64   88O :  0.63  494H :  0.63  669H :  0.62  253O :  0.62  144H :  0.60  698H :  0.60  732H :  0.59  117H :  0.57  170H :  0.55  467H :  0.55
  601O :  0.54  469O :  0.54  274O :  0.53  488H :  0.51   59H :  0.51  229O :  0.51  210H :  0.51   52O :  0.51  531H :  0.51  267H :  0.49  124O :  0.48  567H :  0.47
  282H :  0.47   23H :  0.46  740H :  0.43   13O :  0.43  599H :  0.42  104H :  0.42  594H :  0.41  707H :  0.41  686H :  0.40  519H :  0.40  407H :  0.40  444H :  0.40
  347H :  0.40  110H :  0.40  454O :  0.39   32H :  0.39   12H :  0.39  675H :  0.39  638H :  0.38  341H :  0.37  354H :  0.37  614H :  0.37   98H :  0.36   60H :  0.36
   62H :  0.36  486H :  0.35   78H :  0.35  242H :  0.35   91O :  0.34  663H :  0.34  476H :  0.34   24H :  0.34   87H :  0.34  389H :  0.33  173H :  0.33  612H :  0.33
  678H :  0.33  320H :  0.33  491H :  0.33  570H :  0.33  204H :  0.32  462H :  0.32    4O :  0.32  351H :  0.32  657H :  0.32  472O :  0.31  408H :  0.31  246H :  0.31
  387H :  0.30  560H :  0.30  175O :  0.30  160O :  0.30   47H :  0.29  521H :  0.29  108H :  0.28  428H :  0.28  621H :  0.28   77H :  0.28  433O :  0.27   27H :  0.27
  446H :  0.27  386H :  0.27  305H :  0.26  704H :  0.25  605H :  0.25  641H :  0.25  735H :  0.25  398H :  0.24   96H :  0.24  696H :  0.24  449H :  0.24  368H :  0.24
  411H :  0.24  301O :  0.24  432H :  0.23  227H :  0.23   56H :  0.23  470H :  0.22   71H :  0.22  506H :  0.22  668H :  0.22  600H :  0.21  654H :  0.21  159H :  0.21
  700O :  0.21  500H :  0.21  107H :  0.21  464H :  0.21  426H :  0.21  588H :  0.21  214O :  0.21  263H :  0.21  618H :  0.20   89H :  0.19  585H :  0.19  333H :  0.19
  579H :  0.19  587H :  0.19  434H :  0.19  249H :  0.19  552H :  0.18  674H :  0.18  629H :  0.18  273H :  0.18  324H :  0.18  456H :  0.18  485H :  0.18  186H :  0.17
  564H :  0.17  391O :  0.17   41H :  0.16  420H :  0.16  501H :  0.16  677H :  0.16  404H :  0.15    5H :  0.15  245H :  0.15  332H :  0.15  533H :  0.14  630H :  0.14
  481O :  0.14  450H :  0.14   81H :  0.14  558H :  0.14  548H :  0.14   20H :  0.14  120H :  0.14  633H :  0.14  122H :  0.13  557H :  0.13  264H :  0.13  255H :  0.13
  457O :  0.13  374H :  0.13  293H :  0.13  135H :  0.13  635H :  0.13  212H :  0.12   21H :  0.12  578H :  0.12  743H :  0.12  185H :  0.12  591H :  0.12  452H :  0.12
  602H :  0.12  147H :  0.12   99H :  0.12  101H :  0.11  699H :  0.11  130O :  0.11  431H :  0.11  593H :  0.11  543H :  0.11  183H :  0.11  551H :  0.11  131H :  0.11
  681H :  0.11   51H :  0.11  555H :  0.11  207H :  0.11  182H :  0.11  711H :  0.10  509H :  0.10  116H :  0.10  440H :  0.10  653H :  0.10  545H :  0.10  359H :  0.10
  134H :  0.10  461H :  0.09  423H :  0.09  429H :  0.09  447H :  0.09  152H :  0.09  344H :  0.09   15H :  0.09  203H :  0.09   95H :  0.09  747H :  0.09  196O :  0.09
  126H :  0.09  708H :  0.09  525H :  0.09  251H :  0.08  161H :  0.08  233H :  0.08  377H :  0.08  394O :  0.08  278H :  0.08  671H :  0.08  651H :  0.08  129H :  0.08
  297H :  0.08  443H :  0.08  215H :  0.07  549H :  0.07   84H :  0.07  360H :  0.07  137H :  0.07  513H :  0.07   18H :  0.07  321H :  0.07  455H :  0.07
    7 LP   *******   0.00 -79.72432 -36.37996   3.77523   43O : 29.97  550O : 10.61   79O : 10.37  526O : 10.32   19O :  9.93  715O :  9.83  406O :  9.82  583O :  9.73  127O :  9.70   10O :  9.52  427O :  9.50  415O :  9.14
  490O :  8.98  430O :  8.73   25O :  8.38  403O :  8.13  739O :  8.07  502O :  7.92  349O :  7.56  352O :  7.38  148O :  7.37  169O :  7.26  742O :  7.14  223O :  6.91
  730O :  6.66  334O :  6.31  733O :  6.25  244O :  6.24  478O :  6.23  598O :  5.98  265O :  5.96  289O :  5.94  370O :  5.94  280O :  5.84   37O :  5.73  151O :  5.66
  649O :  5.57   64O :  5.54  121O :  5.51   61O :  5.42  325O :  5.30  424O :  5.23  112O :  5.19  376O :  5.17  751O :  5.14  298O :  5.12  388O :  5.06  589O :  4.94
   82O :  4.83  103O :  4.76  622O :  4.66  436O :  4.54  487O :  4.51  319O :  4.49  529O :  4.47  517O :  4.41   97O :  4.38  664O :  4.17  193O :  4.15  694O :  4.14
  697O :  4.11  577O :  4.09  316O :  4.00  736O :  3.96  250O :  3.95  484O :  3.95  616O :  3.93  136O :  3.92  466O :  3.92   58O :  3.90  463O :  3.84   73O :  3.83
  271O :  3.82  691O :  3.80  178O :  3.80    1O :  3.78  556O :  3.71  355O :  3.63   31O :  3.55  667O :  3.53  373O :  3.51  448O :  3.44  592O :  3.44  754O :  3.42
  199O :  3.38  541O :  3.29   16O :  3.28  646O :  3.26  574O :  3.25  520O :  3.23  706O :  3.21  100O :  3.21  604O :  3.18  145O :  3.18    7O :  3.16  535O :  3.16
  115O :  3.13  571O :  3.07  634O :  3.05  619O :  3.01  475O :  3.00  532O :  2.98  628O :  2.98  451O :  2.97   46O :  2.94  361O :  2.90  643O :  2.85   76O :  2.84
  748O :  2.83  721O :  2.80  208O :  2.79  307O :  2.64  412O :  2.63   94O :  2.63  286O :  2.60  673O :  2.59  637O :  2.57  154O :  2.52   34O :  2.51  220O :  2.49
  277O :  2.45  709O :  2.42  493O :  2.42  346O :  2.41  118O :  2.41  586O :  2.35  625O :  2.32  712O :  2.29  445O :  2.26  514O :  2.25  142O :  2.24  505O :  2.24
  688O :  2.23  460O :  2.22   55O :  2.22  442O :  2.21  241O :  2.20   22O :  2.19  205O :  2.19  562O :  2.18  163O :  2.16  717H :  2.11  232O :  2.08  655O :  2.03
  421O :  2.02  565O :  2.01  670O :  2.01  499O :  1.97  262O :  1.95  217O :  1.94  559O :  1.92  292O :  1.88  367O :  1.86  631O :  1.86  661O :  1.83  538O :  1.79
  226O :  1.78  613O :  1.77  405H :  1.77  547O :  1.76  682O :  1.74  676O :  1.73  157O :  1.72  238O :  1.71  190O :  1.67  400O :  1.64   28O :  1.63  109O :  1.62
   40O :  1.60  133O :  1.54  313O :  1.49  511O :  1.46  652O :  1.45  610O :  1.43  247O :  1.42  181O :  1.41  679O :  1.41  211O :  1.40  418O :  1.38   85O :  1.37
  568O :  1.34  409O :  1.34  379O :  1.33  322O :  1.31   26H :  1.31  184O :  1.28  295O :  1.27  580O :  1.26  685O :  1.26  508O :  1.26  703O :  1.25  385O :  1.24
  439O :  1.24  364O :  1.24  256O :  1.23  718O :  1.23  235O :  1.22  397O :  1.21  310O :  1.20  331O :  1.19  595O :  1.18   70O :  1.18  304O :  1.16  128H :  1.15
  106O :  1.09  417H :  1.06  722H :  1.04  382O :  1.03  416H :  1.00  340O :  0.98  607O :  0.97  166O :  0.96  523O :  0.96  358O :  0.94  328O :  0.93  553O :  0.92
  390H :  0.91  572H :  0.89   44H :  0.88  202O :  0.86  139O :  0.86  172O :  0.85  437H :  0.84  544O :  0.83  146H :  0.83   49O :  0.82  234H :  0.80  343O :  0.79
   36H :  0.78   74H :  0.77  650H :  0.76  658O :  0.75  624H :  0.75  479H :  0.75  465H :  0.74  724O :  0.74  644H :  0.72  496O :  0.72  640O :  0.72  337O :  0.71
  727O :  0.71  353H :  0.70  745O :  0.70  222H :  0.69  268O :  0.69  317H :  0.69  187O :  0.68  584H :  0.68   67O :  0.68  693H :  0.68  492H :  0.68  283O :  0.64
  229O :  0.64  259O :  0.64  753H :  0.63   88O :  0.63  494H :  0.62  669H :  0.62  253O :  0.61  144H :  0.60  698H :  0.60  732H :  0.59  117H :  0.57  467H :  0.55
  170H :  0.55  601O :  0.53  469O :  0.53  274O :  0.52  488H :  0.51   59H :  0.51  210H :  0.50   52O :  0.50  531H :  0.50  267H :  0.49  124O :  0.48  567H :  0.47
  282H :  0.47   23H :  0.46  740H :  0.43   13O :  0.42  599H :  0.42  104H :  0.41  594H :  0.41  707H :  0.40  686H :  0.40  519H :  0.40  110H :  0.40  407H :  0.40
  444H :  0.40  347H :  0.40  454O :  0.39   32H :  0.39   12H :  0.39  675H :  0.39  638H :  0.38  389H :  0.37  341H :  0.37  354H :  0.36  614H :  0.36   98H :  0.36
   60H :  0.36   62H :  0.36  486H :  0.35   78H :  0.35  242H :  0.35  663H :  0.34  476H :  0.34   24H :  0.34   91O :  0.33   87H :  0.33  173H :  0.33  612H :  0.33
  678H :  0.33  491H :  0.33  570H :  0.33  320H :  0.32  351H :  0.32  204H :  0.32    4O :  0.32  657H :  0.31  472O :  0.31  408H :  0.31  387H :  0.30  246H :  0.30
  560H :  0.30  160O :  0.30  175O :  0.30  462H :  0.29   47H :  0.29  521H :  0.29  108H :  0.28  428H :  0.28  621H :  0.28   77H :  0.27  433O :  0.27   27H :  0.27
  446H :  0.27  386H :  0.27  305H :  0.26  704H :  0.25  605H :  0.24  641H :  0.24  735H :  0.24  398H :  0.24   96H :  0.24  696H :  0.24  368H :  0.24  411H :  0.24
  301O :  0.24  449H :  0.24  432H :  0.23  227H :  0.23   56H :  0.22  470H :  0.22   71H :  0.22  506H :  0.22  668H :  0.21  600H :  0.21  654H :  0.21  159H :  0.21
  700O :  0.21  500H :  0.21  107H :  0.21  464H :  0.21  426H :  0.20  588H :  0.20  214O :  0.20  263H :  0.20  618H :  0.20   89H :  0.19  585H :  0.19  333H :  0.19
  587H :  0.19  579H :  0.19  249H :  0.19  434H :  0.19  674H :  0.18  629H :  0.18  273H :  0.18  324H :  0.18  450H :  0.18  456H :  0.18  485H :  0.17  186H :  0.17
  564H :  0.17  391O :  0.17   41H :  0.16  420H :  0.16  501H :  0.16  677H :  0.16  245H :  0.15    5H :  0.15  332H :  0.14  404H :  0.14  533H :  0.14  630H :  0.14
  481O :  0.14   81H :  0.14  558H :  0.14  548H :  0.14   20H :  0.14  552H :  0.14  120H :  0.14  633H :  0.13  122H :  0.13  557H :  0.13  264H :  0.13  255H :  0.13
  457O :  0.13  374H :  0.13  293H :  0.13  135H :  0.13  635H :  0.12  212H :  0.12   21H :  0.12  578H :  0.12  743H :  0.12  185H :  0.12  591H :  0.12  452H :  0.12
  602H :  0.12   99H :  0.12  101H :  0.11  147H :  0.11  699H :  0.11  130O :  0.11  593H :  0.11  431H :  0.11  543H :  0.11  183H :  0.11  131H :  0.11   51H :  0.11
  681H :  0.11  555H :  0.11  207H :  0.10  182H :  0.10  711H :  0.10  509H :  0.10  116H :  0.10  440H :  0.10  653H :  0.10  545H :  0.10  461H :  0.10  359H :  0.10
  134H :  0.09  423H :  0.09  429H :  0.09  447H :  0.09  152H :  0.09  344H :  0.09   15H :  0.09  203H :  0.09   95H :  0.09  747H :  0.09  196O :  0.09  126H :  0.09
  708H :  0.09  525H :  0.08  251H :  0.08  161H :  0.08  233H :  0.08  377H :  0.08  278H :  0.08  394O :  0.08  671H :  0.08  551H :  0.08  651H :  0.08  680H :  0.08
  129H :  0.08  297H :  0.08  443H :  0.08  215H :  0.07  549H :  0.07   84H :  0.07  360H :  0.07  137H :  0.07  513H :  0.07   18H :  0.07  321H :  0.07  455H :  0.07
    8 LP   *******   0.00 -68.66100 -45.20395  -3.94446   43O : 28.34   79O :  9.80  526O :  9.76  349O :  9.42   19O :  9.38  715O :  9.30  406O :  9.28  583O :  9.20  127O :  9.17   10O :  9.01  427O :  8.99  415O :  8.65
  490O :  8.49  430O :  8.25   25O :  7.93  550O :  7.75  403O :  7.68  739O :  7.63  502O :  7.49  352O :  6.97  148O :  6.97  169O :  6.86  742O :  6.76  223O :  6.53
  730O :  6.30  334O :  5.97  733O :  5.91  478O :  5.89  244O :  5.83  598O :  5.66  265O :  5.64  289O :  5.62  370O :  5.62  280O :  5.52   37O :  5.42  151O :  5.36
  649O :  5.26   64O :  5.23  121O :  5.21   61O :  5.13  325O :  5.01  424O :  4.94  112O :  4.91  376O :  4.89  751O :  4.85  298O :  4.84  388O :  4.79  589O :  4.67
   82O :  4.57  103O :  4.50  622O :  4.41  436O :  4.29  487O :  4.26  319O :  4.25  529O :  4.23  517O :  4.17   97O :  4.15  664O :  3.94  193O :  3.92  694O :  3.91
  697O :  3.88  577O :  3.86  316O :  3.78  250O :  3.74  484O :  3.73  616O :  3.72  136O :  3.71  466O :  3.71   58O :  3.68  463O :  3.63   73O :  3.62  271O :  3.61
  736O :  3.60  178O :  3.59  691O :  3.59    1O :  3.57  556O :  3.51  355O :  3.43   31O :  3.36  667O :  3.34  373O :  3.32  592O :  3.25  754O :  3.23  199O :  3.20
  448O :  3.18  541O :  3.11   16O :  3.10  646O :  3.08  574O :  3.07  520O :  3.05  706O :  3.03  100O :  3.03  604O :  3.01  145O :  3.01    7O :  2.98  535O :  2.98
  115O :  2.96  571O :  2.90  634O :  2.88  619O :  2.85  475O :  2.83  532O :  2.82  628O :  2.81  451O :  2.81   46O :  2.78  361O :  2.74  643O :  2.69   76O :  2.68
  748O :  2.67  721O :  2.65  208O :  2.64  307O :  2.49  412O :  2.49   94O :  2.49  286O :  2.46  673O :  2.45  637O :  2.43  154O :  2.38   34O :  2.37  220O :  2.35
  277O :  2.32  709O :  2.29  493O :  2.29  346O :  2.28  118O :  2.28  586O :  2.23  625O :  2.19  712O :  2.17  445O :  2.13  142O :  2.13  514O :  2.13  505O :  2.12
  688O :  2.11  460O :  2.10   55O :  2.09  442O :  2.09  241O :  2.08   22O :  2.07  205O :  2.07  562O :  2.06  163O :  2.05  717H :  2.00  232O :  1.97  655O :  1.92
  421O :  1.91  565O :  1.90  670O :  1.90  499O :  1.87  262O :  1.85  559O :  1.84  217O :  1.83  292O :  1.78  367O :  1.76  631O :  1.76  661O :  1.73  538O :  1.69
  226O :  1.68  613O :  1.68  405H :  1.68  547O :  1.66  682O :  1.64  676O :  1.64  157O :  1.63  238O :  1.62  190O :  1.58  400O :  1.55   28O :  1.54  109O :  1.54
   40O :  1.52  133O :  1.46  313O :  1.41  511O :  1.38  652O :  1.37  610O :  1.36  247O :  1.35  181O :  1.33  679O :  1.33  211O :  1.32   85O :  1.31  418O :  1.30
  568O :  1.27  409O :  1.26  379O :  1.25  322O :  1.24   26H :  1.24  184O :  1.22  295O :  1.20  580O :  1.20  685O :  1.19  508O :  1.19  703O :  1.18  385O :  1.18
  439O :  1.17  364O :  1.17  256O :  1.16  718O :  1.16  235O :  1.15  397O :  1.14  310O :  1.13  331O :  1.13  595O :  1.12   70O :  1.11  304O :  1.10  128H :  1.09
  106O :  1.05  417H :  1.00  722H :  0.99  382O :  0.97  416H :  0.94  340O :  0.93  607O :  0.92  166O :  0.91  523O :  0.90  358O :  0.89  328O :  0.88  553O :  0.87
  390H :  0.86  572H :  0.84   44H :  0.84  202O :  0.82  139O :  0.81  172O :  0.81  437H :  0.79  544O :  0.79  146H :  0.79   49O :  0.77  234H :  0.75  343O :  0.74
   36H :  0.74   74H :  0.73  650H :  0.72  658O :  0.71  624H :  0.71  479H :  0.71  465H :  0.70  724O :  0.70  644H :  0.69  496O :  0.68  640O :  0.68  337O :  0.68
  727O :  0.67  353H :  0.66  745O :  0.66  222H :  0.66  268O :  0.65  317H :  0.65  187O :  0.65  584H :  0.64   67O :  0.64  693H :  0.64  492H :  0.64  229O :  0.60
  283O :  0.60  259O :  0.60  753H :  0.60   88O :  0.60  494H :  0.59  669H :  0.58  253O :  0.58  144H :  0.57  698H :  0.57  732H :  0.55  117H :  0.54  170H :  0.52
  467H :  0.52  601O :  0.50  469O :  0.50  274O :  0.50  488H :  0.48   59H :  0.48  210H :  0.48   52O :  0.48  531H :  0.47  267H :  0.46  124O :  0.45  567H :  0.44
  282H :  0.44   23H :  0.43  740H :  0.41   13O :  0.40  599H :  0.40  104H :  0.39  594H :  0.38  707H :  0.38  686H :  0.38  519H :  0.38  110H :  0.38  407H :  0.38
  444H :  0.38  347H :  0.37  454O :  0.37   32H :  0.37   12H :  0.37  675H :  0.37  638H :  0.36  389H :  0.35  341H :  0.35  354H :  0.34  614H :  0.34   98H :  0.34
   60H :  0.34   62H :  0.34  486H :  0.33   78H :  0.33  242H :  0.33  663H :  0.32  476H :  0.32   24H :  0.32   91O :  0.32  173H :  0.31  612H :  0.31  678H :  0.31
  491H :  0.31  570H :  0.31  320H :  0.31   87H :  0.31  204H :  0.30  462H :  0.30    4O :  0.30  657H :  0.30  472O :  0.30  408H :  0.29  246H :  0.29  387H :  0.29
  175O :  0.28  160O :  0.28  560H :  0.28   47H :  0.27  521H :  0.27  108H :  0.27  428H :  0.26  621H :  0.26   77H :  0.26  433O :  0.26   27H :  0.26  446H :  0.25
  386H :  0.25  305H :  0.25  351H :  0.24  704H :  0.23  605H :  0.23  641H :  0.23  735H :  0.23  398H :  0.23   96H :  0.23  696H :  0.23  449H :  0.23  368H :  0.23
  411H :  0.23  301O :  0.23  432H :  0.22  227H :  0.22   56H :  0.21  470H :  0.21   71H :  0.21  506H :  0.21  668H :  0.20  600H :  0.20  654H :  0.20  159H :  0.20
  700O :  0.20  500H :  0.20  107H :  0.20  464H :  0.19  426H :  0.19  588H :  0.19  214O :  0.19  263H :  0.19  618H :  0.19   89H :  0.18  585H :  0.18  333H :  0.18
  579H :  0.18  587H :  0.18  434H :  0.18  249H :  0.18  674H :  0.17  629H :  0.17  273H :  0.17  552H :  0.17  324H :  0.17  456H :  0.17  485H :  0.16  186H :  0.16
  564H :  0.16  391O :  0.16   41H :  0.15  420H :  0.15  501H :  0.15  677H :  0.15    5H :  0.14  245H :  0.14  332H :  0.14  404H :  0.14  533H :  0.13  630H :  0.13
  481O :  0.13   81H :  0.13  450H :  0.13  558H :  0.13  548H :  0.13   20H :  0.13  120H :  0.13  633H :  0.13  122H :  0.13  557H :  0.12  264H :  0.12  457O :  0.12
  255H :  0.12  374H :  0.12  293H :  0.12  135H :  0.12  635H :  0.12  212H :  0.12   21H :  0.12  578H :  0.12  737H :  0.12  743H :  0.12  185H :  0.11  591H :  0.11
  452H :  0.11  602H :  0.11   99H :  0.11  101H :  0.11  147H :  0.11  699H :  0.11  130O :  0.11  431H :  0.10  593H :  0.10  543H :  0.10  551H :  0.10  183H :  0.10
  131H :  0.10   51H :  0.10  681H :  0.10  555H :  0.10  207H :  0.10  182H :  0.10  711H :  0.10  509H :  0.10  116H :  0.10  440H :  0.09  545H :  0.09  653H :  0.09
  359H :  0.09  134H :  0.09  461H :  0.09  423H :  0.09  429H :  0.09  447H :  0.09  152H :  0.09  344H :  0.09   15H :  0.09  203H :  0.08   95H :  0.08  747H :  0.08
  196O :  0.08  126H :  0.08  708H :  0.08  525H :  0.08  251H :  0.08  161H :  0.08  233H :  0.08  377H :  0.08  278H :  0.08  394O :  0.08  671H :  0.08  651H :  0.07
  680H :  0.07  129H :  0.07  297H :  0.07  443H :  0.07  215H :  0.07
    9 LP   *******   0.00 -38.50241  -3.29120 -13.70402   43O : 28.09  127O : 11.03   79O :  9.72  526O :  9.68   19O :  9.30  715O :  9.21  406O :  9.20  583O :  9.12   10O :  8.93  427O :  8.91  415O :  8.57  490O :  8.42
  430O :  8.18   25O :  7.86  550O :  7.72  403O :  7.62  739O :  7.56  502O :  7.42  349O :  7.11  352O :  6.91  148O :  6.90  169O :  6.80  742O :  6.70  223O :  6.47
  730O :  6.24  334O :  5.92  733O :  5.85  478O :  5.84  244O :  5.78  598O :  5.61  265O :  5.59  289O :  5.57  370O :  5.57  280O :  5.43   37O :  5.39  151O :  5.31
  649O :  5.22   64O :  5.19  121O :  5.17   61O :  5.09  325O :  4.97  424O :  4.90  112O :  4.87  376O :  4.85  751O :  4.81  298O :  4.80  388O :  4.74  589O :  4.63
   82O :  4.53  103O :  4.46  622O :  4.37  436O :  4.25  487O :  4.22  319O :  4.21  529O :  4.19  517O :  4.13   97O :  4.11  664O :  3.92  193O :  3.89  694O :  3.88
  577O :  3.85  697O :  3.85  316O :  3.75  736O :  3.72  250O :  3.70  484O :  3.70  616O :  3.69  136O :  3.68  466O :  3.67   58O :  3.64  463O :  3.60   73O :  3.59
  271O :  3.58  691O :  3.56  178O :  3.56    1O :  3.54  556O :  3.48  355O :  3.40   31O :  3.33  667O :  3.31  373O :  3.29  592O :  3.22  754O :  3.20  199O :  3.17
  448O :  3.14  541O :  3.08   16O :  3.07  646O :  3.05  574O :  3.04  520O :  3.03  706O :  3.01  100O :  3.01  604O :  2.98  145O :  2.98    7O :  2.96  535O :  2.96
  115O :  2.89  571O :  2.88  634O :  2.85  619O :  2.83  475O :  2.81  532O :  2.80   46O :  2.80  628O :  2.79  451O :  2.78  361O :  2.71  643O :  2.67  748O :  2.65
  208O :  2.63  721O :  2.63   76O :  2.57  307O :  2.47  412O :  2.47   94O :  2.46  286O :  2.44  673O :  2.43  637O :  2.41  154O :  2.35   34O :  2.35  220O :  2.33
  277O :  2.30  709O :  2.27  493O :  2.27  346O :  2.26  118O :  2.26  586O :  2.21  625O :  2.17  712O :  2.14  445O :  2.12  142O :  2.11  514O :  2.11  505O :  2.10
  460O :  2.09  688O :  2.09   55O :  2.08  442O :  2.07  241O :  2.06   22O :  2.05  205O :  2.05  562O :  2.04  163O :  2.03  717H :  1.98  232O :  1.95  655O :  1.91
  421O :  1.89  670O :  1.88  565O :  1.88  499O :  1.85  262O :  1.83  217O :  1.82  559O :  1.80  292O :  1.76  367O :  1.75  631O :  1.74  661O :  1.71  538O :  1.67
  226O :  1.67  613O :  1.66  405H :  1.66  547O :  1.65  682O :  1.63  676O :  1.62  157O :  1.62  238O :  1.60  190O :  1.57  400O :  1.54   28O :  1.53  109O :  1.52
   40O :  1.50  133O :  1.44  313O :  1.39  652O :  1.36  610O :  1.35  247O :  1.33  181O :  1.32  679O :  1.32  211O :  1.31   85O :  1.31  418O :  1.29  511O :  1.28
  568O :  1.26  409O :  1.25  379O :  1.24  322O :  1.23   26H :  1.23  184O :  1.21  295O :  1.19  580O :  1.19  685O :  1.18  508O :  1.18  703O :  1.17  385O :  1.16
  439O :  1.16  364O :  1.16  256O :  1.15  718O :  1.15  235O :  1.14  397O :  1.13  310O :  1.12  331O :  1.12  595O :  1.11   70O :  1.11  304O :  1.09  106O :  1.02
  417H :  0.99  722H :  0.98  382O :  0.96  128H :  0.95  416H :  0.93  340O :  0.92  607O :  0.91  166O :  0.90  523O :  0.90  358O :  0.88  328O :  0.87  553O :  0.86
  390H :  0.85  572H :  0.84   44H :  0.83  202O :  0.81  139O :  0.81  172O :  0.80  437H :  0.79  544O :  0.79  146H :  0.78   49O :  0.75  234H :  0.75  343O :  0.74
   36H :  0.73   74H :  0.72  650H :  0.71  658O :  0.71  624H :  0.70  479H :  0.70  465H :  0.70  724O :  0.69  644H :  0.68  496O :  0.68  640O :  0.67  337O :  0.67
  727O :  0.66  353H :  0.65  745O :  0.65  222H :  0.65  268O :  0.65  317H :  0.64  187O :  0.64  584H :  0.64   67O :  0.64  693H :  0.64  492H :  0.63  229O :  0.60
  283O :  0.60  753H :  0.60  259O :  0.60   88O :  0.59  494H :  0.58  669H :  0.58  253O :  0.58  144H :  0.56  698H :  0.56  732H :  0.55  117H :  0.52  467H :  0.51
  170H :  0.51  601O :  0.50  469O :  0.50  274O :  0.49   59H :  0.48  488H :  0.48  210H :  0.47  531H :  0.47   52O :  0.47  267H :  0.46  282H :  0.45  124O :  0.45
  567H :  0.44   23H :  0.43  740H :  0.40   13O :  0.40  599H :  0.39  104H :  0.39  594H :  0.38  707H :  0.38  686H :  0.38  519H :  0.37  110H :  0.37  407H :  0.37
  444H :  0.37  347H :  0.37  454O :  0.37   32H :  0.37   12H :  0.36  675H :  0.36  638H :  0.36  389H :  0.34  341H :  0.34  354H :  0.34  614H :  0.34   98H :  0.34
   62H :  0.33   60H :  0.33  486H :  0.33  242H :  0.32   91O :  0.32  663H :  0.32  476H :  0.32   24H :  0.32   87H :  0.32  173H :  0.31  612H :  0.31  678H :  0.31
  491H :  0.30  570H :  0.30  320H :  0.30  204H :  0.30  462H :  0.30    4O :  0.30   78H :  0.30  351H :  0.30  657H :  0.29  472O :  0.29  408H :  0.29  246H :  0.29
  387H :  0.28  560H :  0.28  160O :  0.28  175O :  0.27   47H :  0.27  521H :  0.27  108H :  0.26  428H :  0.26  621H :  0.26  433O :  0.25   27H :  0.25  446H :  0.25
  386H :  0.25   77H :  0.25  305H :  0.24  704H :  0.23  605H :  0.23  641H :  0.23  735H :  0.23  214O :  0.23  398H :  0.23   96H :  0.23  696H :  0.23  449H :  0.23
  368H :  0.22  411H :  0.22  301O :  0.22  227H :  0.21  432H :  0.21   56H :  0.21   71H :  0.21  470H :  0.21  506H :  0.20  668H :  0.20  600H :  0.20  654H :  0.20
  159H :  0.20  700O :  0.20  500H :  0.20  107H :  0.19  464H :  0.19  426H :  0.19  588H :  0.19  263H :  0.19  618H :  0.19   89H :  0.18  585H :  0.18  333H :  0.18
  579H :  0.18  587H :  0.18  434H :  0.18  249H :  0.17  552H :  0.17  674H :  0.17  629H :  0.17  273H :  0.17  324H :  0.17  456H :  0.16  485H :  0.16  186H :  0.16
  564H :  0.16  391O :  0.16   41H :  0.15  420H :  0.15  501H :  0.15  677H :  0.15    5H :  0.14  245H :  0.14  332H :  0.13  404H :  0.13  533H :  0.13  630H :  0.13
  481O :  0.13  450H :  0.13   81H :  0.13  558H :  0.13  548H :  0.13   20H :  0.13  120H :  0.13  633H :  0.13  122H :  0.12  557H :  0.12  264H :  0.12  457O :  0.12
  255H :  0.12  185H :  0.12  374H :  0.12  293H :  0.12  135H :  0.12  635H :  0.12  212H :  0.12   21H :  0.12  743H :  0.11  591H :  0.11  452H :  0.11  602H :  0.11
  578H :  0.11   99H :  0.11  101H :  0.11  147H :  0.11  699H :  0.10  130O :  0.10  593H :  0.10  431H :  0.10  543H :  0.10  183H :  0.10  551H :  0.10  131H :  0.10
  681H :  0.10  555H :  0.10  207H :  0.10  182H :  0.10  711H :  0.10  129H :  0.10  509H :  0.10  116H :  0.09  440H :  0.09  653H :  0.09  545H :  0.09   51H :  0.09
  359H :  0.09  134H :  0.09  461H :  0.09  423H :  0.09  429H :  0.09  447H :  0.09  152H :  0.09  344H :  0.08   15H :  0.08  215H :  0.08  203H :  0.08   95H :  0.08
  747H :  0.08  196O :  0.08  126H :  0.08  708H :  0.08  525H :  0.08  251H :  0.08  161H :  0.08  233H :  0.08  377H :  0.08  278H :  0.08  394O :  0.08  671H :  0.07
  651H :  0.07  680H :  0.07  297H :  0.07  443H :  0.07
   10 LP   *******   0.00  50.42029  -3.63190  30.78310   43O : 27.77   79O :  9.61  526O :  9.57   19O :  9.20  715O :  9.11  406O :  9.10  352O :  9.05  583O :  9.02  127O :  8.99   10O :  8.83  427O :  8.80  415O :  8.49
  490O :  8.32  430O :  8.09   25O :  7.77  550O :  7.64  403O :  7.53  739O :  7.48  502O :  7.34  349O :  7.03  148O :  6.83  169O :  6.73  742O :  6.62  223O :  6.40
  730O :  6.17  334O :  5.85  733O :  5.79  478O :  5.77  244O :  5.71  598O :  5.54  265O :  5.52  289O :  5.51  370O :  5.50  280O :  5.41   37O :  5.31  151O :  5.25
  649O :  5.16   64O :  5.13  121O :  5.11   61O :  5.02  325O :  4.91  424O :  4.85  112O :  4.81  376O :  4.79  751O :  4.76  298O :  4.74  388O :  4.69  589O :  4.58
   82O :  4.48  103O :  4.41  622O :  4.32  436O :  4.21  487O :  4.18  319O :  4.16  529O :  4.14  517O :  4.09   97O :  4.06  664O :  3.86  193O :  3.84  694O :  3.83
  697O :  3.81  577O :  3.79  316O :  3.71  736O :  3.68  250O :  3.66  484O :  3.66  616O :  3.64  466O :  3.64  136O :  3.64   58O :  3.61  463O :  3.56   73O :  3.55
  271O :  3.54  691O :  3.52  178O :  3.52    1O :  3.50  556O :  3.44  355O :  3.36   31O :  3.29  667O :  3.27  373O :  3.25  592O :  3.19  754O :  3.17  199O :  3.14
[...]
   371   1 h    0.887 --   370 o    0.833
   372   1 h    0.894 --   370 o    0.856
   373   8 o    1.830 --   375 h    0.905   374 h    0.788
   374   1 h    0.878 --   373 o    0.788
   375   1 h    0.911 --   373 o    0.905
   376   8 o    1.852 --   377 h    0.857   378 h    0.812
   377   1 h    0.886 --   376 o    0.857
   378   1 h    0.882 --   376 o    0.812
   379   8 o    1.867 --   380 h    0.850   381 h    0.849
   380   1 h    0.888 --   379 o    0.850
   381   1 h    0.886 --   379 o    0.849
   382   8 o    1.850 --   383 h    0.868   384 h    0.805
   383   1 h    0.899 --   382 o    0.868
   384   1 h    0.881 --   382 o    0.805
   385   8 o    1.837 --   386 h    0.851   387 h    0.811
   386   1 h    0.890 --   385 o    0.851
   387   1 h    0.880 --   385 o    0.811
   388   8 o    1.821 --   390 h    0.858   389 h    0.837
   389   1 h    0.892 --   388 o    0.837
   390   1 h    0.896 --   388 o    0.858
   391   8 o    1.844 --   392 h    0.899   393 h    0.815
   392   1 h    0.909 --   391 o    0.899
   393   1 h    0.884 --   391 o    0.815
   394   8 o    1.858 --   396 h    0.872   395 h    0.790
   395   1 h    0.877 --   394 o    0.790
   396   1 h    0.898 --   394 o    0.872
   397   8 o    1.872 --   398 h    0.835   399 h    0.811
   398   1 h    0.882 --   397 o    0.835
   399   1 h    0.878 --   397 o    0.811
   400   8 o    1.830 --   402 h    0.836   401 h    0.775
   401   1 h    0.876 --   400 o    0.775
   402   1 h    0.890 --   400 o    0.836
   403   8 o    1.831 --   404 h    0.844   405 h    0.843
   404   1 h    0.891 --   403 o    0.844
   405   1 h    0.896 --   403 o    0.843
   406   8 o    1.831 --   408 h    0.844   407 h    0.820
   407   1 h    0.889 --   406 o    0.820
   408   1 h    0.885 --   406 o    0.844
   409   8 o    1.891 --   410 h    0.848   411 h    0.843   533 h    0.109
   410   1 h    0.891 --   409 o    0.848
   411   1 h    0.891 --   409 o    0.843
   412   8 o    1.862 --   414 h    0.809   413 h    0.800
   413   1 h    0.878 --   412 o    0.800
   414   1 h    0.870 --   412 o    0.809
   415   8 o    1.848 --   416 h    0.837   417 h    0.803
   416   1 h    0.893 --   415 o    0.837
   417   1 h    0.882 --   415 o    0.803
   418   8 o    1.794 --   419 h    0.868   420 h    0.846
   419   1 h    0.901 --   418 o    0.868
   420   1 h    0.890 --   418 o    0.846
   421   8 o    1.890 --   423 h    0.858   422 h    0.819
   422   1 h    0.886 --   421 o    0.819
   423   1 h    0.889 --   421 o    0.858
   424   8 o    1.853 --   425 h    0.886   426 h    0.810
   425   1 h    0.903 --   424 o    0.886
   426   1 h    0.870 --   424 o    0.810
   427   8 o    1.842 --   429 h    0.862   428 h    0.856
   428   1 h    0.894 --   427 o    0.856
   429   1 h    0.897 --   427 o    0.862
   430   8 o    1.824 --   431 h    0.844   432 h    0.829
   431   1 h    0.887 --   430 o    0.844
   432   1 h    0.886 --   430 o    0.829
   433   8 o    1.856 --   435 h    0.843   434 h    0.788
   434   1 h    0.866 --   433 o    0.788
   435   1 h    0.890 --   433 o    0.843
   436   8 o    1.865 --   437 h    0.845   438 h    0.826
   437   1 h    0.885 --   436 o    0.845
   438   1 h    0.879 --   436 o    0.826
   439   8 o    1.885 --   441 h    0.836   440 h    0.791   627 h    0.103
   440   1 h    0.880 --   439 o    0.791
   441   1 h    0.883 --   439 o    0.836
   442   8 o    1.857 --   444 h    0.888   443 h    0.806
   443   1 h    0.878 --   442 o    0.806
   444   1 h    0.904 --   442 o    0.888
   445   8 o    1.843 --   446 h    0.866   447 h    0.854
   446   1 h    0.890 --   445 o    0.866
   447   1 h    0.891 --   445 o    0.854
   448   8 o    1.844 --   450 h    0.860   449 h    0.818
   449   1 h    0.889 --   448 o    0.818
   450   1 h    0.895 --   448 o    0.860
   451   8 o    1.821 --   452 h    0.871   453 h    0.839
   452   1 h    0.897 --   451 o    0.871
   453   1 h    0.890 --   451 o    0.839
   454   8 o    1.842 --   456 h    0.856   455 h    0.818
   455   1 h    0.885 --   454 o    0.818
   456   1 h    0.897 --   454 o    0.856
   457   8 o    1.860 --   459 h    0.911   458 h    0.800
   458   1 h    0.876 --   457 o    0.800
   459   1 h    0.917 --   457 o    0.911
   460   8 o    1.863 --   462 h    0.854   461 h    0.834
   461   1 h    0.886 --   460 o    0.834
   462   1 h    0.892 --   460 o    0.854
   463   8 o    1.831 --   465 h    0.837   464 h    0.828
   464   1 h    0.890 --   463 o    0.828
   465   1 h    0.888 --   463 o    0.837
   466   8 o    1.829 --   468 h    0.867   467 h    0.861
   467   1 h    0.894 --   466 o    0.861
   468   1 h    0.900 --   466 o    0.867
   469   8 o    1.850 --   471 h    0.843   470 h    0.828
   470   1 h    0.888 --   469 o    0.828
   471   1 h    0.885 --   469 o    0.843
   472   8 o    1.845 --   473 h    0.861   474 h    0.807
   473   1 h    0.898 --   472 o    0.861
   474   1 h    0.882 --   472 o    0.807
   475   8 o    1.865 --   476 h    0.856   477 h    0.828
   476   1 h    0.892 --   475 o    0.856
   477   1 h    0.885 --   475 o    0.828
   478   8 o    1.860 --   479 h    0.850   480 h    0.819
   479   1 h    0.891 --   478 o    0.850
   480   1 h    0.887 --   478 o    0.819
   481   8 o    1.874 --   483 h    0.815   482 h    0.807
   482   1 h    0.879 --   481 o    0.807
   483   1 h    0.875 --   481 o    0.815
   484   8 o    1.816 --   485 h    0.902   486 h    0.787
   485   1 h    0.912 --   484 o    0.902
   486   1 h    0.879 --   484 o    0.787
   487   8 o    1.842 --   488 h    0.875   489 h    0.799
   488   1 h    0.902 --   487 o    0.875
   489   1 h    0.869 --   487 o    0.799
   490   8 o    1.830 --   492 h    0.871   491 h    0.824
   491   1 h    0.883 --   490 o    0.824
   492   1 h    0.902 --   490 o    0.871
   493   8 o    1.866 --   495 h    0.821   494 h    0.802
   494   1 h    0.875 --   493 o    0.802
   495   1 h    0.878 --   493 o    0.821
   496   8 o    1.853 --   498 h    0.835   497 h    0.804
   497   1 h    0.881 --   496 o    0.804
   498   1 h    0.889 --   496 o    0.835
   499   8 o    1.879 --   501 h    0.854   500 h    0.812
   500   1 h    0.884 --   499 o    0.812
   501   1 h    0.892 --   499 o    0.854
   502   8 o    1.839 --   504 h    0.873   503 h    0.867
   503   1 h    0.893 --   502 o    0.867
   504   1 h    0.898 --   502 o    0.873
   505   8 o    1.884 --   506 h    0.872   507 h    0.824
   506   1 h    0.897 --   505 o    0.872
   507   1 h    0.888 --   505 o    0.824
   508   8 o    1.849 --   509 h    0.830   510 h    0.828
   509   1 h    0.884 --   508 o    0.830
   510   1 h    0.887 --   508 o    0.828
   511   8 o    1.831 --   512 h    0.839   513 h    0.804
   512   1 h    0.887 --   511 o    0.839
   513   1 h    0.883 --   511 o    0.804
   514   8 o    1.863 --   516 h    0.871   515 h    0.801
   515   1 h    0.881 --   514 o    0.801
   516   1 h    0.900 --   514 o    0.871
   517   8 o    1.836 --   519 h    0.852   518 h    0.800
   518   1 h    0.879 --   517 o    0.800
   519   1 h    0.899 --   517 o    0.852
   520   8 o    1.800 --   522 h    0.843   521 h    0.838
   521   1 h    0.895 --   520 o    0.838
   522   1 h    0.895 --   520 o    0.843
   523   8 o    1.862 --   524 h    0.838   525 h    0.826
   524   1 h    0.892 --   523 o    0.838
   525   1 h    0.885 --   523 o    0.826
   526   8 o    1.863 --   528 h    0.832   527 h    0.813
   527   1 h    0.885 --   526 o    0.813
   528   1 h    0.892 --   526 o    0.832
   529   8 o    1.842 --   531 h    0.835   530 h    0.830
   530   1 h    0.887 --   529 o    0.830
   531   1 h    0.893 --   529 o    0.835
   532   8 o    1.875 --   534 h    0.902   533 h    0.763
   533   1 h    0.875 --   532 o    0.763   409 o    0.109
   534   1 h    0.909 --   532 o    0.902
   535   8 o    1.807 --   536 h    0.838   537 h    0.816
   536   1 h    0.894 --   535 o    0.838
   537   1 h    0.890 --   535 o    0.816
   538   8 o    1.845 --   539 h    0.831   540 h    0.828
   539   1 h    0.886 --   538 o    0.831
   540   1 h    0.883 --   538 o    0.828
   541   8 o    1.824 --   542 h    0.875   543 h    0.846
   542   1 h    0.901 --   541 o    0.875
   543   1 h    0.891 --   541 o    0.846
   544   8 o    1.873 --   545 h    0.897   546 h    0.840
   545   1 h    0.905 --   544 o    0.897
   546   1 h    0.884 --   544 o    0.840
   547   8 o    1.845 --   548 h    0.894   549 h    0.797
   548   1 h    0.908 --   547 o    0.894
   549   1 h    0.877 --   547 o    0.797
   550   8 o    1.849 --   551 h    0.849   552 h    0.823
   551   1 h    0.887 --   550 o    0.849
   552   1 h    0.879 --   550 o    0.823
   553   8 o    1.874 --   555 h    0.865   554 h    0.860
   554   1 h    0.891 --   553 o    0.860
   555   1 h    0.891 --   553 o    0.865
   556   8 o    1.833 --   558 h    0.872   557 h    0.849
   557   1 h    0.895 --   556 o    0.849
   558   1 h    0.899 --   556 o    0.872
   559   8 o    1.841 --   561 h    0.873   560 h    0.794
   560   1 h    0.878 --   559 o    0.794
   561   1 h    0.899 --   559 o    0.873
   562   8 o    1.839 --   564 h    0.909   563 h    0.814
   563   1 h    0.883 --   562 o    0.814
   564   1 h    0.914 --   562 o    0.909
   565   8 o    1.853 --   566 h    0.808   567 h    0.778
   566   1 h    0.885 --   565 o    0.808
   567   1 h    0.872 --   565 o    0.778
   568   8 o    1.872 --   570 h    0.854   569 h    0.843
   569   1 h    0.882 --   568 o    0.843
   570   1 h    0.885 --   568 o    0.854
   571   8 o    1.851 --   573 h    0.880   572 h    0.791
   572   1 h    0.871 --   571 o    0.791
   573   1 h    0.901 --   571 o    0.880
   574   8 o    1.846 --   575 h    0.821   576 h    0.813
   575   1 h    0.888 --   574 o    0.821
   576   1 h    0.882 --   574 o    0.813
   577   8 o    1.868 --   578 h    0.825   579 h    0.783
   578   1 h    0.882 --   577 o    0.825
   579   1 h    0.869 --   577 o    0.783
   580   8 o    1.862 --   582 h    0.844   581 h    0.840
   581   1 h    0.889 --   580 o    0.840
   582   1 h    0.892 --   580 o    0.844
   583   8 o    1.843 --   584 h    0.831   585 h    0.824
   584   1 h    0.882 --   583 o    0.831
   585   1 h    0.888 --   583 o    0.824
   586   8 o    1.806 --   587 h    0.849   588 h    0.849
   587   1 h    0.891 --   586 o    0.849
   588   1 h    0.889 --   586 o    0.849
   589   8 o    1.864 --   590 h    0.828   591 h    0.806
   590   1 h    0.890 --   589 o    0.828
   591   1 h    0.876 --   589 o    0.806
   592   8 o    1.834 --   594 h    0.874   593 h    0.802
   593   1 h    0.882 --   592 o    0.802
   594   1 h    0.901 --   592 o    0.874
   595   8 o    1.869 --   597 h    0.855   596 h    0.851
   596   1 h    0.889 --   595 o    0.851
   597   1 h    0.894 --   595 o    0.855
   598   8 o    1.854 --   600 h    0.896   599 h    0.776
   599   1 h    0.871 --   598 o    0.776
   600   1 h    0.908 --   598 o    0.896
   601   8 o    1.851 --   603 h    0.840   602 h    0.839
   602   1 h    0.886 --   601 o    0.839
   603   1 h    0.888 --   601 o    0.840
   604   8 o    1.857 --   605 h    0.820   606 h    0.812
   605   1 h    0.888 --   604 o    0.820
   606   1 h    0.879 --   604 o    0.812
   607   8 o    1.837 --   609 h    0.820   608 h    0.816
   608   1 h    0.886 --   607 o    0.816
   609   1 h    0.890 --   607 o    0.820
   610   8 o    1.849 --   611 h    0.850   612 h    0.840
   611   1 h    0.888 --   610 o    0.850
   612   1 h    0.886 --   610 o    0.840
   613   8 o    1.853 --   615 h    0.912   614 h    0.774
   614   1 h    0.877 --   613 o    0.774
   615   1 h    0.916 --   613 o    0.912
   616   8 o    1.846 --   618 h    0.881   617 h    0.836
   617   1 h    0.892 --   616 o    0.836
   618   1 h    0.906 --   616 o    0.881
   619   8 o    1.839 --   621 h    0.861   620 h    0.828
   620   1 h    0.889 --   619 o    0.828
   621   1 h    0.886 --   619 o    0.861
   622   8 o    1.819 --   624 h    0.863   623 h    0.841
   623   1 h    0.892 --   622 o    0.841
   624   1 h    0.902 --   622 o    0.863
   625   8 o    1.839 --   626 h    0.917   627 h    0.767
   626   1 h    0.921 --   625 o    0.917
   627   1 h    0.876 --   625 o    0.767   439 o    0.103
   628   8 o    1.845 --   629 h    0.910   630 h    0.824
   629   1 h    0.914 --   628 o    0.910
   630   1 h    0.877 --   628 o    0.824
   631   8 o    1.841 --   633 h    0.811   632 h    0.776
   632   1 h    0.873 --   631 o    0.776
   633   1 h    0.879 --   631 o    0.811
   634   8 o    1.835 --   635 h    0.908   636 h    0.823
   635   1 h    0.915 --   634 o    0.908
   636   1 h    0.880 --   634 o    0.823
   637   8 o    1.844 --   639 h    0.872   638 h    0.856
   638   1 h    0.897 --   637 o    0.856
   639   1 h    0.901 --   637 o    0.872
   640   8 o    1.860 --   641 h    0.887   642 h    0.813
   641   1 h    0.900 --   640 o    0.887
   642   1 h    0.880 --   640 o    0.813
   643   8 o    1.883 --   644 h    0.909   645 h    0.766
   644   1 h    0.915 --   643 o    0.909
   645   1 h    0.867 --   643 o    0.766
   646   8 o    1.859 --   647 h    0.843   648 h    0.837
   647   1 h    0.890 --   646 o    0.843
   648   1 h    0.887 --   646 o    0.837
   649   8 o    1.839 --   650 h    0.872   651 h    0.839
   650   1 h    0.899 --   649 o    0.872
   651   1 h    0.894 --   649 o    0.839
   652   8 o    1.884 --   653 h    0.859   654 h    0.797
   653   1 h    0.891 --   652 o    0.859
   654   1 h    0.885 --   652 o    0.797
   655   8 o    1.865 --   656 h    0.910   657 h    0.828
   656   1 h    0.916 --   655 o    0.910
   657   1 h    0.877 --   655 o    0.828
   658   8 o    1.834 --   659 h    0.839   660 h    0.829
   659   1 h    0.894 --   658 o    0.839
   660   1 h    0.893 --   658 o    0.829
   661   8 o    1.847 --   662 h    0.833   663 h    0.827
   662   1 h    0.894 --   661 o    0.833
   663   1 h    0.888 --   661 o    0.827
   664   8 o    1.868 --   665 h    0.876   666 h    0.842
   665   1 h    0.896 --   664 o    0.876
   666   1 h    0.881 --   664 o    0.842
   667   8 o    1.808 --   668 h    0.873   669 h    0.866
   668   1 h    0.901 --   667 o    0.873
   669   1 h    0.903 --   667 o    0.866
   670   8 o    1.853 --   672 h    0.824   671 h    0.817
   671   1 h    0.887 --   670 o    0.817
   672   1 h    0.886 --   670 o    0.824
   673   8 o    1.826 --   674 h    0.900   675 h    0.822
   674   1 h    0.909 --   673 o    0.900
   675   1 h    0.890 --   673 o    0.822
   676   8 o    1.852 --   677 h    0.827   678 h    0.813
   677   1 h    0.878 --   676 o    0.827
   678   1 h    0.881 --   676 o    0.813
   679   8 o    1.857 --   680 h    0.814   681 h    0.797
   680   1 h    0.876 --   679 o    0.814
   681   1 h    0.881 --   679 o    0.797
   682   8 o    1.837 --   683 h    0.865   684 h    0.860
   683   1 h    0.897 --   682 o    0.865
   684   1 h    0.895 --   682 o    0.860
   685   8 o    1.849 --   687 h    0.836   686 h    0.827
   686   1 h    0.882 --   685 o    0.827
   687   1 h    0.891 --   685 o    0.836
   688   8 o    1.856 --   690 h    0.826   689 h    0.825
   689   1 h    0.877 --   688 o    0.825
   690   1 h    0.884 --   688 o    0.826
   691   8 o    1.837 --   692 h    0.857   693 h    0.829
   692   1 h    0.894 --   691 o    0.857
   693   1 h    0.892 --   691 o    0.829
   694   8 o    1.856 --   695 h    0.816   696 h    0.791
   695   1 h    0.889 --   694 o    0.816
   696   1 h    0.870 --   694 o    0.791
   697   8 o    1.822 --   699 h    0.840   698 h    0.821
   698   1 h    0.892 --   697 o    0.821
   699   1 h    0.890 --   697 o    0.840
   700   8 o    1.831 --   702 h    0.887   701 h    0.818
   701   1 h    0.886 --   700 o    0.818
   702   1 h    0.903 --   700 o    0.887
   703   8 o    1.851 --   704 h    0.841   705 h    0.832
   704   1 h    0.891 --   703 o    0.841
   705   1 h    0.886 --   703 o    0.832
   706   8 o    1.869 --   707 h    0.841   708 h    0.836
   707   1 h    0.884 --   706 o    0.841
   708   1 h    0.886 --   706 o    0.836
   709   8 o    1.878 --   711 h    0.825   710 h    0.805
   710   1 h    0.878 --   709 o    0.805
   711   1 h    0.890 --   709 o    0.825
   712   8 o    1.864 --   713 h    0.858   714 h    0.819
   713   1 h    0.895 --   712 o    0.858
   714   1 h    0.882 --   712 o    0.819
   715   8 o    1.831 --   717 h    0.825   716 h    0.815
   716   1 h    0.879 --   715 o    0.815
   717   1 h    0.883 --   715 o    0.825
   718   8 o    1.836 --   719 h    0.841   720 h    0.831
   719   1 h    0.896 --   718 o    0.841
   720   1 h    0.885 --   718 o    0.831
   721   8 o    1.850 --   722 h    0.852   723 h    0.832
   722   1 h    0.895 --   721 o    0.852
   723   1 h    0.887 --   721 o    0.832
   724   8 o    1.878 --   726 h    0.851   725 h    0.829
   725   1 h    0.875 --   724 o    0.829
   726   1 h    0.885 --   724 o    0.851
   727   8 o    1.829 --   728 h    0.864   729 h    0.823
   728   1 h    0.903 --   727 o    0.864
   729   1 h    0.883 --   727 o    0.823
   730   8 o    1.848 --   731 h    0.917   732 h    0.804
   731   1 h    0.922 --   730 o    0.917
   732   1 h    0.876 --   730 o    0.804
   733   8 o    1.836 --   735 h    0.893   734 h    0.794
   734   1 h    0.881 --   733 o    0.794
   735   1 h    0.908 --   733 o    0.893
   736   8 o    1.841 --   738 h    0.872   737 h    0.786
   737   1 h    0.881 --   736 o    0.786
   738   1 h    0.897 --   736 o    0.872
   739   8 o    1.841 --   740 h    0.883   741 h    0.786
   740   1 h    0.904 --   739 o    0.883
   741   1 h    0.879 --   739 o    0.786
   742   8 o    1.808 --   744 h    0.868   743 h    0.842
   743   1 h    0.889 --   742 o    0.842
   744   1 h    0.895 --   742 o    0.868
   745   8 o    1.866 --   747 h    0.872   746 h    0.819
   746   1 h    0.885 --   745 o    0.819
   747   1 h    0.898 --   745 o    0.872
   748   8 o    1.862 --   750 h    0.858   749 h    0.844
   749   1 h    0.892 --   748 o    0.844
   750   1 h    0.892 --   748 o    0.858
   751   8 o    1.803 --   753 h    0.878   752 h    0.828
   752   1 h    0.884 --   751 o    0.828
   753   1 h    0.896 --   751 o    0.878
   754   8 o    1.853 --   755 h    0.872   756 h    0.854
   755   1 h    0.887 --   754 o    0.872
   756   1 h    0.885 --   754 o    0.854
 ---------------------------------------------------------------------------

Topologies differ in total number of bonds
Writing topology from bond orders to xtbtopo.mol

molecular dipole:
                 x           y           z       tot (Debye)
 q only:        2.017      -0.923      -0.313
   full:        2.038      -1.473      -1.562       7.525
molecular quadrupole (traceless):
                xx          xy          yy          xz          yz          zz
 q only:       36.808      -8.708     -24.643       2.762      -3.655     -12.165
  q+dip:       63.365     -33.125     -43.029      -6.163      -4.047     -20.336
   full:       65.550     -34.365     -43.847      -8.158      -4.696     -21.703


           -------------------------------------------------
          | TOTAL ENERGY            -1283.355977514602 Eh   |
          | GRADIENT NORM               0.031219485003 Eh/α |
          | HOMO-LUMO GAP               8.072940517666 eV   |
           -------------------------------------------------

------------------------------------------------------------------------
 * finished run on 2022/11/24 at 09:29:08.062     
------------------------------------------------------------------------
 total:
 * wall-time:     0 d,  0 h,  0 min, 57.986 sec
 *  cpu-time:     0 d,  0 h,  1 min, 13.776 sec
 * ratio c/w:     1.272 speedup
 SCF:
 * wall-time:     0 d,  0 h,  0 min, 56.974 sec
 *  cpu-time:     0 d,  0 h,  1 min, 12.068 sec
 * ratio c/w:     1.265 speedup

