      -----------------------------------------------------------      
     |                   =====================                   |     
     |                           x T B                           |     
     |                   =====================                   |     
     |                         S. Grimme                         |     
     |          Mulliken Center for Theoretical Chemistry        |     
     |                    University of Bonn                     |     
      -----------------------------------------------------------      

   * xtb version 6.5.1 (579679a) compiled by 'ehlert@majestix' on 2022-07-11

   xtb is free software: you can redistribute it and/or modify it under
   the terms of the GNU Lesser General Public License as published by
   the Free Software Foundation, either version 3 of the License, or
   (at your option) any later version.
   
   xtb is distributed in the hope that it will be useful,
   but WITHOUT ANY WARRANTY; without even the implied warranty of
   MERCHANTABILITY or FITNESS FOR A PARTICULAR PURPOSE.  See the
   GNU Lesser General Public License for more details.
   
   Cite this work as:
   * C. Bannwarth, E. Caldeweyher, S. Ehlert, A. Hansen, P. Pracht,
     J. Seibert, S. Spicher, S. Grimme, WIREs Comput. Mol. Sci., 2020, 11,
     e01493. DOI: 10.1002/wcms.1493
   
   for GFN2-xTB:
   * C. Bannwarth, S. Ehlert and S. Grimme., J. Chem. Theory Comput., 2019,
     15, 1652-1671. DOI: 10.1021/acs.jctc.8b01176
   for GFN1-xTB:
   * S. Grimme, C. Bannwarth, P. Shushkov, J. Chem. Theory Comput., 2017,
     13, 1989-2009. DOI: 10.1021/acs.jctc.7b00118
   for GFN0-xTB:
   * P. Pracht, E. Caldeweyher, S. Ehlert, S. Grimme, ChemRxiv, 2019, preprint.
     DOI: 10.26434/chemrxiv.8326202.v1
   for GFN-FF:
   * S. Spicher and S. Grimme, Angew. Chem. Int. Ed., 2020, 59, 15665-15673.
     DOI: 10.1002/anie.202004239
   
   for ALPB and GBSA implicit solvation:
   * S. Ehlert, M. Stahn, S. Spicher, S. Grimme, J. Chem. Theory Comput.,
     2021, 17, 4250-4261. DOI: 10.1021/acs.jctc.1c00471
   
   for DFT-D4:
   * E. Caldeweyher, C. Bannwarth and S. Grimme, J. Chem. Phys., 2017,
     147, 034112. DOI: 10.1063/1.4993215
   * E. Caldeweyher, S. Ehlert, A. Hansen, H. Neugebauer, S. Spicher,
     C. Bannwarth and S. Grimme, J. Chem. Phys., 2019, 150, 154122.
     DOI: 10.1063/1.5090222
   * E. Caldeweyher, J.-M. Mewes, S. Ehlert and S. Grimme, Phys. Chem. Chem. Phys.
     2020, 22, 8499-8512. DOI: 10.1039/D0CP00502A
   
   for sTDA-xTB:
   * S. Grimme and C. Bannwarth, J. Chem. Phys., 2016, 145, 054103.
     DOI: 10.1063/1.4959605
   
   in the mass-spec context:
   * V. Asgeirsson, C. Bauer and S. Grimme, Chem. Sci., 2017, 8, 4879.
     DOI: 10.1039/c7sc00601b
   * J. Koopman and S. Grimme, ACS Omega 2019, 4, 12, 15120-15133.
     DOI: 10.1021/acsomega.9b02011
   
   for metadynamics refer to:
   * S. Grimme, J. Chem. Theory Comput., 2019, 155, 2847-2862
     DOI: 10.1021/acs.jctc.9b00143
   
   for SPH calculations refer to:
   * S. Spicher and S. Grimme, J. Chem. Theory Comput., 2021, 17, 1701-1714
     DOI: 10.1021/acs.jctc.0c01306
   
   with help from (in alphabetical order)
   P. Atkinson, C. Bannwarth, F. Bohle, G. Brandenburg, E. Caldeweyher
   M. Checinski, S. Dohm, S. Ehlert, S. Ehrlich, I. Gerasimov, C. Hölzer
   A. Katbashev, J. Koopman, C. Lavigne, S. Lehtola, F. März, M. Müller,
   F. Musil, H. Neugebauer, J. Pisarek, C. Plett, P. Pracht, F. Pultar,
   J. Seibert, P. Shushkov, S. Spicher, M. Stahn, M. Steiner, T. Strunk,
   J. Stückrath, T. Rose, and J. Unsleber
   
 * started run on 2022/11/24 at 09:27:46.529     

           -------------------------------------------------
          |                Calculation Setup                |
           -------------------------------------------------

          program call               : xtb xtbopt.coord --gfn2 --sp --gbsa water
          hostname                   : cn0341
          coordinate file            : xtbopt.coord
          omp threads                :                     2

   ID    Z sym.   atoms
    1    8 o      1, 4, 7, 10, 13, 16, 19, 22, 25, 28, 31, 34, 37, 40, 43,
                  46, 49, 52, 55, 58, 61, 64, 67, 70, 73, 76, 79, 82, 85, 88,
                  91, 94, 97, 100, 103, 106, 109, 112, 115, 118, 121, 124,
                  127, 130, 133, 136, 139, 142, 145, 148, 151, 154, 157, 160,
                  163, 166, 169, 172, 175, 178, 181, 184, 187, 190, 193, 196,
                  199, 202, 205, 208, 211, 214, 217, 220, 223, 226, 229, 232,
                  235, 238, 241, 244, 247, 250, 253, 256, 259, 262, 265, 268,
                  271, 274, 277, 280, 283, 286, 289, 292, 295, 298, 301, 304,
                  307, 310, 313, 316, 319, 322, 325, 328, 331, 334, 337, 340,
                  343, 346, 349, 352, 355, 358, 361, 364, 367, 370, 373, 376,
                  379, 382, 385, 388, 391, 394, 397, 400, 403, 406, 409, 412,
                  415, 418, 421, 424, 427, 430, 433, 436, 439, 442, 445, 448,
                  451, 454, 457, 460, 463, 466, 469, 472, 475, 478, 481, 484,
                  487, 490, 493, 496, 499, 502, 505, 508, 511, 514, 517, 520,
                  523, 526, 529, 532, 535, 538, 541, 544, 547, 550, 553, 556,
                  559, 562, 565, 568, 571, 574, 577, 580, 583, 586, 589, 592,
                  595, 598, 601, 604, 607, 610, 613, 616, 619, 622, 625, 628,
                  631, 634, 637, 640, 643, 646, 649, 652, 655, 658, 661, 664,
                  667, 670, 673, 676, 679, 682, 685, 688, 691, 694, 697, 700,
                  703, 706, 709, 712, 715, 718, 721, 724, 727, 730, 733, 736,
                  739, 742, 745, 748, 751, 754
    2    1 h      2, 3, 5, 6, 8, 9, 11, 12, 14, 15, 17, 18, 20, 21, 23, 24,
                  26, 27, 29, 30, 32, 33, 35, 36, 38, 39, 41, 42, 44, 45, 47,
                  48, 50, 51, 53, 54, 56, 57, 59, 60, 62, 63, 65, 66, 68, 69,
                  71, 72, 74, 75, 77, 78, 80, 81, 83, 84, 86, 87, 89, 90, 92,
                  93, 95, 96, 98, 99, 101, 102, 104, 105, 107, 108, 110, 111,
                  113, 114, 116, 117, 119, 120, 122, 123, 125, 126, 128, 129,
                  131, 132, 134, 135, 137, 138, 140, 141, 143, 144, 146, 147,
                  149, 150, 152, 153, 155, 156, 158, 159, 161, 162, 164, 165,
                  167, 168, 170, 171, 173, 174, 176, 177, 179, 180, 182, 183,
                  185, 186, 188, 189, 191, 192, 194, 195, 197, 198, 200, 201,
                  203, 204, 206, 207, 209, 210, 212, 213, 215, 216, 218, 219,
                  221, 222, 224, 225, 227, 228, 230, 231, 233, 234, 236, 237,
                  239, 240, 242, 243, 245, 246, 248, 249, 251, 252, 254, 255,
                  257, 258, 260, 261, 263, 264, 266, 267, 269, 270, 272, 273,
                  275, 276, 278, 279, 281, 282, 284, 285, 287, 288, 290, 291,
                  293, 294, 296, 297, 299, 300, 302, 303, 305, 306, 308, 309,
                  311, 312, 314, 315, 317, 318, 320, 321, 323, 324, 326, 327,
                  329, 330, 332, 333, 335, 336, 338, 339, 341, 342, 344, 345,
                  347, 348, 350, 351, 353, 354, 356, 357, 359, 360, 362, 363,
                  365, 366, 368, 369, 371, 372, 374, 375, 377, 378, 380, 381,
                  383, 384, 386, 387, 389, 390, 392, 393, 395, 396, 398, 399,
                  401, 402, 404, 405, 407, 408, 410, 411, 413, 414, 416, 417,
                  419, 420, 422, 423, 425, 426, 428, 429, 431, 432, 434, 435,
                  437, 438, 440, 441, 443, 444, 446, 447, 449, 450, 452, 453,
                  455, 456, 458, 459, 461, 462, 464, 465, 467, 468, 470, 471,
                  473, 474, 476, 477, 479, 480, 482, 483, 485, 486, 488, 489,
                  491, 492, 494, 495, 497, 498, 500, 501, 503, 504, 506, 507,
                  509, 510, 512, 513, 515, 516, 518, 519, 521, 522, 524, 525,
                  527, 528, 530, 531, 533, 534, 536, 537, 539, 540, 542, 543,
                  545, 546, 548, 549, 551, 552, 554, 555, 557, 558, 560, 561,
                  563, 564, 566, 567, 569, 570, 572, 573, 575, 576, 578, 579,
                  581, 582, 584, 585, 587, 588, 590, 591, 593, 594, 596, 597,
                  599, 600, 602, 603, 605, 606, 608, 609, 611, 612, 614, 615,
                  617, 618, 620, 621, 623, 624, 626, 627, 629, 630, 632, 633,
                  635, 636, 638, 639, 641, 642, 644, 645, 647, 648, 650, 651,
                  653, 654, 656, 657, 659, 660, 662, 663, 665, 666, 668, 669,
                  671, 672, 674, 675, 677, 678, 680, 681, 683, 684, 686, 687,
                  689, 690, 692, 693, 695, 696, 698, 699, 701, 702, 704, 705,
                  707, 708, 710, 711, 713, 714, 716, 717, 719, 720, 722, 723,
                  725, 726, 728, 729, 731, 732, 734, 735, 737, 738, 740, 741,
                  743, 744, 746, 747, 749, 750, 752, 753, 755, 756

molecular fragmentation (1/2 indicates fragments):
111222222222222222222222222222222222222222222222222222222222222222222222
222222222222222222222222222222222222222222222222222222222222222222222222
222222222222222222222222222222222222222222222222222222222222222222222222
222222222222222222222222222222222222222222222222222222222222222222222222
222222222222222222222222222222222222222222222222222222222222222222222222
222222222222222222222222222222222222222222222222222222222222222222222222
222222222222222222222222222222222222222222222222222222222222222222222222
222222222222222222222222222222222222222222222222222222222222222222222222
222222222222222222222222222222222222222222222222222222222222222222222222
222222222222222222222222222222222222222222222222222222222222222222222222
222222222222222222222222222222222222
# atoms in fragment 1/2:     3   753
 fragment masses (1/2) :       18.02     4521.84
CMA distance (Bohr)    :  14.519
constraining FC (au)   :  0.0500

           -------------------------------------------------
          |                 G F N 2 - x T B                 |
           -------------------------------------------------

        Reference                      10.1021/acs.jctc.8b01176
      * Hamiltonian:
        H0-scaling (s, p, d)           1.850000    2.230000    2.230000
        zeta-weighting                 0.500000
      * Dispersion:
        s8                             2.700000
        a1                             0.520000
        a2                             5.000000
        s9                             5.000000
      * Repulsion:
        kExp                           1.500000    1.000000
        rExp                           1.000000
      * Coulomb:
        alpha                          2.000000
        third order                    shell-resolved
        anisotropic                    true
        a3                             3.000000
        a5                             4.000000
        cn-shift                       1.200000
        cn-exp                         4.000000
        max-rad                        5.000000

      * Solvation model:               GBSA
        Solvent                        water
        Parameter file                 internal GFN2-xTB/GBSA
        Dielectric constant                8.0200E+01
        Reference state                gsolv [1 M gas/solution]
        Free energy shift                  1.8574E-03 Eh       1.1656E+00 kcal/mol
        Temperature                        2.9815E+02 K
        Density                            1.0000E+00 kg/L
        Solvent mass                       1.8000E+01 g/mol
        Interaction kernel             Still
        Born radius scaling (c1)           1.5524E+00
        Born radii integrator          GBOBC
        Born offset                        2.4628E-02 a0       4.6540E-02 AA
        H-bond correction              true
        Ion screening                  false
        Surface tension                    1.0000E-05 Eh       1.5569E+01 dyn/cm
        Grid points                               230 per atom

          ...................................................
          :                      SETUP                      :
          :.................................................:
          :  # basis functions                1512          :
          :  # atomic orbitals                1512          :
          :  # shells                         1008          :
          :  # electrons                      2016          :
          :  max. iterations                   250          :
          :  Hamiltonian                  GFN2-xTB          :
          :  restarted?                      false          :
          :  GBSA solvation                   true          :
          :  PC potential                    false          :
          :  electronic temp.          300.0000000     K    :
          :  accuracy                    1.0000000          :
          :  -> integral cutoff          0.2500000E+02      :
          :  -> integral neglect         0.1000000E-07      :
          :  -> SCF convergence          0.1000000E-05 Eh   :
          :  -> wf. convergence          0.1000000E-03 e    :
          :  Broyden damping             0.4000000          :
          ...................................................

 iter      E             dE          RMSdq      gap      omega  full diag
   1  -1291.2681361 -0.129127E+04  0.408E+00    8.37       0.0  T
   2  -1291.3508952 -0.827590E-01  0.242E+00    8.16       1.0  T
   3  -1291.3864670 -0.355719E-01  0.224E-01    7.75       1.0  T
   4  -1291.3918832 -0.541611E-02  0.476E-02    7.83       1.0  T
   5  -1291.3920269 -0.143712E-03  0.306E-02    7.81       1.0  T
   6  -1291.3920747 -0.477826E-04  0.373E-03    7.80       1.0  T
   7  -1291.3920762 -0.159205E-05  0.902E-04    7.80       4.0  T
   8  -1291.3920763 -0.998509E-07  0.446E-04    7.80       8.2  T
   9  -1291.3920764 -0.330813E-07  0.131E-04    7.80      27.8  T

   *** convergence criteria satisfied after 9 iterations ***

         #    Occupation            Energy/Eh            Energy/eV
      -------------------------------------------------------------
         1        2.0000           -0.6526364             -17.7591
       ...           ...                  ...                  ...
      1002        2.0000           -0.3554780              -9.6730
      1003        2.0000           -0.3533381              -9.6148
      1004        2.0000           -0.3524120              -9.5896
      1005        2.0000           -0.3496300              -9.5139
      1006        2.0000           -0.3479326              -9.4677
      1007        2.0000           -0.3462297              -9.4214
      1008        2.0000           -0.3440389              -9.3618 (HOMO)
      1009                         -0.0574221              -1.5625 (LUMO)
      1010                         -0.0502876              -1.3684
      1011                         -0.0379118              -1.0316
      1012                         -0.0368689              -1.0033
      1013                         -0.0297223              -0.8088
       ...                                ...                  ...
      1512                          0.4991343              13.5821
      -------------------------------------------------------------
                  HL-Gap            0.2866167 Eh            7.7992 eV
             Fermi-level           -0.2007305 Eh           -5.4622 eV

 SCC (total)                   0 d,  0 h,  0 min, 22.031 sec
 SCC setup                      ...        0 min,  0.117 sec (  0.532%)
 Dispersion                     ...        0 min,  0.118 sec (  0.536%)
 classical contributions        ...        0 min,  0.023 sec (  0.107%)
 integral evaluation            ...        0 min,  0.621 sec (  2.819%)
 iterations                     ...        0 min,  8.372 sec ( 38.001%)
 molecular gradient             ...        0 min, 12.706 sec ( 57.672%)
 printout                       ...        0 min,  0.073 sec (  0.333%)

         :::::::::::::::::::::::::::::::::::::::::::::::::::::
         ::                     SUMMARY                     ::
         :::::::::::::::::::::::::::::::::::::::::::::::::::::
         :: total energy           -1283.616484334891 Eh    ::
         :: total w/o Gsasa/hb     -1283.393019622589 Eh    ::
         :: gradient norm              0.098821369752 Eh/a0 ::
         :: HOMO-LUMO gap              7.799237528252 eV    ::
         ::.................................................::
         :: SCC energy             -1291.392076377230 Eh    ::
         :: -> isotropic ES            7.360668538968 Eh    ::
         :: -> anisotropic ES         -1.662380815434 Eh    ::
         :: -> anisotropic XC         -0.119197905577 Eh    ::
         :: -> dispersion             -0.791396225554 Eh    ::
         :: -> Gsolv                  -0.283054344317 Eh    ::
         ::    -> Gelec               -0.059589632014 Eh    ::
         ::    -> Gsasa                0.007866989648 Eh    ::
         ::    -> Ghb                 -0.233189145077 Eh    ::
         ::    -> Gshift               0.001857443127 Eh    ::
         :: repulsion energy           7.620370486474 Eh    ::
         :: add. restraining           0.000000000000 Eh    ::
         :: total charge               0.000000000000 e     ::
         :::::::::::::::::::::::::::::::::::::::::::::::::::::

           -------------------------------------------------
          |                Property Printout                |
           -------------------------------------------------

    * Orbital Energies and Occupations

         #    Occupation            Energy/Eh            Energy/eV
      -------------------------------------------------------------
         1        2.0000           -0.6526364             -17.7591
       ...           ...                  ...                  ...
       996        2.0000           -0.3592759              -9.7764
       997        2.0000           -0.3586389              -9.7591
       998        2.0000           -0.3581769              -9.7465
       999        2.0000           -0.3577156              -9.7339
      1000        2.0000           -0.3569335              -9.7127
      1001        2.0000           -0.3559781              -9.6867
      1002        2.0000           -0.3554780              -9.6730
      1003        2.0000           -0.3533381              -9.6148
      1004        2.0000           -0.3524120              -9.5896
      1005        2.0000           -0.3496300              -9.5139
      1006        2.0000           -0.3479326              -9.4677
      1007        2.0000           -0.3462297              -9.4214
      1008        2.0000           -0.3440389              -9.3618 (HOMO)
      1009                         -0.0574221              -1.5625 (LUMO)
      1010                         -0.0502876              -1.3684
      1011                         -0.0379118              -1.0316
      1012                         -0.0368689              -1.0033
      1013                         -0.0297223              -0.8088
      1014                         -0.0257414              -0.7005
      1015                         -0.0225887              -0.6147
      1016                         -0.0123410              -0.3358
      1017                         -0.0091747              -0.2497
      1018                         -0.0085642              -0.2330
      1019                         -0.0046850              -0.1275
       ...                                ...                  ...
      1512                          0.4991343              13.5821
      -------------------------------------------------------------
                  HL-Gap            0.2866167 Eh            7.7992 eV
             Fermi-level           -0.2007305 Eh           -5.4622 eV

     #   Z          covCN         q      C6AA      α(0)
     1   8 o        1.607    -0.688    27.402     7.065
     2   1 h        0.804     0.324     0.654     1.270
     3   1 h        0.803     0.359     0.569     1.185
     4   8 o        1.609    -0.680    27.195     7.038
     5   1 h        0.804     0.344     0.603     1.220
     6   1 h        0.805     0.336     0.622     1.239
     7   8 o        1.608    -0.674    27.031     7.017
     8   1 h        0.804     0.341     0.610     1.227
     9   1 h        0.804     0.349     0.592     1.208
    10   8 o        1.606    -0.725    28.394     7.192
    11   1 h        0.804     0.344     0.603     1.220
    12   1 h        0.803     0.345     0.601     1.217
    13   8 o        1.607    -0.694    27.557     7.085
    14   1 h        0.803     0.352     0.583     1.200
    15   1 h        0.805     0.345     0.599     1.216
    16   8 o        1.609    -0.670    26.924     7.003
    17   1 h        0.805     0.350     0.587     1.203
    18   1 h        0.804     0.320     0.664     1.280
    19   8 o        1.608    -0.681    27.215     7.041
    20   1 h        0.804     0.343     0.605     1.222
    21   1 h        0.804     0.348     0.592     1.209
    22   8 o        1.609    -0.691    27.469     7.074
    23   1 h        0.803     0.354     0.580     1.196
    24   1 h        0.804     0.359     0.568     1.184
    25   8 o        1.608    -0.685    27.317     7.054
    26   1 h        0.804     0.349     0.590     1.206
    27   1 h        0.804     0.342     0.608     1.225
    28   8 o        1.608    -0.680    27.181     7.036
    29   1 h        0.804     0.349     0.591     1.207
    30   1 h        0.805     0.344     0.603     1.220
    31   8 o        1.607    -0.704    27.818     7.118
    32   1 h        0.804     0.343     0.605     1.222
    33   1 h        0.803     0.359     0.569     1.185
    34   8 o        1.606    -0.731    28.543     7.211
    35   1 h        0.803     0.341     0.609     1.226
    36   1 h        0.804     0.343     0.606     1.223
    37   8 o        1.610    -0.664    26.758     6.982
    38   1 h        0.804     0.330     0.637     1.253
    39   1 h        0.805     0.349     0.590     1.207
    40   8 o        1.608    -0.677    27.099     7.026
    41   1 h        0.804     0.346     0.598     1.215
    42   1 h        0.804     0.350     0.588     1.204
    43   8 o        1.607    -0.698    27.651     7.097
    44   1 h        0.803     0.347     0.596     1.213
    45   1 h        0.804     0.346     0.598     1.215
    46   8 o        1.607    -0.704    27.819     7.119
    47   1 h        0.804     0.355     0.576     1.192
    48   1 h        0.804     0.358     0.570     1.185
    49   8 o        1.607    -0.702    27.761     7.111
    50   1 h        0.803     0.344     0.603     1.220
    51   1 h        0.803     0.365     0.555     1.171
    52   8 o        1.609    -0.680    27.194     7.038
    53   1 h        0.804     0.345     0.599     1.216
    54   1 h        0.803     0.362     0.560     1.176
    55   8 o        1.607    -0.697    27.645     7.096
    56   1 h        0.803     0.349     0.591     1.207
    57   1 h        0.803     0.355     0.576     1.192
    58   8 o        1.607    -0.704    27.814     7.118
    59   1 h        0.804     0.362     0.562     1.177
    60   1 h        0.804     0.338     0.616     1.233
    61   8 o        1.609    -0.674    27.036     7.018
    62   1 h        0.805     0.338     0.618     1.235
    63   1 h        0.804     0.342     0.608     1.225
    64   8 o        1.608    -0.695    27.573     7.087
    65   1 h        0.803     0.345     0.599     1.216
    66   1 h        0.804     0.365     0.554     1.169
    67   8 o        1.604    -0.697    27.646     7.096
    68   1 h        0.804     0.345     0.600     1.217
    69   1 h        0.800     0.357     0.572     1.188
    70   8 o        1.609    -0.704    27.818     7.118
    71   1 h        0.803     0.340     0.612     1.229
    72   1 h        0.803     0.362     0.562     1.177
    73   8 o        1.606    -0.690    27.442     7.070
    74   1 h        0.803     0.339     0.616     1.232
    75   1 h        0.803     0.353     0.582     1.199
    76   8 o        1.607    -0.692    27.492     7.077
    77   1 h        0.803     0.356     0.576     1.192
    78   1 h        0.805     0.343     0.604     1.221
    79   8 o        1.606    -0.667    26.838     6.992
    80   1 h        0.805     0.317     0.672     1.288
    81   1 h        0.801     0.344     0.603     1.220
    82   8 o        1.607    -0.683    27.258     7.046
    83   1 h        0.803     0.351     0.585     1.202
    84   1 h        0.804     0.340     0.612     1.229
    85   8 o        1.609    -0.665    26.805     6.988
    86   1 h        0.803     0.359     0.568     1.184
    87   1 h        0.805     0.326     0.649     1.265
    88   8 o        1.608    -0.665    26.798     6.987
    89   1 h        0.804     0.332     0.632     1.249
    90   1 h        0.804     0.349     0.590     1.207
    91   8 o        1.608    -0.677    27.112     7.027
    92   1 h        0.804     0.313     0.682     1.297
    93   1 h        0.804     0.358     0.570     1.186
    94   8 o        1.608    -0.681    27.214     7.041
    95   1 h        0.804     0.358     0.571     1.187
    96   1 h        0.804     0.325     0.651     1.267
    97   8 o        1.608    -0.667    26.836     6.992
    98   1 h        0.804     0.338     0.618     1.235
    99   1 h        0.804     0.331     0.634     1.251
   100   8 o        1.608    -0.684    27.294     7.051
   101   1 h        0.803     0.338     0.618     1.235
   102   1 h        0.805     0.336     0.623     1.239
   103   8 o        1.609    -0.677    27.102     7.026
   104   1 h        0.804     0.331     0.635     1.251
   105   1 h        0.805     0.344     0.601     1.218
   106   8 o        1.608    -0.676    27.077     7.023
   107   1 h        0.803     0.361     0.564     1.179
   108   1 h        0.805     0.330     0.638     1.255
   109   8 o        1.608    -0.669    26.902     7.000
   110   1 h        0.803     0.348     0.593     1.209
   111   1 h        0.804     0.332     0.632     1.248
   112   8 o        1.608    -0.682    27.235     7.043
   113   1 h        0.804     0.343     0.605     1.222
   114   1 h        0.804     0.347     0.596     1.213
   115   8 o        1.610    -0.668    26.873     6.997
   116   1 h        0.805     0.336     0.622     1.239
   117   1 h        0.803     0.354     0.579     1.196
   118   8 o        1.608    -0.675    27.066     7.021
   119   1 h        0.804     0.347     0.596     1.213
   120   1 h        0.804     0.353     0.581     1.197
   121   8 o        1.609    -0.673    27.014     7.015
   122   1 h        0.803     0.338     0.617     1.234
   123   1 h        0.805     0.329     0.640     1.256
   124   8 o        1.608    -0.666    26.817     6.989
   125   1 h        0.803     0.334     0.629     1.246
   126   1 h        0.804     0.342     0.607     1.224
   127   8 o        1.609    -0.688    27.404     7.065
   128   1 h        0.804     0.332     0.633     1.250
   129   1 h        0.805     0.317     0.672     1.287
   130   8 o        1.603    -0.724    28.353     7.186
   131   1 h        0.802     0.334     0.626     1.243
   132   1 h        0.802     0.358     0.571     1.187
   133   8 o        1.608    -0.673    27.006     7.014
   134   1 h        0.805     0.318     0.668     1.284
   135   1 h        0.803     0.357     0.571     1.188
   136   8 o        1.608    -0.683    27.275     7.049
   137   1 h        0.803     0.365     0.554     1.169
   138   1 h        0.804     0.332     0.633     1.250
   139   8 o        1.608    -0.686    27.343     7.057
   140   1 h        0.804     0.352     0.585     1.201
   141   1 h        0.804     0.339     0.615     1.232
   142   8 o        1.608    -0.684    27.287     7.050
   143   1 h        0.804     0.334     0.626     1.243
   144   1 h        0.804     0.363     0.560     1.175
   145   8 o        1.610    -0.641    26.191     6.907
   146   1 h        0.804     0.353     0.580     1.197
   147   1 h        0.805     0.301     0.719     1.331
   148   8 o        1.606    -0.659    26.656     6.968
   149   1 h        0.803     0.332     0.633     1.250
   150   1 h        0.803     0.329     0.641     1.258
   151   8 o        1.607    -0.684    27.284     7.050
   152   1 h        0.804     0.325     0.650     1.267
   153   1 h        0.803     0.351     0.587     1.203
   154   8 o        1.607    -0.687    27.374     7.061
   155   1 h        0.803     0.355     0.576     1.192
   156   1 h        0.803     0.325     0.650     1.266
   157   8 o        1.610    -0.639    26.127     6.899
   158   1 h        0.805     0.322     0.657     1.273
   159   1 h        0.805     0.334     0.626     1.243
   160   8 o        1.607    -0.693    27.528     7.081
   161   1 h        0.804     0.348     0.593     1.210
   162   1 h        0.804     0.348     0.593     1.209
   163   8 o        1.607    -0.688    27.401     7.065
   164   1 h        0.803     0.352     0.584     1.200
   165   1 h        0.804     0.332     0.632     1.248
   166   8 o        1.607    -0.697    27.632     7.095
   167   1 h        0.804     0.341     0.609     1.226
   168   1 h        0.803     0.366     0.553     1.168
   169   8 o        1.606    -0.696    27.598     7.090
   170   1 h        0.804     0.346     0.598     1.215
   171   1 h        0.802     0.360     0.567     1.182
   172   8 o        1.608    -0.689    27.429     7.068
   173   1 h        0.804     0.344     0.603     1.220
   174   1 h        0.804     0.354     0.579     1.195
   175   8 o        1.608    -0.700    27.721     7.106
   176   1 h        0.804     0.343     0.606     1.223
   177   1 h        0.804     0.356     0.575     1.191
   178   8 o        1.609    -0.657    26.586     6.959
   179   1 h        0.805     0.326     0.647     1.264
   180   1 h        0.804     0.341     0.611     1.228
   181   8 o        1.607    -0.697    27.645     7.096
   182   1 h        0.803     0.359     0.569     1.185
   183   1 h        0.804     0.341     0.609     1.225
   184   8 o        1.609    -0.664    26.780     6.984
   185   1 h        0.803     0.350     0.588     1.205
   186   1 h        0.805     0.349     0.590     1.207
   187   8 o        1.608    -0.683    27.254     7.046
   188   1 h        0.804     0.330     0.637     1.254
   189   1 h        0.804     0.348     0.593     1.209
   190   8 o        1.606    -0.687    27.371     7.061
   191   1 h        0.805     0.331     0.634     1.251
   192   1 h        0.802     0.337     0.620     1.237
   193   8 o        1.608    -0.673    27.008     7.014
   194   1 h        0.803     0.367     0.551     1.166
   195   1 h        0.805     0.321     0.660     1.276
   196   8 o        1.607    -0.684    27.301     7.052
   197   1 h        0.804     0.328     0.643     1.260
   198   1 h        0.803     0.359     0.567     1.183
   199   8 o        1.604    -0.706    27.870     7.125
   200   1 h        0.803     0.331     0.634     1.251
   201   1 h        0.803     0.370     0.543     1.158
   202   8 o        1.608    -0.688    27.390     7.063
   203   1 h        0.803     0.353     0.582     1.199
   204   1 h        0.803     0.353     0.581     1.197
   205   8 o        1.605    -0.694    27.544     7.083
   206   1 h        0.803     0.360     0.566     1.182
   207   1 h        0.803     0.337     0.620     1.237
   208   8 o        1.607    -0.700    27.707     7.104
   209   1 h        0.805     0.327     0.646     1.263
   210   1 h        0.803     0.361     0.564     1.180
   211   8 o        1.608    -0.667    26.842     6.992
   212   1 h        0.804     0.330     0.636     1.253
   213   1 h        0.804     0.334     0.628     1.245
   214   8 o        1.610    -0.665    26.800     6.987
   215   1 h        0.804     0.351     0.587     1.203
   216   1 h        0.804     0.359     0.568     1.184
   217   8 o        1.608    -0.671    26.941     7.005
   218   1 h        0.805     0.337     0.620     1.237
   219   1 h        0.804     0.358     0.569     1.185
   220   8 o        1.609    -0.673    27.011     7.014
   221   1 h        0.804     0.325     0.651     1.267
   222   1 h        0.805     0.334     0.627     1.243
   223   8 o        1.607    -0.689    27.418     7.067
   224   1 h        0.804     0.361     0.563     1.178
   225   1 h        0.804     0.352     0.585     1.201
   226   8 o        1.609    -0.671    26.958     7.008
   227   1 h        0.804     0.336     0.622     1.239
   228   1 h        0.804     0.363     0.559     1.174
   229   8 o        1.607    -0.660    26.681     6.971
   230   1 h        0.803     0.344     0.603     1.220
   231   1 h        0.803     0.338     0.618     1.235
   232   8 o        1.607    -0.694    27.560     7.085
   233   1 h        0.803     0.358     0.570     1.186
   234   1 h        0.803     0.349     0.592     1.208
   235   8 o        1.607    -0.687    27.359     7.059
   236   1 h        0.804     0.347     0.594     1.211
   237   1 h        0.803     0.352     0.585     1.201
   238   8 o        1.608    -0.665    26.789     6.985
   239   1 h        0.806     0.317     0.673     1.288
   240   1 h        0.802     0.353     0.582     1.199
   241   8 o        1.607    -0.697    27.633     7.095
   242   1 h        0.803     0.351     0.586     1.202
   243   1 h        0.804     0.331     0.634     1.251
   244   8 o        1.610    -0.650    26.412     6.936
   245   1 h        0.805     0.328     0.643     1.259
   246   1 h        0.805     0.317     0.673     1.289
   247   8 o        1.607    -0.671    26.943     7.006
   248   1 h        0.803     0.349     0.590     1.206
   249   1 h        0.803     0.330     0.637     1.254
   250   8 o        1.608    -0.663    26.743     6.979
   251   1 h        0.805     0.317     0.672     1.287
   252   1 h        0.802     0.337     0.620     1.237
   253   8 o        1.607    -0.691    27.480     7.075
   254   1 h        0.804     0.349     0.590     1.207
   255   1 h        0.803     0.365     0.554     1.169
   256   8 o        1.605    -0.717    28.168     7.163
   257   1 h        0.803     0.360     0.566     1.182
   258   1 h        0.804     0.344     0.604     1.220
   259   8 o        1.607    -0.684    27.294     7.051
   260   1 h        0.804     0.330     0.637     1.254
   261   1 h        0.803     0.339     0.614     1.231
   262   8 o        1.606    -0.683    27.252     7.046
   263   1 h        0.805     0.321     0.661     1.277
   264   1 h        0.802     0.364     0.558     1.173
   265   8 o        1.608    -0.688    27.400     7.065
   266   1 h        0.804     0.349     0.590     1.207
   267   1 h        0.804     0.329     0.639     1.256
   268   8 o        1.607    -0.658    26.614     6.963
   269   1 h        0.802     0.340     0.613     1.230
   270   1 h        0.805     0.321     0.660     1.276
   271   8 o        1.607    -0.671    26.944     7.006
   272   1 h        0.804     0.344     0.603     1.220
   273   1 h        0.803     0.335     0.625     1.242
   274   8 o        1.608    -0.678    27.130     7.030
   275   1 h        0.804     0.355     0.577     1.194
   276   1 h        0.804     0.333     0.629     1.246
   277   8 o        1.610    -0.693    27.526     7.081
   278   1 h        0.803     0.343     0.604     1.221
   279   1 h        0.805     0.353     0.581     1.197
   280   8 o        1.605    -0.706    27.864     7.124
   281   1 h        0.805     0.356     0.574     1.191
   282   1 h        0.803     0.327     0.646     1.262
   283   8 o        1.607    -0.665    26.787     6.985
   284   1 h        0.803     0.340     0.612     1.229
   285   1 h        0.803     0.327     0.646     1.263
   286   8 o        1.606    -0.693    27.533     7.082
   287   1 h        0.804     0.341     0.609     1.226
   288   1 h        0.803     0.352     0.584     1.200
   289   8 o        1.609    -0.687    27.363     7.060
   290   1 h        0.804     0.328     0.642     1.259
   291   1 h        0.805     0.347     0.596     1.213
   292   8 o        1.608    -0.673    27.014     7.015
   293   1 h        0.803     0.346     0.598     1.214
   294   1 h        0.804     0.323     0.656     1.272
   295   8 o        1.606    -0.699    27.677     7.100
   296   1 h        0.804     0.344     0.602     1.219
   297   1 h        0.803     0.355     0.577     1.193
   298   8 o        1.609    -0.675    27.044     7.019
   299   1 h        0.805     0.344     0.601     1.218
   300   1 h        0.803     0.358     0.569     1.185
   301   8 o        1.608    -0.677    27.094     7.025
   302   1 h        0.804     0.350     0.587     1.204
   303   1 h        0.804     0.316     0.675     1.290
   304   8 o        1.609    -0.661    26.686     6.972
   305   1 h        0.805     0.320     0.664     1.280
   306   1 h        0.803     0.350     0.587     1.204
   307   8 o        1.607    -0.683    27.251     7.045
   308   1 h        0.805     0.321     0.662     1.278
   309   1 h        0.803     0.360     0.567     1.183
   310   8 o        1.606    -0.688    27.392     7.064
   311   1 h        0.803     0.328     0.641     1.258
   312   1 h        0.803     0.358     0.570     1.186
   313   8 o        1.608    -0.671    26.950     7.006
   314   1 h        0.805     0.316     0.673     1.289
   315   1 h        0.803     0.356     0.574     1.190
   316   8 o        1.609    -0.677    27.111     7.027
   317   1 h        0.804     0.334     0.628     1.245
   318   1 h        0.804     0.338     0.616     1.233
   319   8 o        1.606    -0.696    27.595     7.090
   320   1 h        0.802     0.364     0.558     1.173
   321   1 h        0.804     0.326     0.648     1.264
   322   8 o        1.608    -0.686    27.330     7.056
   323   1 h        0.803     0.326     0.647     1.263
   324   1 h        0.805     0.351     0.586     1.203
   325   8 o        1.607    -0.700    27.706     7.104
   326   1 h        0.803     0.358     0.569     1.185
   327   1 h        0.804     0.324     0.654     1.271
   328   8 o        1.605    -0.706    27.873     7.125
   329   1 h        0.802     0.365     0.554     1.170
   330   1 h        0.803     0.335     0.625     1.242
   331   8 o        1.608    -0.673    27.015     7.015
   332   1 h        0.803     0.353     0.581     1.197
   333   1 h        0.805     0.312     0.687     1.302
   334   8 o        1.609    -0.689    27.418     7.067
   335   1 h        0.805     0.335     0.626     1.242
   336   1 h        0.804     0.326     0.649     1.265
   337   8 o        1.607    -0.675    27.048     7.019
   338   1 h        0.804     0.321     0.660     1.276
   339   1 h        0.803     0.363     0.559     1.174
   340   8 o        1.606    -0.676    27.094     7.025
   341   1 h        0.804     0.337     0.621     1.237
   342   1 h        0.803     0.340     0.611     1.228
   343   8 o        1.607    -0.689    27.433     7.069
   344   1 h        0.803     0.373     0.537     1.151
   345   1 h        0.804     0.337     0.619     1.236
   346   8 o        1.608    -0.666    26.825     6.990
   347   1 h        0.804     0.332     0.633     1.250
   348   1 h        0.804     0.347     0.596     1.213
   349   8 o        1.610    -0.662    26.731     6.978
   350   1 h        0.804     0.341     0.609     1.226
   351   1 h        0.805     0.343     0.605     1.222
   352   8 o        1.609    -0.680    27.182     7.037
   353   1 h        0.803     0.343     0.606     1.223
   354   1 h        0.805     0.334     0.627     1.244
   355   8 o        1.610    -0.672    26.974     7.010
   356   1 h        0.805     0.337     0.619     1.236
   357   1 h        0.805     0.335     0.625     1.242
   358   8 o        1.608    -0.678    27.128     7.030
   359   1 h        0.804     0.342     0.608     1.225
   360   1 h        0.804     0.347     0.595     1.212
   361   8 o        1.607    -0.714    28.098     7.154
   362   1 h        0.804     0.333     0.629     1.245
   363   1 h        0.803     0.350     0.588     1.204
   364   8 o        1.607    -0.697    27.633     7.095
   365   1 h        0.805     0.343     0.606     1.223
   366   1 h        0.803     0.353     0.582     1.198
   367   8 o        1.608    -0.669    26.891     6.999
   368   1 h        0.803     0.342     0.608     1.225
   369   1 h        0.805     0.323     0.656     1.273
   370   8 o        1.609    -0.688    27.383     7.063
   371   1 h        0.804     0.347     0.595     1.211
   372   1 h        0.804     0.338     0.617     1.234
   373   8 o        1.607    -0.666    26.812     6.988
   374   1 h        0.802     0.353     0.581     1.197
   375   1 h        0.805     0.302     0.716     1.329
   376   8 o        1.609    -0.680    27.176     7.036
   377   1 h        0.805     0.347     0.595     1.212
   378   1 h        0.803     0.346     0.598     1.214
   379   8 o        1.608    -0.662    26.729     6.978
   380   1 h        0.804     0.340     0.613     1.230
   381   1 h        0.804     0.341     0.610     1.227
   382   8 o        1.607    -0.686    27.351     7.058
   383   1 h        0.805     0.322     0.659     1.275
   384   1 h        0.802     0.357     0.573     1.189
   385   8 o        1.608    -0.681    27.216     7.041
   386   1 h        0.805     0.325     0.651     1.267
   387   1 h        0.803     0.355     0.577     1.193
   388   8 o        1.609    -0.685    27.324     7.055
   389   1 h        0.804     0.335     0.625     1.242
   390   1 h        0.805     0.334     0.628     1.244
   391   8 o        1.608    -0.670    26.929     7.004
   392   1 h        0.805     0.310     0.692     1.306
   393   1 h        0.803     0.350     0.589     1.206
   394   8 o        1.606    -0.665    26.790     6.986
   395   1 h        0.802     0.348     0.594     1.210
   396   1 h        0.805     0.323     0.657     1.273
   397   8 o        1.608    -0.690    27.449     7.071
   398   1 h        0.804     0.347     0.596     1.212
   399   1 h        0.803     0.361     0.563     1.179
   400   8 o        1.605    -0.719    28.219     7.169
   401   1 h        0.802     0.359     0.568     1.184
   402   1 h        0.804     0.337     0.619     1.236
   403   8 o        1.607    -0.699    27.682     7.101
   404   1 h        0.804     0.348     0.594     1.210
   405   1 h        0.804     0.329     0.641     1.258
   406   8 o        1.608    -0.674    27.041     7.018
   407   1 h        0.803     0.325     0.650     1.267
   408   1 h        0.805     0.344     0.603     1.219
   409   8 o        1.611    -0.673    26.993     7.012
   410   1 h        0.804     0.340     0.611     1.228
   411   1 h        0.804     0.343     0.605     1.222
   412   8 o        1.606    -0.688    27.407     7.066
   413   1 h        0.803     0.345     0.601     1.217
   414   1 h        0.804     0.362     0.560     1.176
   415   8 o        1.606    -0.704    27.820     7.119
   416   1 h        0.804     0.326     0.648     1.265
   417   1 h        0.802     0.359     0.567     1.183
   418   8 o        1.609    -0.694    27.547     7.084
   419   1 h        0.805     0.319     0.667     1.283
   420   1 h        0.804     0.346     0.597     1.214
   421   8 o        1.608    -0.650    26.413     6.936
   422   1 h        0.803     0.337     0.619     1.236
   423   1 h        0.805     0.332     0.632     1.248
   424   8 o        1.608    -0.658    26.628     6.965
   425   1 h        0.806     0.309     0.693     1.308
   426   1 h        0.803     0.368     0.547     1.162
   427   8 o        1.609    -0.685    27.304     7.052
   428   1 h        0.804     0.341     0.611     1.228
   429   1 h        0.805     0.334     0.626     1.243
   430   8 o        1.609    -0.683    27.255     7.046
   431   1 h        0.805     0.339     0.615     1.232
   432   1 h        0.804     0.342     0.607     1.224
   433   8 o        1.606    -0.696    27.593     7.090
   434   1 h        0.801     0.373     0.538     1.152
   435   1 h        0.804     0.331     0.635     1.251
   436   8 o        1.608    -0.670    26.919     7.002
   437   1 h        0.805     0.347     0.596     1.212
   438   1 h        0.804     0.344     0.603     1.220
   439   8 o        1.608    -0.696    27.602     7.091
   440   1 h        0.802     0.356     0.574     1.191
   441   1 h        0.804     0.346     0.597     1.214
   442   8 o        1.607    -0.669    26.892     6.999
   443   1 h        0.802     0.360     0.565     1.181
   444   1 h        0.805     0.311     0.688     1.303
   445   8 o        1.608    -0.684    27.298     7.052
   446   1 h        0.804     0.341     0.609     1.226
   447   1 h        0.804     0.346     0.599     1.216
   448   8 o        1.608    -0.667    26.846     6.993
   449   1 h        0.803     0.336     0.621     1.238
   450   1 h        0.805     0.324     0.653     1.270
   451   8 o        1.609    -0.679    27.147     7.032
   452   1 h        0.805     0.330     0.638     1.255
   453   1 h        0.804     0.338     0.616     1.233
   454   8 o        1.607    -0.689    27.426     7.068
   455   1 h        0.803     0.349     0.592     1.208
   456   1 h        0.804     0.328     0.644     1.260
   457   8 o        1.607    -0.654    26.524     6.951
   458   1 h        0.802     0.354     0.580     1.197
   459   1 h        0.806     0.305     0.706     1.320
   460   8 o        1.608    -0.666    26.820     6.990
   461   1 h        0.804     0.340     0.613     1.229
   462   1 h        0.804     0.335     0.625     1.241
   463   8 o        1.607    -0.680    27.188     7.037
   464   1 h        0.803     0.330     0.637     1.254
   465   1 h        0.804     0.340     0.613     1.229
   466   8 o        1.609    -0.683    27.270     7.048
   467   1 h        0.804     0.340     0.612     1.229
   468   1 h        0.805     0.331     0.633     1.250
   469   8 o        1.608    -0.673    26.994     7.012
   470   1 h        0.803     0.340     0.611     1.228
   471   1 h        0.804     0.337     0.619     1.236
   472   8 o        1.607    -0.695    27.570     7.087
   473   1 h        0.805     0.329     0.641     1.258
   474   1 h        0.802     0.355     0.577     1.194
   475   8 o        1.608    -0.677    27.115     7.028
   476   1 h        0.804     0.331     0.634     1.250
   477   1 h        0.803     0.353     0.582     1.199
   478   8 o        1.607    -0.665    26.808     6.988
   479   1 h        0.805     0.334     0.628     1.245
   480   1 h        0.803     0.334     0.628     1.245
   481   8 o        1.607    -0.692    27.498     7.077
   482   1 h        0.803     0.352     0.584     1.201
   483   1 h        0.804     0.360     0.565     1.181
   484   8 o        1.607    -0.700    27.712     7.105
   485   1 h        0.806     0.304     0.708     1.322
   486   1 h        0.802     0.362     0.562     1.177
   487   8 o        1.607    -0.696    27.606     7.091
   488   1 h        0.805     0.324     0.653     1.269
   489   1 h        0.802     0.370     0.544     1.159
   490   8 o        1.608    -0.681    27.199     7.039
   491   1 h        0.803     0.349     0.590     1.207
   492   1 h        0.805     0.323     0.655     1.271
   493   8 o        1.607    -0.692    27.492     7.077
   494   1 h        0.803     0.359     0.569     1.185
   495   1 h        0.804     0.349     0.590     1.206
   496   8 o        1.607    -0.681    27.203     7.039
   497   1 h        0.803     0.349     0.591     1.207
   498   1 h        0.804     0.328     0.642     1.259
   499   8 o        1.607    -0.653    26.483     6.946
   500   1 h        0.803     0.339     0.615     1.232
   501   1 h        0.805     0.326     0.648     1.264
   502   8 o        1.610    -0.661    26.687     6.972
   503   1 h        0.805     0.340     0.612     1.229
   504   1 h        0.805     0.330     0.637     1.254
   505   8 o        1.609    -0.639    26.130     6.899
   506   1 h        0.805     0.322     0.658     1.275
   507   1 h        0.804     0.334     0.627     1.244
   508   8 o        1.607    -0.705    27.853     7.123
   509   1 h        0.803     0.357     0.572     1.188
   510   1 h        0.803     0.337     0.619     1.236
   511   8 o        1.607    -0.692    27.495     7.077
   512   1 h        0.804     0.334     0.627     1.244
   513   1 h        0.803     0.346     0.599     1.215
   514   8 o        1.607    -0.679    27.149     7.032
   515   1 h        0.802     0.348     0.592     1.209
   516   1 h        0.805     0.326     0.649     1.265
   517   8 o        1.606    -0.702    27.756     7.110
   518   1 h        0.802     0.361     0.564     1.180
   519   1 h        0.804     0.319     0.666     1.282
   520   8 o        1.608    -0.697    27.620     7.093
   521   1 h        0.804     0.329     0.640     1.256
   522   1 h        0.804     0.335     0.626     1.242
   523   8 o        1.607    -0.685    27.320     7.054
   524   1 h        0.803     0.336     0.623     1.240
   525   1 h        0.803     0.346     0.597     1.214
   526   8 o        1.607    -0.672    26.972     7.009
   527   1 h        0.803     0.335     0.625     1.242
   528   1 h        0.804     0.333     0.630     1.247
   529   8 o        1.607    -0.714    28.077     7.151
   530   1 h        0.803     0.352     0.585     1.201
   531   1 h        0.803     0.337     0.620     1.237
   532   8 o        1.605    -0.658    26.618     6.963
   533   1 h        0.802     0.349     0.591     1.208
   534   1 h        0.806     0.316     0.674     1.290
   535   8 o        1.607    -0.701    27.726     7.107
   536   1 h        0.804     0.319     0.668     1.284
   537   1 h        0.803     0.347     0.595     1.212
   538   8 o        1.608    -0.680    27.189     7.037
   539   1 h        0.804     0.330     0.637     1.254
   540   1 h        0.804     0.352     0.583     1.199
   541   8 o        1.609    -0.679    27.161     7.034
   542   1 h        0.805     0.324     0.653     1.269
   543   1 h        0.804     0.344     0.603     1.220
   544   8 o        1.609    -0.638    26.118     6.898
   545   1 h        0.805     0.310     0.692     1.307
   546   1 h        0.804     0.346     0.598     1.215
   547   8 o        1.607    -0.681    27.216     7.041
   548   1 h        0.805     0.311     0.689     1.303
   549   1 h        0.802     0.362     0.561     1.176
   550   8 o        1.607    -0.685    27.327     7.055
   551   1 h        0.804     0.328     0.642     1.258
   552   1 h        0.803     0.364     0.558     1.173
   553   8 o        1.609    -0.651    26.449     6.941
   554   1 h        0.805     0.342     0.608     1.225
   555   1 h        0.805     0.337     0.621     1.237
   556   8 o        1.609    -0.680    27.176     7.036
   557   1 h        0.804     0.341     0.609     1.226
   558   1 h        0.805     0.323     0.656     1.272
   559   8 o        1.607    -0.685    27.307     7.053
   560   1 h        0.802     0.352     0.584     1.201
   561   1 h        0.805     0.327     0.646     1.262
   562   8 o        1.608    -0.672    26.982     7.011
   563   1 h        0.802     0.354     0.579     1.195
   564   1 h        0.806     0.305     0.706     1.320
   565   8 o        1.605    -0.702    27.762     7.111
   566   1 h        0.803     0.331     0.634     1.251
   567   1 h        0.802     0.361     0.562     1.178
   568   8 o        1.609    -0.662    26.711     6.975
   569   1 h        0.804     0.351     0.585     1.202
   570   1 h        0.805     0.339     0.615     1.232
   571   8 o        1.607    -0.687    27.365     7.060
   572   1 h        0.802     0.371     0.542     1.157
   573   1 h        0.805     0.317     0.672     1.288
   574   8 o        1.607    -0.679    27.157     7.033
   575   1 h        0.803     0.327     0.646     1.263
   576   1 h        0.804     0.347     0.596     1.213
   577   8 o        1.605    -0.699    27.694     7.102
   578   1 h        0.804     0.351     0.586     1.202
   579   1 h        0.802     0.361     0.564     1.179
   580   8 o        1.608    -0.678    27.137     7.031
   581   1 h        0.804     0.342     0.606     1.223
   582   1 h        0.804     0.337     0.620     1.237
   583   8 o        1.608    -0.672    26.989     7.012
   584   1 h        0.804     0.341     0.609     1.225
   585   1 h        0.804     0.330     0.638     1.255
   586   8 o        1.609    -0.683    27.265     7.047
   587   1 h        0.804     0.334     0.627     1.244
   588   1 h        0.804     0.339     0.614     1.231
   589   8 o        1.606    -0.682    27.242     7.044
   590   1 h        0.803     0.322     0.660     1.276
   591   1 h        0.803     0.360     0.565     1.181
   592   8 o        1.607    -0.688    27.405     7.065
   593   1 h        0.802     0.356     0.574     1.190
   594   1 h        0.805     0.317     0.672     1.288
   595   8 o        1.609    -0.655    26.554     6.955
   596   1 h        0.805     0.342     0.607     1.223
   597   1 h        0.804     0.329     0.639     1.256
   598   8 o        1.606    -0.683    27.253     7.046
   599   1 h        0.801     0.367     0.550     1.165
   600   1 h        0.806     0.311     0.688     1.303
   601   8 o        1.608    -0.675    27.054     7.020
   602   1 h        0.804     0.335     0.624     1.241
   603   1 h        0.804     0.344     0.603     1.220
   604   8 o        1.607    -0.680    27.185     7.037
   605   1 h        0.803     0.325     0.650     1.266
   606   1 h        0.804     0.355     0.576     1.192
   607   8 o        1.606    -0.691    27.472     7.074
   608   1 h        0.803     0.341     0.611     1.228
   609   1 h        0.803     0.331     0.634     1.251
   610   8 o        1.609    -0.672    26.981     7.011
   611   1 h        0.805     0.335     0.624     1.240
   612   1 h        0.804     0.344     0.601     1.218
   613   8 o        1.606    -0.652    26.461     6.942
   614   1 h        0.801     0.345     0.601     1.218
   615   1 h        0.806     0.302     0.715     1.328
   616   8 o        1.608    -0.691    27.465     7.073
   617   1 h        0.803     0.348     0.593     1.209
   618   1 h        0.805     0.324     0.653     1.269
   619   8 o        1.609    -0.662    26.721     6.977
   620   1 h        0.804     0.326     0.647     1.264
   621   1 h        0.805     0.344     0.602     1.219
   622   8 o        1.609    -0.686    27.331     7.056
   623   1 h        0.804     0.337     0.618     1.235
   624   1 h        0.805     0.324     0.654     1.270
   625   8 o        1.605    -0.683    27.261     7.047
   626   1 h        0.806     0.306     0.702     1.316
   627   1 h        0.801     0.356     0.575     1.192
   628   8 o        1.609    -0.656    26.564     6.956
   629   1 h        0.806     0.311     0.688     1.303
   630   1 h        0.803     0.355     0.576     1.192
   631   8 o        1.605    -0.717    28.162     7.162
   632   1 h        0.803     0.363     0.560     1.175
   633   1 h        0.804     0.344     0.603     1.219
   634   8 o        1.609    -0.664    26.782     6.985
   635   1 h        0.806     0.303     0.711     1.325
   636   1 h        0.803     0.356     0.574     1.191
   637   8 o        1.609    -0.689    27.430     7.069
   638   1 h        0.804     0.340     0.613     1.230
   639   1 h        0.805     0.335     0.624     1.240
   640   8 o        1.608    -0.660    26.678     6.971
   641   1 h        0.805     0.319     0.666     1.282
   642   1 h        0.803     0.353     0.583     1.199
   643   8 o        1.605    -0.662    26.717     6.976
   644   1 h        0.806     0.316     0.673     1.289
   645   1 h        0.803     0.361     0.564     1.180
   646   8 o        1.612    -0.674    27.032     7.017
   647   1 h        0.805     0.339     0.614     1.230
   648   1 h        0.804     0.341     0.609     1.226
   649   8 o        1.608    -0.692    27.504     7.078
   650   1 h        0.805     0.331     0.636     1.253
   651   1 h        0.803     0.343     0.604     1.221
   652   8 o        1.606    -0.652    26.477     6.945
   653   1 h        0.805     0.328     0.643     1.260
   654   1 h        0.802     0.335     0.625     1.242
   655   8 o        1.609    -0.655    26.552     6.955
   656   1 h        0.806     0.317     0.671     1.287
   657   1 h        0.803     0.355     0.577     1.194
   658   8 o        1.607    -0.702    27.772     7.112
   659   1 h        0.804     0.342     0.608     1.225
   660   1 h        0.803     0.332     0.633     1.250
   661   8 o        1.606    -0.692    27.513     7.079
   662   1 h        0.803     0.326     0.649     1.266
   663   1 h        0.803     0.350     0.589     1.205
   664   8 o        1.610    -0.659    26.648     6.967
   665   1 h        0.805     0.322     0.658     1.274
   666   1 h        0.804     0.358     0.569     1.185
   667   8 o        1.609    -0.675    27.051     7.020
   668   1 h        0.805     0.327     0.644     1.261
   669   1 h        0.805     0.324     0.652     1.269
   670   8 o        1.606    -0.682    27.231     7.043
   671   1 h        0.803     0.337     0.619     1.236
   672   1 h        0.803     0.336     0.623     1.240
   673   8 o        1.609    -0.669    26.901     7.000
   674   1 h        0.806     0.314     0.680     1.296
   675   1 h        0.803     0.339     0.615     1.232
   676   8 o        1.608    -0.686    27.351     7.058
   677   1 h        0.804     0.349     0.592     1.208
   678   1 h        0.804     0.348     0.593     1.209
   679   8 o        1.607    -0.705    27.837     7.121
   680   1 h        0.804     0.350     0.589     1.205
   681   1 h        0.803     0.357     0.572     1.188
   682   8 o        1.609    -0.676    27.084     7.024
   683   1 h        0.804     0.332     0.632     1.249
   684   1 h        0.804     0.338     0.617     1.234
   685   8 o        1.610    -0.670    26.931     7.004
   686   1 h        0.804     0.348     0.593     1.210
   687   1 h        0.804     0.322     0.658     1.274
   688   8 o        1.608    -0.671    26.942     7.006
   689   1 h        0.804     0.351     0.587     1.203
   690   1 h        0.804     0.333     0.629     1.246
   691   8 o        1.607    -0.690    27.449     7.071
   692   1 h        0.804     0.333     0.629     1.246
   693   1 h        0.803     0.337     0.620     1.237
   694   8 o        1.606    -0.685    27.317     7.054
   695   1 h        0.804     0.326     0.648     1.265
   696   1 h        0.803     0.359     0.567     1.183
   697   8 o        1.607    -0.678    27.133     7.030
   698   1 h        0.803     0.324     0.652     1.268
   699   1 h        0.804     0.335     0.624     1.240
   700   8 o        1.608    -0.676    27.090     7.025
   701   1 h        0.803     0.346     0.597     1.214
   702   1 h        0.805     0.320     0.665     1.281
   703   8 o        1.607    -0.682    27.241     7.044
   704   1 h        0.803     0.333     0.629     1.246
   705   1 h        0.804     0.344     0.602     1.219
   706   8 o        1.607    -0.684    27.298     7.052
   707   1 h        0.804     0.360     0.566     1.181
   708   1 h        0.804     0.335     0.626     1.243
   709   8 o        1.605    -0.692    27.502     7.078
   710   1 h        0.802     0.363     0.560     1.176
   711   1 h        0.803     0.327     0.645     1.262
   712   8 o        1.607    -0.683    27.260     7.047
   713   1 h        0.804     0.323     0.656     1.272
   714   1 h        0.803     0.360     0.565     1.180
   715   8 o        1.608    -0.693    27.529     7.081
   716   1 h        0.804     0.343     0.605     1.221
   717   1 h        0.804     0.344     0.603     1.219
   718   8 o        1.607    -0.696    27.615     7.092
   719   1 h        0.804     0.324     0.653     1.269
   720   1 h        0.803     0.356     0.576     1.192
   721   8 o        1.609    -0.675    27.046     7.019
   722   1 h        0.804     0.330     0.638     1.255
   723   1 h        0.804     0.341     0.611     1.228
   724   8 o        1.609    -0.670    26.927     7.004
   725   1 h        0.804     0.360     0.565     1.180
   726   1 h        0.805     0.347     0.595     1.211
   727   8 o        1.608    -0.694    27.561     7.085
   728   1 h        0.805     0.317     0.671     1.287
   729   1 h        0.803     0.356     0.576     1.192
   730   8 o        1.608    -0.662    26.712     6.975
   731   1 h        0.806     0.307     0.699     1.313
   732   1 h        0.802     0.352     0.584     1.200
   733   8 o        1.607    -0.692    27.510     7.079
   734   1 h        0.802     0.360     0.566     1.182
   735   1 h        0.805     0.312     0.687     1.301
   736   8 o        1.606    -0.666    26.825     6.990
   737   1 h        0.802     0.339     0.614     1.231
   738   1 h        0.805     0.322     0.657     1.273
   739   8 o        1.606    -0.688    27.403     7.065
   740   1 h        0.805     0.317     0.673     1.289
   741   1 h        0.802     0.356     0.575     1.191
   742   8 o        1.609    -0.689    27.418     7.067
   743   1 h        0.804     0.342     0.608     1.224
   744   1 h        0.805     0.332     0.632     1.249
   745   8 o        1.608    -0.688    27.386     7.063
   746   1 h        0.803     0.352     0.584     1.200
   747   1 h        0.805     0.330     0.637     1.253
   748   8 o        1.608    -0.677    27.100     7.026
   749   1 h        0.803     0.338     0.618     1.235
   750   1 h        0.804     0.340     0.613     1.230
   751   8 o        1.609    -0.676    27.078     7.023
   752   1 h        0.804     0.340     0.612     1.228
   753   1 h        0.805     0.321     0.661     1.277
   754   8 o        1.610    -0.649    26.380     6.932
   755   1 h        0.805     0.336     0.622     1.239
   756   1 h        0.805     0.342     0.608     1.225

 Mol. C6AA /au·bohr⁶  :    2900673.213532
 Mol. C8AA /au·bohr⁸  :   52639914.690929
 Mol. α(0) /au        :       2393.457486


Wiberg/Mayer (AO) data.
largest (>0.10) Wiberg bond orders for each atom

 ---------------------------------------------------------------------------
     #   Z sym  total        # sym  WBO       # sym  WBO       # sym  WBO
 ---------------------------------------------------------------------------
     1   8 o    1.833 --     2 h    0.851     3 h    0.803
     2   1 h    0.895 --     1 o    0.851
     3   1 h    0.871 --     1 o    0.803
     4   8 o    1.847 --     6 h    0.838     5 h    0.825
     5   1 h    0.882 --     4 o    0.825
     6   1 h    0.887 --     4 o    0.838
     7   8 o    1.847 --     8 h    0.839     9 h    0.832
     8   1 h    0.884 --     7 o    0.839
     9   1 h    0.878 --     7 o    0.832
    10   8 o    1.801 --    11 h    0.812    12 h    0.794
    11   1 h    0.882 --    10 o    0.812
    12   1 h    0.881 --    10 o    0.794
    13   8 o    1.847 --    15 h    0.837    14 h    0.795
    14   1 h    0.876 --    13 o    0.795
    15   1 h    0.881 --    13 o    0.837
    16   8 o    1.836 --    18 h    0.837    17 h    0.833
    17   1 h    0.877 --    16 o    0.833
    18   1 h    0.897 --    16 o    0.837
    19   8 o    1.851 --    20 h    0.830    21 h    0.828
    20   1 h    0.882 --    19 o    0.830
    21   1 h    0.879 --    19 o    0.828
    22   8 o    1.877 --    23 h    0.810    24 h    0.800
    23   1 h    0.875 --    22 o    0.810
    24   1 h    0.871 --    22 o    0.800
    25   8 o    1.871 --    26 h    0.822    27 h    0.812
    26   1 h    0.878 --    25 o    0.822
    27   1 h    0.883 --    25 o    0.812
    28   8 o    1.856 --    30 h    0.839    29 h    0.822
    29   1 h    0.878 --    28 o    0.822
    30   1 h    0.882 --    28 o    0.839
    31   8 o    1.844 --    32 h    0.812    33 h    0.801
    32   1 h    0.882 --    31 o    0.812
    33   1 h    0.871 --    31 o    0.801
    34   8 o    1.770 --    36 h    0.802    35 h    0.794
    35   1 h    0.883 --    34 o    0.794
    36   1 h    0.883 --    34 o    0.802
    37   8 o    1.880 --    38 h    0.833    39 h    0.832
    38   1 h    0.891 --    37 o    0.833
    39   1 h    0.878 --    37 o    0.832
    40   8 o    1.868 --    41 h    0.834    42 h    0.829
    41   1 h    0.880 --    40 o    0.834
    42   1 h    0.877 --    40 o    0.829
    43   8 o    1.843 --    45 h    0.816    44 h    0.809
    44   1 h    0.880 --    43 o    0.809
    45   1 h    0.880 --    43 o    0.816
    46   8 o    1.867 --    48 h    0.802    47 h    0.787
    47   1 h    0.874 --    46 o    0.787
    48   1 h    0.872 --    46 o    0.802
    49   8 o    1.875 --    50 h    0.804    51 h    0.782
    50   1 h    0.882 --    49 o    0.804
    51   1 h    0.867 --    49 o    0.782
    52   8 o    1.889 --    53 h    0.831    54 h    0.798
    53   1 h    0.881 --    52 o    0.831
    54   1 h    0.869 --    52 o    0.798
    55   8 o    1.866 --    56 h    0.803    57 h    0.795
    56   1 h    0.878 --    55 o    0.803
    57   1 h    0.874 --    55 o    0.795
    58   8 o    1.851 --    60 h    0.830    59 h    0.770
    59   1 h    0.869 --    58 o    0.770
    60   1 h    0.885 --    58 o    0.830
    61   8 o    1.835 --    62 h    0.847    63 h    0.831
    62   1 h    0.886 --    61 o    0.847
    63   1 h    0.883 --    61 o    0.831
    64   8 o    1.876 --    66 h    0.806    65 h    0.805
    65   1 h    0.881 --    64 o    0.805
    66   1 h    0.866 --    64 o    0.806
    67   8 o    1.861 --    68 h    0.809    69 h    0.797
    68   1 h    0.881 --    67 o    0.809
    69   1 h    0.872 --    67 o    0.797
    70   8 o    1.865 --    71 h    0.807    72 h    0.779
    71   1 h    0.884 --    70 o    0.807
    72   1 h    0.869 --    70 o    0.779
    73   8 o    1.871 --    74 h    0.820    75 h    0.790
    74   1 h    0.885 --    73 o    0.820
    75   1 h    0.876 --    73 o    0.790
    76   8 o    1.860 --    78 h    0.840    77 h    0.781
    77   1 h    0.873 --    76 o    0.781
    78   1 h    0.882 --    76 o    0.840
    79   8 o    1.850 --    80 h    0.880    81 h    0.795
    80   1 h    0.899 --    79 o    0.880
    81   1 h    0.882 --    79 o    0.795
    82   8 o    1.879 --    84 h    0.818    83 h    0.796
    83   1 h    0.876 --    82 o    0.796
    84   1 h    0.884 --    82 o    0.818
    85   8 o    1.857 --    87 h    0.873    86 h    0.809
    86   1 h    0.871 --    85 o    0.809
    87   1 h    0.894 --    85 o    0.873
    88   8 o    1.887 --    89 h    0.828    90 h    0.818
    89   1 h    0.890 --    88 o    0.828
    90   1 h    0.878 --    88 o    0.818
    91   8 o    1.841 --    92 h    0.846    93 h    0.816
    92   1 h    0.902 --    91 o    0.846
    93   1 h    0.872 --    91 o    0.816
    94   8 o    1.845 --    96 h    0.832    95 h    0.816
    95   1 h    0.872 --    94 o    0.816
    96   1 h    0.894 --    94 o    0.832
    97   8 o    1.851 --    99 h    0.848    98 h    0.833
    98   1 h    0.886 --    97 o    0.833
    99   1 h    0.890 --    97 o    0.848
   100   8 o    1.831 --   102 h    0.850   101 h    0.813
   101   1 h    0.886 --   100 o    0.813
   102   1 h    0.887 --   100 o    0.850
   103   8 o    1.829 --   104 h    0.842   105 h    0.836
   104   1 h    0.890 --   103 o    0.842
   105   1 h    0.881 --   103 o    0.836
   106   8 o    1.860 --   108 h    0.848   107 h    0.793
   107   1 h    0.870 --   106 o    0.793
   108   1 h    0.891 --   106 o    0.848
   109   8 o    1.880 --   111 h    0.841   110 h    0.808
   110   1 h    0.879 --   109 o    0.808
   111   1 h    0.890 --   109 o    0.841
   112   8 o    1.862 --   113 h    0.827   114 h    0.827
   113   1 h    0.882 --   112 o    0.827
   114   1 h    0.880 --   112 o    0.827
   115   8 o    1.874 --   116 h    0.870   117 h    0.796
   116   1 h    0.887 --   115 o    0.870
   117   1 h    0.875 --   115 o    0.796
   118   8 o    1.892 --   119 h    0.823   120 h    0.806
   119   1 h    0.880 --   118 o    0.823
   120   1 h    0.875 --   118 o    0.806
   121   8 o    1.825 --   123 h    0.868   122 h    0.831
   122   1 h    0.886 --   121 o    0.831
   123   1 h    0.892 --   121 o    0.868
   124   8 o    1.887 --   126 h    0.828   125 h    0.809
   125   1 h    0.889 --   124 o    0.809
   126   1 h    0.883 --   124 o    0.828
   127   8 o    1.783 --   129 h    0.867   128 h    0.827
   128   1 h    0.890 --   127 o    0.827
   129   1 h    0.899 --   127 o    0.867
   130   8 o    1.816 --   131 h    0.798   132 h    0.772
   131   1 h    0.888 --   130 o    0.798
   132   1 h    0.872 --   130 o    0.772
   133   8 o    1.822 --   134 h    0.883   135 h    0.815
   134   1 h    0.899 --   133 o    0.883
   135   1 h    0.872 --   133 o    0.815
   136   8 o    1.875 --   138 h    0.835   137 h    0.796
   137   1 h    0.866 --   136 o    0.796
   138   1 h    0.890 --   136 o    0.835
   139   8 o    1.865 --   141 h    0.830   140 h    0.803
   140   1 h    0.876 --   139 o    0.803
   141   1 h    0.885 --   139 o    0.830
   142   8 o    1.855 --   143 h    0.843   144 h    0.804
   143   1 h    0.888 --   142 o    0.843
   144   1 h    0.869 --   142 o    0.804
   145   8 o    1.847 --   147 h    0.895   146 h    0.824
   146   1 h    0.875 --   145 o    0.824
   147   1 h    0.909 --   145 o    0.895
   148   8 o    1.889 --   149 h    0.833   150 h    0.822
   149   1 h    0.890 --   148 o    0.833
   150   1 h    0.892 --   148 o    0.822
   151   8 o    1.840 --   152 h    0.837   153 h    0.806
   152   1 h    0.894 --   151 o    0.837
   153   1 h    0.877 --   151 o    0.806
   154   8 o    1.849 --   156 h    0.832   155 h    0.802
   155   1 h    0.874 --   154 o    0.802
   156   1 h    0.894 --   154 o    0.832
   157   8 o    1.853 --   158 h    0.876   159 h    0.853
   158   1 h    0.896 --   157 o    0.876
   159   1 h    0.888 --   157 o    0.853
   160   8 o    1.837 --   161 h    0.822   162 h    0.820
   161   1 h    0.879 --   160 o    0.822
   162   1 h    0.879 --   160 o    0.820
   163   8 o    1.859 --   165 h    0.817   164 h    0.805
   164   1 h    0.876 --   163 o    0.805
   165   1 h    0.889 --   163 o    0.817
   166   8 o    1.864 --   167 h    0.819   168 h    0.782
   167   1 h    0.883 --   166 o    0.819
   168   1 h    0.866 --   166 o    0.782
   169   8 o    1.860 --   170 h    0.833   171 h    0.786
   170   1 h    0.880 --   169 o    0.833
   171   1 h    0.871 --   169 o    0.786
   172   8 o    1.850 --   173 h    0.831   174 h    0.813
   173   1 h    0.882 --   172 o    0.831
   174   1 h    0.875 --   172 o    0.813
   175   8 o    1.838 --   177 h    0.813   176 h    0.806
   176   1 h    0.883 --   175 o    0.806
   177   1 h    0.873 --   175 o    0.813
   178   8 o    1.839 --   179 h    0.882   180 h    0.840
   179   1 h    0.894 --   178 o    0.882
   180   1 h    0.884 --   178 o    0.840
   181   8 o    1.842 --   183 h    0.822   182 h    0.795
   182   1 h    0.871 --   181 o    0.795
   183   1 h    0.883 --   181 o    0.822
   184   8 o    1.886 --   186 h    0.839   185 h    0.820
   185   1 h    0.877 --   184 o    0.820
   186   1 h    0.878 --   184 o    0.839
   187   8 o    1.834 --   188 h    0.846   189 h    0.825
   188   1 h    0.891 --   187 o    0.846
   189   1 h    0.879 --   187 o    0.825
   190   8 o    1.832 --   191 h    0.848   192 h    0.801
   191   1 h    0.890 --   190 o    0.848
   192   1 h    0.886 --   190 o    0.801
   193   8 o    1.845 --   195 h    0.872   194 h    0.808
   194   1 h    0.865 --   193 o    0.808
   195   1 h    0.897 --   193 o    0.872
   196   8 o    1.860 --   197 h    0.843   198 h    0.789
   197   1 h    0.892 --   196 o    0.843
   198   1 h    0.871 --   196 o    0.789
   199   8 o    1.864 --   200 h    0.820   201 h    0.765
   200   1 h    0.890 --   199 o    0.820
   201   1 h    0.863 --   199 o    0.765
   202   8 o    1.885 --   203 h    0.815   204 h    0.792
   203   1 h    0.876 --   202 o    0.815
   204   1 h    0.875 --   202 o    0.792
   205   8 o    1.868 --   207 h    0.811   206 h    0.796
   206   1 h    0.870 --   205 o    0.796
   207   1 h    0.886 --   205 o    0.811
   208   8 o    1.817 --   209 h    0.860   210 h    0.797
   209   1 h    0.893 --   208 o    0.860
   210   1 h    0.870 --   208 o    0.797
   211   8 o    1.843 --   213 h    0.851   212 h    0.834
   212   1 h    0.891 --   211 o    0.834
   213   1 h    0.889 --   211 o    0.851
   214   8 o    1.903 --   216 h    0.824   215 h    0.819
   215   1 h    0.877 --   214 o    0.819
   216   1 h    0.871 --   214 o    0.824
   217   8 o    1.852 --   218 h    0.855   219 h    0.819
   218   1 h    0.886 --   217 o    0.855
   219   1 h    0.871 --   217 o    0.819
   220   8 o    1.838 --   222 h    0.846   221 h    0.824
   221   1 h    0.894 --   220 o    0.824
   222   1 h    0.888 --   220 o    0.846
   223   8 o    1.872 --   225 h    0.821   224 h    0.812
   224   1 h    0.869 --   223 o    0.812
   225   1 h    0.876 --   223 o    0.821
   226   8 o    1.896 --   227 h    0.832   228 h    0.802
   227   1 h    0.887 --   226 o    0.832
   228   1 h    0.868 --   226 o    0.802
   229   8 o    1.902 --   231 h    0.830   230 h    0.821
   230   1 h    0.882 --   229 o    0.821
   231   1 h    0.886 --   229 o    0.830
   232   8 o    1.888 --   234 h    0.799   233 h    0.792
   233   1 h    0.872 --   232 o    0.792
   234   1 h    0.878 --   232 o    0.799
   235   8 o    1.876 --   236 h    0.817   237 h    0.803
   236   1 h    0.879 --   235 o    0.817
   237   1 h    0.876 --   235 o    0.803
   238   8 o    1.843 --   239 h    0.894   240 h    0.805
   239   1 h    0.900 --   238 o    0.894
   240   1 h    0.876 --   238 o    0.805
   241   8 o    1.820 --   243 h    0.837   242 h    0.817
   242   1 h    0.877 --   241 o    0.817
   243   1 h    0.890 --   241 o    0.837
   244   8 o    1.807 --   246 h    0.888   245 h    0.863
   245   1 h    0.892 --   244 o    0.863
   246   1 h    0.900 --   244 o    0.888
   247   8 o    1.878 --   249 h    0.827   248 h    0.819
   248   1 h    0.878 --   247 o    0.819
   249   1 h    0.891 --   247 o    0.827
   250   8 o    1.830 --   251 h    0.876   252 h    0.815
   251   1 h    0.899 --   250 o    0.876
   252   1 h    0.886 --   250 o    0.815
   253   8 o    1.860 --   254 h    0.830   255 h    0.806
   254   1 h    0.878 --   253 o    0.830
   255   1 h    0.867 --   253 o    0.806
   256   8 o    1.844 --   257 h    0.797   258 h    0.786
   257   1 h    0.870 --   256 o    0.797
   258   1 h    0.882 --   256 o    0.786
   259   8 o    1.846 --   260 h    0.832   261 h    0.808
   260   1 h    0.891 --   259 o    0.832
   261   1 h    0.885 --   259 o    0.808
   262   8 o    1.858 --   263 h    0.864   264 h    0.776
   263   1 h    0.897 --   262 o    0.864
   264   1 h    0.868 --   262 o    0.776
   265   8 o    1.816 --   267 h    0.840   266 h    0.830
   266   1 h    0.878 --   265 o    0.830
   267   1 h    0.892 --   265 o    0.840
   268   8 o    1.860 --   270 h    0.880   269 h    0.807
   269   1 h    0.884 --   268 o    0.807
   270   1 h    0.897 --   268 o    0.880
   271   8 o    1.865 --   272 h    0.835   273 h    0.823
   272   1 h    0.882 --   271 o    0.835
   273   1 h    0.888 --   271 o    0.823
   274   8 o    1.849 --   276 h    0.835   275 h    0.822
   275   1 h    0.874 --   274 o    0.822
   276   1 h    0.889 --   274 o    0.835
   277   8 o    1.839 --   279 h    0.828   278 h    0.807
   278   1 h    0.882 --   277 o    0.807
   279   1 h    0.875 --   277 o    0.828
   280   8 o    1.843 --   282 h    0.825   281 h    0.771
   281   1 h    0.873 --   280 o    0.771
   282   1 h    0.893 --   280 o    0.825
   283   8 o    1.877 --   285 h    0.832   284 h    0.820
   284   1 h    0.884 --   283 o    0.820
   285   1 h    0.893 --   283 o    0.832
   286   8 o    1.856 --   287 h    0.819   288 h    0.810
   287   1 h    0.883 --   286 o    0.819
   288   1 h    0.876 --   286 o    0.810
   289   8 o    1.819 --   291 h    0.847   290 h    0.840
   290   1 h    0.892 --   289 o    0.840
   291   1 h    0.880 --   289 o    0.847
   292   8 o    1.832 --   294 h    0.857   293 h    0.827
   293   1 h    0.880 --   292 o    0.827
   294   1 h    0.896 --   292 o    0.857
   295   8 o    1.868 --   296 h    0.818   297 h    0.780
   296   1 h    0.881 --   295 o    0.818
   297   1 h    0.874 --   295 o    0.780
   298   8 o    1.865 --   299 h    0.855   300 h    0.797
   299   1 h    0.881 --   298 o    0.855
   300   1 h    0.871 --   298 o    0.797
   301   8 o    1.843 --   303 h    0.838   302 h    0.819
   302   1 h    0.877 --   301 o    0.819
   303   1 h    0.900 --   301 o    0.838
   304   8 o    1.843 --   305 h    0.883   306 h    0.822
   305   1 h    0.898 --   304 o    0.883
   306   1 h    0.877 --   304 o    0.822
   307   8 o    1.868 --   308 h    0.849   309 h    0.783
   308   1 h    0.897 --   307 o    0.849
   309   1 h    0.871 --   307 o    0.783
   310   8 o    1.864 --   311 h    0.822   312 h    0.804
   311   1 h    0.892 --   310 o    0.822
   312   1 h    0.872 --   310 o    0.804
   313   8 o    1.850 --   314 h    0.861   315 h    0.809
   314   1 h    0.900 --   313 o    0.861
   315   1 h    0.873 --   313 o    0.809
   316   8 o    1.824 --   317 h    0.859   318 h    0.842
   317   1 h    0.889 --   316 o    0.859
   318   1 h    0.885 --   316 o    0.842
   319   8 o    1.852 --   321 h    0.840   320 h    0.772
   320   1 h    0.868 --   319 o    0.772
   321   1 h    0.894 --   319 o    0.840
   322   8 o    1.816 --   324 h    0.840   323 h    0.836
   323   1 h    0.893 --   322 o    0.836
   324   1 h    0.877 --   322 o    0.840
   325   8 o    1.819 --   327 h    0.846   326 h    0.810
   326   1 h    0.872 --   325 o    0.810
   327   1 h    0.895 --   325 o    0.846
   328   8 o    1.855 --   330 h    0.832   329 h    0.777
   329   1 h    0.867 --   328 o    0.777
   330   1 h    0.888 --   328 o    0.832
   331   8 o    1.815 --   333 h    0.886   332 h    0.811
   332   1 h    0.875 --   331 o    0.811
   333   1 h    0.903 --   331 o    0.886
   334   8 o    1.784 --   335 h    0.858   336 h    0.845
   335   1 h    0.888 --   334 o    0.858
   336   1 h    0.894 --   334 o    0.845
   337   8 o    1.880 --   338 h    0.850   339 h    0.771
   338   1 h    0.897 --   337 o    0.850
   339   1 h    0.868 --   337 o    0.771
   340   8 o    1.866 --   341 h    0.834   342 h    0.804
   341   1 h    0.887 --   340 o    0.834
   342   1 h    0.884 --   340 o    0.804
   343   8 o    1.875 --   345 h    0.833   344 h    0.794
   344   1 h    0.861 --   343 o    0.794
   345   1 h    0.886 --   343 o    0.833
   346   8 o    1.869 --   347 h    0.836   348 h    0.820
   347   1 h    0.890 --   346 o    0.836
   348   1 h    0.880 --   346 o    0.820
   349   8 o    1.851 --   351 h    0.861   350 h    0.847
   350   1 h    0.884 --   349 o    0.847
   351   1 h    0.882 --   349 o    0.861
   352   8 o    1.847 --   354 h    0.854   353 h    0.816
   353   1 h    0.883 --   352 o    0.816
   354   1 h    0.889 --   352 o    0.854
   355   8 o    1.811 --   357 h    0.869   356 h    0.855
   356   1 h    0.886 --   355 o    0.855
   357   1 h    0.888 --   355 o    0.869
   358   8 o    1.856 --   359 h    0.830   360 h    0.819
   359   1 h    0.883 --   358 o    0.830
   360   1 h    0.880 --   358 o    0.819
   361   8 o    1.793 --   362 h    0.837   363 h    0.812
   362   1 h    0.889 --   361 o    0.837
   363   1 h    0.877 --   361 o    0.812
   364   8 o    1.838 --   365 h    0.824   366 h    0.803
[...]
   371   1 h    0.879 --   370 o    0.822
   372   1 h    0.886 --   370 o    0.847
   373   8 o    1.828 --   375 h    0.903   374 h    0.786
   374   1 h    0.875 --   373 o    0.786
   375   1 h    0.909 --   373 o    0.903
   376   8 o    1.853 --   377 h    0.851   378 h    0.810
   377   1 h    0.880 --   376 o    0.851
   378   1 h    0.880 --   376 o    0.810
   379   8 o    1.854 --   381 h    0.848   380 h    0.847
   380   1 h    0.885 --   379 o    0.847
   381   1 h    0.884 --   379 o    0.848
   382   8 o    1.832 --   383 h    0.867   384 h    0.793
   383   1 h    0.896 --   382 o    0.867
   384   1 h    0.873 --   382 o    0.793
   385   8 o    1.841 --   386 h    0.857   387 h    0.804
   386   1 h    0.894 --   385 o    0.857
   387   1 h    0.874 --   385 o    0.804
   388   8 o    1.805 --   390 h    0.850   389 h    0.833
   389   1 h    0.888 --   388 o    0.833
   390   1 h    0.889 --   388 o    0.850
   391   8 o    1.824 --   392 h    0.894   393 h    0.805
   392   1 h    0.904 --   391 o    0.894
   393   1 h    0.878 --   391 o    0.805
   394   8 o    1.855 --   396 h    0.870   395 h    0.795
   395   1 h    0.879 --   394 o    0.795
   396   1 h    0.896 --   394 o    0.870
   397   8 o    1.869 --   398 h    0.832   399 h    0.798
   398   1 h    0.880 --   397 o    0.832
   399   1 h    0.870 --   397 o    0.798
   400   8 o    1.826 --   402 h    0.831   401 h    0.767
   401   1 h    0.871 --   400 o    0.767
   402   1 h    0.886 --   400 o    0.831
   403   8 o    1.809 --   405 h    0.840   404 h    0.828
   404   1 h    0.879 --   403 o    0.828
   405   1 h    0.892 --   403 o    0.840
   406   8 o    1.837 --   408 h    0.840   407 h    0.830
   407   1 h    0.894 --   406 o    0.830
   408   1 h    0.882 --   406 o    0.840
   409   8 o    1.863 --   410 h    0.841   411 h    0.833   533 h    0.101
   410   1 h    0.884 --   409 o    0.841
   411   1 h    0.882 --   409 o    0.833
   412   8 o    1.870 --   414 h    0.809   413 h    0.807
   413   1 h    0.881 --   412 o    0.807
   414   1 h    0.869 --   412 o    0.809
   415   8 o    1.829 --   416 h    0.840   417 h    0.785
   416   1 h    0.894 --   415 o    0.840
   417   1 h    0.871 --   415 o    0.785
   418   8 o    1.777 --   419 h    0.865   420 h    0.831
   419   1 h    0.898 --   418 o    0.865
   420   1 h    0.880 --   418 o    0.831
   421   8 o    1.890 --   423 h    0.860   422 h    0.821
   422   1 h    0.886 --   421 o    0.821
   423   1 h    0.890 --   421 o    0.860
   424   8 o    1.848 --   425 h    0.889   426 h    0.801
   425   1 h    0.904 --   424 o    0.889
   426   1 h    0.864 --   424 o    0.801
   427   8 o    1.814 --   429 h    0.851   428 h    0.843
   428   1 h    0.884 --   427 o    0.843
   429   1 h    0.888 --   427 o    0.851
   430   8 o    1.822 --   431 h    0.842   432 h    0.825
   431   1 h    0.885 --   430 o    0.842
   432   1 h    0.883 --   430 o    0.825
   433   8 o    1.854 --   435 h    0.844   434 h    0.780
   434   1 h    0.861 --   433 o    0.780
   435   1 h    0.890 --   433 o    0.844
   436   8 o    1.868 --   437 h    0.839   438 h    0.833
   437   1 h    0.880 --   436 o    0.839
   438   1 h    0.882 --   436 o    0.833
   439   8 o    1.873 --   441 h    0.832   440 h    0.781   627 h    0.104
   440   1 h    0.873 --   439 o    0.781
   441   1 h    0.880 --   439 o    0.832
   442   8 o    1.848 --   444 h    0.887   443 h    0.794
   443   1 h    0.870 --   442 o    0.794
   444   1 h    0.903 --   442 o    0.887
   445   8 o    1.820 --   446 h    0.858   447 h    0.842
   446   1 h    0.883 --   445 o    0.858
   447   1 h    0.881 --   445 o    0.842
   448   8 o    1.842 --   450 h    0.860   449 h    0.817
   449   1 h    0.887 --   448 o    0.817
   450   1 h    0.895 --   448 o    0.860
   451   8 o    1.808 --   452 h    0.864   453 h    0.834
   452   1 h    0.891 --   451 o    0.864
   453   1 h    0.885 --   451 o    0.834
   454   8 o    1.824 --   456 h    0.852   455 h    0.809
   455   1 h    0.878 --   454 o    0.809
   456   1 h    0.893 --   454 o    0.852
   457   8 o    1.849 --   459 h    0.901   458 h    0.801
   458   1 h    0.875 --   457 o    0.801
   459   1 h    0.907 --   457 o    0.901
   460   8 o    1.852 --   462 h    0.851   461 h    0.833
   461   1 h    0.884 --   460 o    0.833
   462   1 h    0.888 --   460 o    0.851
   463   8 o    1.827 --   465 h    0.834   464 h    0.831
   464   1 h    0.891 --   463 o    0.831
   465   1 h    0.884 --   463 o    0.834
   466   8 o    1.803 --   468 h    0.855   467 h    0.850
   467   1 h    0.884 --   466 o    0.850
   468   1 h    0.890 --   466 o    0.855
   469   8 o    1.844 --   471 h    0.845   470 h    0.825
   470   1 h    0.884 --   469 o    0.825
   471   1 h    0.886 --   469 o    0.845
   472   8 o    1.825 --   473 h    0.855   474 h    0.796
   473   1 h    0.892 --   472 o    0.855
   474   1 h    0.874 --   472 o    0.796
   475   8 o    1.850 --   476 h    0.855   477 h    0.815
   476   1 h    0.890 --   475 o    0.855
   477   1 h    0.876 --   475 o    0.815
   478   8 o    1.857 --   479 h    0.847   480 h    0.824
   479   1 h    0.889 --   478 o    0.847
   480   1 h    0.889 --   478 o    0.824
   481   8 o    1.875 --   483 h    0.810   482 h    0.803
   482   1 h    0.876 --   481 o    0.803
   483   1 h    0.870 --   481 o    0.810
   484   8 o    1.793 --   485 h    0.898   486 h    0.770
   485   1 h    0.907 --   484 o    0.898
   486   1 h    0.869 --   484 o    0.770
   487   8 o    1.827 --   488 h    0.868   489 h    0.791
   488   1 h    0.895 --   487 o    0.868
   489   1 h    0.863 --   487 o    0.791
   490   8 o    1.813 --   492 h    0.864   491 h    0.819
   491   1 h    0.878 --   490 o    0.819
   492   1 h    0.895 --   490 o    0.864
   493   8 o    1.867 --   495 h    0.821   494 h    0.797
   494   1 h    0.871 --   493 o    0.797
   495   1 h    0.878 --   493 o    0.821
   496   8 o    1.855 --   498 h    0.840   497 h    0.802
   497   1 h    0.878 --   496 o    0.802
   498   1 h    0.892 --   496 o    0.840
   499   8 o    1.884 --   501 h    0.857   500 h    0.817
   500   1 h    0.885 --   499 o    0.817
   501   1 h    0.894 --   499 o    0.857
   502   8 o    1.819 --   504 h    0.866   503 h    0.858
   503   1 h    0.884 --   502 o    0.858
   504   1 h    0.891 --   502 o    0.866
   505   8 o    1.883 --   506 h    0.872   507 h    0.826
   506   1 h    0.896 --   505 o    0.872
   507   1 h    0.888 --   505 o    0.826
   508   8 o    1.830 --   510 h    0.828   509 h    0.814
   509   1 h    0.873 --   508 o    0.814
   510   1 h    0.886 --   508 o    0.828
   511   8 o    1.831 --   512 h    0.841   513 h    0.802
   512   1 h    0.888 --   511 o    0.841
   513   1 h    0.880 --   511 o    0.802
   514   8 o    1.848 --   516 h    0.864   515 h    0.799
   515   1 h    0.879 --   514 o    0.799
   516   1 h    0.894 --   514 o    0.864
   517   8 o    1.822 --   519 h    0.851   518 h    0.786
   518   1 h    0.870 --   517 o    0.786
   519   1 h    0.898 --   517 o    0.851
   520   8 o    1.786 --   521 h    0.834   522 h    0.834
   521   1 h    0.892 --   520 o    0.834
   522   1 h    0.888 --   520 o    0.834
   523   8 o    1.843 --   524 h    0.834   525 h    0.821
   524   1 h    0.887 --   523 o    0.834
   525   1 h    0.880 --   523 o    0.821
   526   8 o    1.860 --   528 h    0.831   527 h    0.819
   527   1 h    0.888 --   526 o    0.819
   528   1 h    0.889 --   526 o    0.831
   529   8 o    1.817 --   531 h    0.826   530 h    0.815
   530   1 h    0.876 --   529 o    0.815
   531   1 h    0.886 --   529 o    0.826
   532   8 o    1.873 --   534 h    0.893   533 h    0.773
   533   1 h    0.878 --   532 o    0.773   409 o    0.101
   534   1 h    0.900 --   532 o    0.893
   535   8 o    1.797 --   536 h    0.845   537 h    0.801
   536   1 h    0.898 --   535 o    0.845
   537   1 h    0.879 --   535 o    0.801
   538   8 o    1.843 --   539 h    0.839   540 h    0.818
   539   1 h    0.891 --   538 o    0.839
   540   1 h    0.876 --   538 o    0.818
   541   8 o    1.806 --   542 h    0.869   543 h    0.835
   542   1 h    0.895 --   541 o    0.869
   543   1 h    0.882 --   541 o    0.835
   544   8 o    1.861 --   545 h    0.896   546 h    0.835
   545   1 h    0.904 --   544 o    0.896
   546   1 h    0.880 --   544 o    0.835
   547   8 o    1.827 --   548 h    0.889   549 h    0.782
   548   1 h    0.903 --   547 o    0.889
   549   1 h    0.869 --   547 o    0.782
   550   8 o    1.839 --   551 h    0.856   552 h    0.808
   551   1 h    0.892 --   550 o    0.856
   552   1 h    0.868 --   550 o    0.808
   553   8 o    1.857 --   555 h    0.861   554 h    0.852
   554   1 h    0.883 --   553 o    0.852
   555   1 h    0.887 --   553 o    0.861
   556   8 o    1.810 --   558 h    0.869   557 h    0.833
   557   1 h    0.883 --   556 o    0.833
   558   1 h    0.896 --   556 o    0.869
   559   8 o    1.827 --   561 h    0.868   560 h    0.793
   560   1 h    0.876 --   559 o    0.793
   561   1 h    0.893 --   559 o    0.868
   562   8 o    1.820 --   564 h    0.902   563 h    0.801
   563   1 h    0.874 --   562 o    0.801
   564   1 h    0.907 --   562 o    0.902
   565   8 o    1.861 --   566 h    0.817   567 h    0.777
   566   1 h    0.890 --   565 o    0.817
   567   1 h    0.869 --   565 o    0.777
   568   8 o    1.860 --   570 h    0.855   569 h    0.837
   569   1 h    0.877 --   568 o    0.837
   570   1 h    0.885 --   568 o    0.855
   571   8 o    1.837 --   573 h    0.878   572 h    0.777
   572   1 h    0.862 --   571 o    0.777
   573   1 h    0.899 --   571 o    0.878
   574   8 o    1.853 --   575 h    0.831   576 h    0.811
   575   1 h    0.893 --   574 o    0.831
   576   1 h    0.880 --   574 o    0.811
   577   8 o    1.872 --   578 h    0.819   579 h    0.785
   578   1 h    0.877 --   577 o    0.819
   579   1 h    0.870 --   577 o    0.785
   580   8 o    1.842 --   582 h    0.839   581 h    0.833
   581   1 h    0.883 --   580 o    0.833
   582   1 h    0.887 --   580 o    0.839
   583   8 o    1.847 --   584 h    0.833   585 h    0.829
   584   1 h    0.883 --   583 o    0.833
   585   1 h    0.891 --   583 o    0.829
   586   8 o    1.794 --   587 h    0.846   588 h    0.844
   587   1 h    0.888 --   586 o    0.846
   588   1 h    0.885 --   586 o    0.844
   589   8 o    1.863 --   590 h    0.838   591 h    0.796
   590   1 h    0.896 --   589 o    0.838
   591   1 h    0.870 --   589 o    0.796
   592   8 o    1.816 --   594 h    0.872   593 h    0.788
   593   1 h    0.873 --   592 o    0.788
   594   1 h    0.899 --   592 o    0.872
   595   8 o    1.859 --   597 h    0.854   596 h    0.845
   596   1 h    0.883 --   595 o    0.845
   597   1 h    0.892 --   595 o    0.854
   598   8 o    1.838 --   600 h    0.891   599 h    0.765
   599   1 h    0.865 --   598 o    0.765
   600   1 h    0.903 --   598 o    0.891
   601   8 o    1.840 --   602 h    0.842   603 h    0.833
   602   1 h    0.888 --   601 o    0.842
   603   1 h    0.882 --   601 o    0.833
   604   8 o    1.861 --   605 h    0.832   606 h    0.806
   605   1 h    0.894 --   604 o    0.832
   606   1 h    0.874 --   604 o    0.806
   607   8 o    1.833 --   609 h    0.822   608 h    0.814
   608   1 h    0.884 --   607 o    0.814
   609   1 h    0.890 --   607 o    0.822
   610   8 o    1.840 --   611 h    0.850   612 h    0.833
   611   1 h    0.887 --   610 o    0.850
   612   1 h    0.881 --   610 o    0.833
   613   8 o    1.851 --   615 h    0.905   614 h    0.784
   614   1 h    0.881 --   613 o    0.784
   615   1 h    0.909 --   613 o    0.905
   616   8 o    1.810 --   618 h    0.869   617 h    0.819
   617   1 h    0.879 --   616 o    0.819
   618   1 h    0.895 --   616 o    0.869
   619   8 o    1.843 --   621 h    0.856   620 h    0.837
   620   1 h    0.894 --   619 o    0.837
   621   1 h    0.881 --   619 o    0.856
   622   8 o    1.800 --   624 h    0.855   623 h    0.832
   623   1 h    0.886 --   622 o    0.832
   624   1 h    0.895 --   622 o    0.855
   625   8 o    1.822 --   626 h    0.902   627 h    0.764
   626   1 h    0.906 --   625 o    0.902
   627   1 h    0.873 --   625 o    0.764   439 o    0.104
   628   8 o    1.830 --   629 h    0.899   630 h    0.820
   629   1 h    0.903 --   628 o    0.899
   630   1 h    0.874 --   628 o    0.820
   631   8 o    1.842 --   633 h    0.815   632 h    0.770
   632   1 h    0.869 --   631 o    0.770
   633   1 h    0.881 --   631 o    0.815
   634   8 o    1.818 --   635 h    0.901   636 h    0.812
   635   1 h    0.908 --   634 o    0.901
   636   1 h    0.873 --   634 o    0.812
   637   8 o    1.809 --   639 h    0.856   638 h    0.841
   638   1 h    0.885 --   637 o    0.841
   639   1 h    0.887 --   637 o    0.856
   640   8 o    1.850 --   641 h    0.885   642 h    0.808
   641   1 h    0.898 --   640 o    0.885
   642   1 h    0.876 --   640 o    0.808
   643   8 o    1.871 --   644 h    0.895   645 h    0.773
   644   1 h    0.900 --   643 o    0.895
   645   1 h    0.870 --   643 o    0.773
   646   8 o    1.842 --   647 h    0.836   648 h    0.834
   647   1 h    0.885 --   646 o    0.836
   648   1 h    0.883 --   646 o    0.834
   649   8 o    1.809 --   650 h    0.863   651 h    0.823
   650   1 h    0.891 --   649 o    0.863
   651   1 h    0.882 --   649 o    0.823
   652   8 o    1.892 --   653 h    0.862   654 h    0.806
   653   1 h    0.893 --   652 o    0.862
   654   1 h    0.888 --   652 o    0.806
   655   8 o    1.843 --   656 h    0.893   657 h    0.825
   656   1 h    0.899 --   655 o    0.893
   657   1 h    0.874 --   655 o    0.825
   658   8 o    1.811 --   660 h    0.827   659 h    0.825
   659   1 h    0.883 --   658 o    0.825
   660   1 h    0.890 --   658 o    0.827
   661   8 o    1.829 --   662 h    0.836   663 h    0.814
   662   1 h    0.894 --   661 o    0.836
   663   1 h    0.878 --   661 o    0.814
   664   8 o    1.855 --   665 h    0.877   666 h    0.831
   665   1 h    0.896 --   664 o    0.877
   666   1 h    0.871 --   664 o    0.831
   667   8 o    1.788 --   668 h    0.863   669 h    0.857
   668   1 h    0.893 --   667 o    0.863
   669   1 h    0.895 --   667 o    0.857
   670   8 o    1.849 --   672 h    0.827   671 h    0.817
   671   1 h    0.886 --   670 o    0.817
   672   1 h    0.887 --   670 o    0.827
   673   8 o    1.807 --   674 h    0.892   675 h    0.815
   674   1 h    0.901 --   673 o    0.892
   675   1 h    0.885 --   673 o    0.815
   676   8 o    1.855 --   677 h    0.827   678 h    0.812
   677   1 h    0.878 --   676 o    0.827
   678   1 h    0.879 --   676 o    0.812
   679   8 o    1.858 --   680 h    0.816   681 h    0.784
   680   1 h    0.878 --   679 o    0.816
   681   1 h    0.872 --   679 o    0.784
   682   8 o    1.813 --   683 h    0.857   684 h    0.848
   683   1 h    0.890 --   682 o    0.857
   684   1 h    0.886 --   682 o    0.848
   685   8 o    1.851 --   687 h    0.844   686 h    0.822
   686   1 h    0.879 --   685 o    0.822
   687   1 h    0.896 --   685 o    0.844
   688   8 o    1.862 --   690 h    0.834   689 h    0.824
   689   1 h    0.877 --   688 o    0.824
   690   1 h    0.889 --   688 o    0.834
   691   8 o    1.817 --   692 h    0.851   693 h    0.823
   692   1 h    0.889 --   691 o    0.851
   693   1 h    0.887 --   691 o    0.823
   694   8 o    1.862 --   695 h    0.826   696 h    0.793
   695   1 h    0.894 --   694 o    0.826
   696   1 h    0.871 --   694 o    0.793
   697   8 o    1.826 --   699 h    0.838   698 h    0.827
   698   1 h    0.895 --   697 o    0.827
   699   1 h    0.887 --   697 o    0.838
   700   8 o    1.814 --   702 h    0.882   701 h    0.810
   701   1 h    0.880 --   700 o    0.810
   702   1 h    0.898 --   700 o    0.882
   703   8 o    1.838 --   704 h    0.841   705 h    0.825
   704   1 h    0.889 --   703 o    0.841
   705   1 h    0.882 --   703 o    0.825
   706   8 o    1.854 --   708 h    0.840   707 h    0.824
   707   1 h    0.870 --   706 o    0.824
   708   1 h    0.888 --   706 o    0.840
   709   8 o    1.868 --   711 h    0.831   710 h    0.790
   710   1 h    0.869 --   709 o    0.790
   711   1 h    0.893 --   709 o    0.831
   712   8 o    1.851 --   713 h    0.860   714 h    0.803
   713   1 h    0.896 --   712 o    0.860
   714   1 h    0.870 --   712 o    0.803
   715   8 o    1.834 --   717 h    0.823   716 h    0.820
   716   1 h    0.882 --   715 o    0.820
   717   1 h    0.882 --   715 o    0.823
   718   8 o    1.821 --   719 h    0.840   720 h    0.815
   719   1 h    0.895 --   718 o    0.840
   720   1 h    0.874 --   718 o    0.815
   721   8 o    1.836 --   722 h    0.848   723 h    0.830
   722   1 h    0.891 --   721 o    0.848
   723   1 h    0.884 --   721 o    0.830
   724   8 o    1.874 --   726 h    0.846   725 h    0.824
   725   1 h    0.870 --   724 o    0.824
   726   1 h    0.879 --   724 o    0.846
   727   8 o    1.812 --   728 h    0.859   729 h    0.809
   728   1 h    0.899 --   727 o    0.859
   729   1 h    0.874 --   727 o    0.809
   730   8 o    1.831 --   731 h    0.901   732 h    0.804
   731   1 h    0.905 --   730 o    0.901
   732   1 h    0.876 --   730 o    0.804
   733   8 o    1.812 --   735 h    0.887   734 h    0.777
   734   1 h    0.871 --   733 o    0.777
   735   1 h    0.903 --   733 o    0.887
   736   8 o    1.845 --   738 h    0.872   737 h    0.795
   737   1 h    0.885 --   736 o    0.795
   738   1 h    0.896 --   736 o    0.872
   739   8 o    1.826 --   740 h    0.878   741 h    0.777
   740   1 h    0.900 --   739 o    0.878
   741   1 h    0.873 --   739 o    0.777
   742   8 o    1.791 --   744 h    0.862   743 h    0.834
   743   1 h    0.883 --   742 o    0.834
   744   1 h    0.890 --   742 o    0.862
   745   8 o    1.839 --   747 h    0.863   746 h    0.805
   746   1 h    0.876 --   745 o    0.805
   747   1 h    0.891 --   745 o    0.863
   748   8 o    1.838 --   750 h    0.849   749 h    0.838
   749   1 h    0.886 --   748 o    0.838
   750   1 h    0.885 --   748 o    0.849
   751   8 o    1.802 --   753 h    0.878   752 h    0.827
   752   1 h    0.884 --   751 o    0.827
   753   1 h    0.897 --   751 o    0.878
   754   8 o    1.853 --   755 h    0.872   756 h    0.852
   755   1 h    0.887 --   754 o    0.872
   756   1 h    0.883 --   754 o    0.852
 ---------------------------------------------------------------------------

Topologies differ in total number of bonds
Writing topology from bond orders to xtbtopo.mol

molecular dipole:
                 x           y           z       tot (Debye)
 q only:        2.144      -1.048      -0.610
   full:        2.155      -1.554      -1.751       8.087
molecular quadrupole (traceless):
                xx          xy          yy          xz          yz          zz
 q only:       37.002      -9.447     -25.876       2.758      -1.236     -11.126
  q+dip:       63.106     -32.908     -43.636      -6.263      -2.476     -19.470
   full:       65.357     -34.179     -44.495      -8.242      -3.119     -20.862


           -------------------------------------------------
          | TOTAL ENERGY            -1283.616484334891 Eh   |
          | GRADIENT NORM               0.098821369752 Eh/α |
          | HOMO-LUMO GAP               7.799237528252 eV   |
           -------------------------------------------------

------------------------------------------------------------------------
 * finished run on 2022/11/24 at 09:28:09.632     
------------------------------------------------------------------------
 total:
 * wall-time:     0 d,  0 h,  0 min, 23.104 sec
 *  cpu-time:     0 d,  0 h,  0 min, 37.334 sec
 * ratio c/w:     1.616 speedup
 SCF:
 * wall-time:     0 d,  0 h,  0 min, 22.043 sec
 *  cpu-time:     0 d,  0 h,  0 min, 35.564 sec
 * ratio c/w:     1.613 speedup

