756
 energy: -1283.351289171266 gnorm: 0.014438441173 xtb: 6.5.1 (579679a)
o           -3.59756128542886       -4.82322779321512       -4.81019960252376
h           -2.84322150131420       -5.27146827722871       -5.22238096158257
h           -3.19388505118077       -4.02737077505219       -4.40653293767505
o            3.28110284548899       -1.76506801254227        0.85923707188264
h            3.80255657930976       -1.96666188913881        0.06362541589679
h            3.88930986076103       -1.67103063116686        1.60600688599919
o            2.52300529792307        2.22509586126220       -2.33729265235307
h            1.66963839229599        2.37423776342520       -1.90104995792634
h            3.05766288521918        3.00598749311356       -2.11279339788136
o            2.31053096563555        0.54493790674235        0.16884595823487
h            3.05857672133411        0.70182436058685       -0.43751902490847
h            2.51144979279484       -0.35176641346402        0.52349913763123
o            2.61388689589140       -0.56580511230629       -2.64221113706351
h            3.38939926734170       -1.03640133454597       -2.26826573905673
h            2.65107581804122        0.36247578437038       -2.37390764515574
o           -2.18219751884219       -6.20187528640796        1.35121972463754
h           -1.48387754833004       -5.78528430195823        0.83194688711454
h           -1.99423880588037       -7.15276625648751        1.32637197434334
o            5.39500239626773        0.85054208698937        1.50734283275315
h            6.07391310378027        1.54256708258531        1.58947377673328
h            4.58279108002195        1.17666141703291        1.92802629342323
o            1.25231017131455       -2.48143463398002       -1.30843730840713
h            1.16946432360080       -2.37248653118742       -0.33835587140831
h            1.65277278406061       -1.69168512945022       -1.71744488476068
o            2.73084665744012       -4.72789070376032        1.06933979558963
h            3.55170659058285       -4.25396360802951        1.28055760129370
h            2.71603186831473       -4.84809956310740        0.10066280156084
o            0.57753982371769        2.31479213114049        1.61844424714576
h            1.49329849055603        2.07253190141648        1.84038435445429
h            0.04798604544784        1.53365092751211        1.83336970310546
o            0.03304010943466        3.40229338114504        4.04721021581165
h           -0.51704739742975        2.73677685708969        4.50494553764445
h            0.11303180641317        3.10972037658913        3.11962844897013
o           -0.76088346280750        0.22169085933240        2.70133419037815
h           -1.35408947067182       -0.44044596073686        3.12086518405547
h            0.13260335249762       -0.14019243869331        2.86103144326215
o            0.59509284358911       -2.80897624779155       -4.12438898835113
h            0.17971891582608       -2.77664879599043       -5.00578392207812
h            1.46978093083826       -2.40597430438086       -4.21669671218706
o           -3.02320748531562        1.58966977061524        2.26752435832555
h           -3.51406471807538        0.89572055809779        1.79697566668189
h           -2.13026268166058        1.23941127871132        2.42030709425084
o            4.65383131843108        0.84733191998688       -1.05773745386648
h            5.03334938082070        0.73662596245823       -0.16510040678231
h            4.97349224337402        1.70465490514718       -1.39237660401953
o            1.43594739537722       -0.05792913732565       -4.96631477203979
h            0.56901978730806       -0.34438977524837       -4.60213007932765
h            2.07829252168212       -0.34907695001385       -4.29239014706442
o           -2.09370191815266        0.94612015802190       -5.57348400770851
h           -2.18578244920948        1.91779956147239       -5.49909048701077
h           -1.64670220152405        0.59207735136896       -4.77318320975782
o           -7.27788186047933       -1.04656412270282       -0.07657131519577
h           -7.29683523622111       -0.39330019401054        0.63985754043585
h           -6.58879729101054       -1.70552888486597        0.14150393807182
o           -5.19686235185033       -2.58895610710450        0.40194450910899
h           -4.89503339305316       -3.46960144660059        0.70369849861291
h           -4.81064291518271       -1.93907289219859        1.02773231495018
o           -5.62705579713822        2.74635373470132        1.25785719179991
h           -5.11495806894898        2.13044734504352        0.68434786340838
h           -5.27772459654820        2.64932352600331        2.15722757595882
o           -1.39610990207319        3.13434883050456       -3.03121643417272
h           -2.27884557117554        2.99780638327252       -3.39666010026783
h           -0.77201185147505        2.84727543813827       -3.71895321416619
o            5.29006461300359        0.41242503053639       -3.65010285625407
h            4.55544745355895        0.87929854372138       -4.09612578017342
h            5.08312338760271        0.39670931239445       -2.70040848886394
o           -2.51690532478896       -3.89394195603132       -0.20009873123543
h           -1.74686836353074       -3.98535465485068       -0.79391838934244
h           -2.75505522559398       -2.92995176556766       -0.28309260693554
o           -4.47241350616272       -2.97529781596066       -2.08815153356764
h           -4.77382351159851       -3.89706047124218       -2.24593181962887
h           -4.70222633504142       -2.75175050680080       -1.16068884561489
o           -2.41724964693468       -1.54700168847387        3.72241711054499
h           -2.23743417241757       -1.71548505624228        4.66714528899602
h           -2.09054988954470       -2.34299218952392        3.24063917884292
o           -6.10736949517598        0.36390260773800       -1.92699089141947
h           -6.59609767673324       -0.19850452168319       -1.28218543104264
h           -5.76932173383950       -0.21342909259881       -2.62258395468414
o            2.35494601361498       -3.37969197644224       -7.28682704214971
h            3.11523416377779       -3.18144159783500       -7.83866695875162
h            2.49091420610034       -4.30879637864267       -6.96358455333896
o            5.58160721925488       -4.86613516513404       -0.94987539267339
h            6.06901533783450       -4.46733170323431       -1.70120746426719
h            5.01974969518257       -5.58663032548881       -1.29468632388273
o           -7.55047549848889       -4.01506437379435       -0.60272136788116
h           -7.54711121960098       -3.57300734160680        0.26794457644104
h           -6.94250220489495       -4.75767913789667       -0.55027854944687
o            4.66374289341169        4.08306364808539        2.71968132237590
h            4.61358029886533        4.93578166927254        3.19022513712027
h            5.07596176186728        4.26533537037487        1.85620978268612
o           -9.81276394190059       -4.08207418817708       -2.58485638218454
h          -10.49895254443814       -3.78812362104896       -3.20737158792965
h           -9.70998239613612       -3.34238932340295       -1.96084363397858
o           -4.83327887528280       -1.72588181377768        5.20725086468679
h           -5.16070204310521       -2.08079042645017        4.36538922959216
h           -4.40239568255848       -2.49870621177733        5.61523490743523
o            3.77237251311051        4.78753239872691       -2.15163386877751
h            3.19656099943228        5.17304214766014       -1.46996768932056
h            3.35449979857914        5.03884084931119       -2.99087396251571
o            4.62345029724975       -1.43102587733350        3.25196026219266
h            5.57393271006699       -1.64184862707403        3.34695888237898
h            4.54113745668655       -0.54188470632573        3.62403337067298
o            6.64685421112431       -1.53412512306845        0.93310944082872
h            7.59702258807081       -1.38866470386394        1.04769947659726
h            6.19808428955997       -0.72066957863830        1.20281444440661
o           -4.55930331120100       -4.99898842240878        1.34155418203429
h           -3.65690887412271       -5.38516389188036        1.33510694953257
h           -5.13697567730657       -5.61429908972178        0.87277422782641
o           -0.57605001645603        4.83596842583289        1.55805605574796
h           -1.23868482127862        4.67948933485065        2.26072637125662
h           -0.69040069754661        5.75409181595244        1.26911539025514
o            0.79507101023582       -2.77210533241222        1.33064749524647
h            1.48062774473152       -3.46377805814094        1.34929381711656
h            1.14692344039183       -2.05062796724861        1.87891799467934
o           -4.23000217905308        1.17711574219083       -0.26189290190260
h           -3.53276175724082        1.70508569960696       -0.65670829307250
h           -4.81262384559915        0.84658188615683       -0.97574342827342
o            6.79346373222232       -0.95539451536112       -1.77099107919260
h            7.36117443375188       -1.55834699572113       -1.25749994603281
h            6.99780475976437       -0.06401815126057       -1.43037482149426
o            5.64172497257737       -7.13589753305257       -3.97738335359027
h            6.55686340387326       -6.96758931456727       -3.67986015279316
h            5.47631634202368       -6.48446149949069       -4.66660175544657
o            5.04327235629990        3.92723310754283       -4.66516466777994
h            5.49094745516583        3.82594796143974       -5.53443564533122
h            4.56893393100769        4.77803552730772       -4.68806455115521
o           -3.44634976625785        0.09561609642894       -2.97929613288953
h           -3.58794820982053        1.03675886771238       -3.18047645212461
h           -3.88982757701327       -0.39785122668874       -3.67471316277102
o           -4.51721443900637        0.07570512747647       -5.97256547338305
h           -4.23789237262068       -0.85376541619017       -6.14122643203494
h           -3.65004573795973        0.49549746432916       -5.74224138895181
o            7.74120702209335       -1.82954241776036       -6.37236597739034
h            8.08886517163867       -2.72492713228922       -6.42915153822210
h            8.13788904579060       -1.43832512085630       -5.56705474180499
o            7.55148378829564        1.58363684647482       -4.44718493940331
h            6.76435150762308        1.27848996968556       -3.95384826027355
h            7.58475931620825        2.55671420989559       -4.42164312047296
o            4.44102187247511       -2.12627339333050       -1.53538841905134
h            5.31459882382703       -1.68849753224631       -1.56815660901085
h            4.48454939303660       -2.91549145940902       -2.09947102661708
o           -9.74008924274302       -2.03114150345672       -0.67121837952617
h          -10.14379262858853       -2.32947119977831        0.15754697448330
h           -8.85191592234501       -1.69067289064425       -0.45904243711148
o           -2.75406479528579        6.19004225030624        0.49243776001293
h           -2.22866238563110        5.92541665885740       -0.27954153296478
h           -2.85923690022820        7.14239511734959        0.44356945044688
o           -2.80965861622802        3.46840773291128       -5.78012056463732
h           -3.59685505249456        3.18168880711200       -6.28464041282934
h           -2.16458667197586        3.76056583400590       -6.45696102424197
o            4.14565650447814       -4.19316589887043       -3.32115605857308
h            4.83152397824518       -4.46245591018633       -3.95171297027177
h            3.59115011142371       -3.56690409217307       -3.83191712438618
o            0.45385708019265        2.43201239356528       -4.92779274631364
h            0.87793124164817        1.56004196246381       -4.78782437749982
h            0.47018469037753        2.53992368945318       -5.89766999593156
o            7.09148318647319        5.44579304785555        2.63397481772749
h            6.65800755118952        5.89190910416573        3.36494384021028
h            7.83467794022148        4.94358909024840        2.98992686810363
o            3.08438044104021        1.87009047039862        2.69327964712519
h            3.51012547464109        2.74581351245128        2.74158304744376
h            2.63970425249581        1.75105998924190        3.55189954606526
o            2.51037377129495        4.14815646094614        4.52922508269187
h            1.64293489147354        3.69360467091809        4.56482672918893
h            3.08667270462781        3.79623449169646        5.23249800144402
o            8.40333587946326       -1.05171845762475       -3.87480618440660
h            9.09665039073941       -0.54392606753608       -3.41359753409646
h            7.65139858592586       -1.02316427247380       -3.24338622918814
o           -4.93179121874283        3.21746619099274        3.82721550382210
h           -4.70127642972942        2.46883136084922        4.40066319141950
h           -4.07736700501381        3.56382316895877        3.47648224646232
o           -3.85682931967451        0.85218714543646        4.76241978555682
h           -4.12528068466841       -0.06766030142261        4.92238791541517
h           -3.59837562815342        0.93267559996928        3.82734449211031
o           -7.72164641130832       -2.29475437539924       -2.77292437453628
h           -6.83809231308186       -2.12729431793585       -3.14716411481560
h           -7.62956532695121       -2.89130441835344       -2.01119897740704
o          -13.06237455851120        0.84380645141437       -1.35971731884963
h          -13.38896794951063        0.32823416754721       -0.61730014832880
h          -12.76381116451127        1.70089508309602       -1.01415553300981
o            5.21853083253995       -3.72015114165552        1.43228930131642
h            5.75998518470567       -2.90649054334431        1.37396693752726
h            5.33626670231668       -4.13204520754104        0.55948170789318
o           -6.34020689627418        1.34725886090524       -4.44710468901092
h           -5.77320318127913        0.67623592666089       -4.87242313715083
h           -7.05326188331927        0.88736447307295       -3.98452987452685
o           -4.87657673126573        2.45475684375466       -7.22691683610769
h           -5.76171674904474        2.81599625894035       -7.06192330751548
h           -4.87952794649175        1.55005520519030       -6.86472166031126
o            2.38716951492538       -3.24157274475653        7.15071934547718
h            2.69810738097728       -4.06288371485741        6.74504001411482
h            1.43314729203681       -3.38986973489804        7.37238649271161
o           -6.24662914585624        1.74985724685326        5.90219303991166
h           -6.23414929621414        1.17630903706561        5.10969399123772
h           -7.14338666825773        2.09113822249016        5.97582230528097
o          -10.73078536992919        0.35266563328051        0.54577743516413
h          -10.85339406225413        1.20456070474456        0.99918134519903
h          -10.05492314303399        0.54211975670377       -0.13856914934411
o            5.50163598027423        4.24713352916367        0.11044385395313
h            5.47730232313212        5.19399542951624       -0.13395621017191
h            4.58097606369058        3.88923562066815        0.04289537992035
o           -1.64693515090241       -3.56923694405650        2.27613128682704
h           -0.70086307657572       -3.38600618985632        2.11976775503412
h           -2.02955349440403       -3.73583719809979        1.38835961119232
o           -8.67055480687128        0.09532317565604       -3.36728597369319
h           -8.30792258601513       -0.79348864728225       -3.15699724050292
h           -9.62404165220973       -0.00861606110053       -3.14603694501980
o           -1.34200101679304       -0.56436097514036       -7.62932093497399
h           -0.42461158870583       -0.37439891306424       -7.86626336099138
h           -1.55060159803979        0.02382971868902       -6.86987317653320
o           -0.28800829507943       -2.94740294384866       -6.65649817252939
h           -0.64194588034214       -2.13658939027366       -7.05859938132366
h            0.59610842889483       -3.07516243329557       -7.03626607819569
o           -0.80407246540035       -0.37696417702649       -3.73871106033318
h           -1.33793890467002       -1.17748725055644       -3.59785707740141
h           -0.45344165273108       -0.06518987545179       -2.88651010739802
o            0.46388150716235        3.46490049723694       -0.92735017056294
h           -0.36404999172469        3.16307778263878       -1.32079784536043
h            0.47761788268778        3.11585468652007       -0.01687487333457
o            2.77603188304796       -1.43113794072313        5.25089006323762
h            2.49220646438062       -2.08350374759878        5.91743075289813
h            3.55800020939938       -1.79435159082540        4.81718917427540
o           -6.64107434336057        3.04923433400084       -1.96694392891275
h           -6.50949314766855        2.08405202754765       -1.99568040554685
h           -5.83344392838996        3.43124442215898       -1.57404438326503
o           -0.77022614464059       -4.01937987119355       -2.15417114024215
h           -0.54517891712003       -4.94394063481581       -2.34457328047730
h            0.03390341905437       -3.49610747534116       -1.98371060815701
o           -2.67745860759334        4.43563163777533        3.15386214019403
h           -3.01482727309298        5.34473741253095        3.00819785020847
h           -2.48343349229435        4.37560286564425        4.10877741649972
o           -1.39549396303005        1.61640391063468        5.37796705954799
h           -0.89786282979910        0.76913586444170        5.32882308000722
h           -2.34224052889358        1.38752738516945        5.28122171952380
o           -5.57047367898792       -3.31711183674832        3.15023340063085
h           -5.09175471680195       -3.96962142181037        2.60890999845294
h           -6.40124328091122       -3.11394271329764        2.66933424814676
o          -12.03365083125338        3.38189078113826       -0.81444351783840
h          -12.58584153082240        4.11443212867509       -1.08455837237772
h          -11.30569429249076        3.31315580931525       -1.47344325219839
o           -4.18215536179211        5.52340779975430       -4.63530904694953
h           -3.71702756234522        4.68762603029592       -4.83473162844805
h           -5.12454544175975        5.29089262782627       -4.54578797255523
o          -12.22121577655158       -3.62789326901484       -1.09165435321975
h          -12.59429830083779       -2.85854639779243       -0.64143829848913
h          -12.30677607331335       -3.46665017307458       -2.03541054036048
o           -7.88759808011164       -2.98911662107838        1.88438396007265
h           -8.43303712200774       -2.22372035398994        2.14807734210761
h           -8.35840245463216       -3.78949079652235        2.19547644051030
o            3.67206664801640        6.24351465384529       -4.50305838941935
h            2.83644164944304        6.56555834886657       -4.84844760487516
h            4.02309245254944        6.94485380437707       -3.90978823226143
o            1.78916732310620        5.81604970930406       -0.51244631785651
h            2.06309801989168        5.70440010786228        0.41309473087419
h            1.23232493716873        5.03237283861125       -0.69259515044323
o            3.41213235163223        1.92893401523893       -4.80065336740959
h            2.85288251551787        1.99274894421876       -3.99922599556375
h            4.03830098253829        2.68789858802487       -4.70844781066417
o            0.83366066635525        2.33441152241997       -7.58754503175000
h            1.72523513803770        2.70730824182398       -7.71359416685514
h            0.94941210391657        1.36735739294073       -7.69296383496944
o            9.88351611393655       -3.18209456177455       -4.20172441217629
h           10.68268722989143       -2.68461619042917       -4.41948100927348
h            9.24500287447581       -2.47608115657650       -3.93712842022458
o           10.27075979610927        1.20427079527151       -4.46978014960689
h            9.30968304297512        1.13428379386432       -4.58769417846742
h           10.37154227535888        2.01082861094130       -3.93549915467605
o           -2.74354013046220        4.61161870174779        5.84783456205518
h           -1.89769257493770        5.11538729340930        5.88153929702824
h           -3.46933365532522        5.24352325832148        5.88478170282724
o            9.26704501373097       -0.88336266054442        1.41549527387428
h            9.05970120146733       -0.08120043316638        1.92260930482598
h           10.10527845626178       -0.70413216687273        0.94666591247095
o            7.90693654981785       -3.90696610112321        2.41971650800585
h            7.65554230544108       -3.06165437774856        2.82699186631979
h            8.68404444911990       -3.74247483478406        1.86122656482110
o            3.10945942221348        3.28495893523134        0.19268438922340
h            2.69498991406700        3.82385390423407        0.89456633390489
h            2.81749795710075        2.37459450979189        0.31558339492120
o           -5.47711793174892       -1.53280364379086       -3.94851145846846
h           -4.99926592528297       -2.07069233498741       -3.27001840631703
h           -5.64046688249383       -2.14899993282184       -4.68979820129441
o           -9.42065026947950       -0.79635933351626        2.54848028905951
h          -10.07684363019999       -0.60805086078693        1.84739393870432
h           -9.91379822962699       -0.79217753530432        3.39071726101896
o           -4.38997556181071       -0.75474937267667        2.14105798925898
h           -5.13270320420276       -0.49760230693369        2.71943663109869
h           -3.71058414404277       -1.13919825600834        2.73451412570005
o            2.30998839208606        8.42498685105429       -1.36323006712331
h            1.48572896755868        8.41396270257713       -1.88082219720272
h            2.33186132075677        7.55947151865420       -0.93529637872578
o           -3.30650680533192       -0.20244038471810        7.83137262102807
h           -3.31723978523612        0.73871068496467        7.57016225986257
h           -4.24281832576369       -0.44423996588480        7.90267483801312
o            6.20529083189146        2.32386786339848        3.89186948442394
h            5.58572482947290        1.70378415552766        4.31339600951603
h            5.66046059443904        3.03101459419124        3.47392516259919
o            1.69688862846783       -0.71833596505507        2.92309679800373
h            2.33439277472181       -0.08881910205941        2.57976211275704
h            2.00778916942320       -1.00718915185569        3.80660882413415
o            9.86660916800521       -0.03314999192467       -1.89228709193891
h            9.15601074143231        0.53245852869981       -1.54104869102602
h           10.67405660389250        0.50757662360870       -1.86779796211101
o            7.86302002629216        4.27654444433487       -4.74301772585657
h            7.54792161062592        4.36656207768328       -5.64648790643521
h            7.25069897160154        4.77510766967961       -4.16886792852447
o            5.74162224320907       -2.02881502797240       -4.45473852980248
h            6.32112192394506       -1.94849887352410       -5.22572352227256
h            5.62981694128235       -1.12013951127662       -4.09376710889247
o          -11.05049350376755       -0.52839429917738       -2.46706425121280
h          -11.80071647006419       -0.01728432819627       -2.09908118375340
h          -10.67672992944438       -1.06589154620994       -1.73496173763514
o          -10.33305394512975        2.91263487927412        1.28374036029811
h          -11.00622220517511        3.25336915606215        0.67893108201100
h           -9.47615517063022        3.24843874831914        0.95844378987817
o           -5.18887932519083        8.42006627411097        1.61895527509813
h           -5.94684538116929        8.12094027366287        2.14204977346706
h           -5.37292223351590        8.13261044298036        0.71019343141036
o           -4.27239103072019        4.12800881851534       -1.31022435374137
h           -3.54770834495425        3.86585948603707       -0.68999376598442
h           -4.12412392517585        5.06164784589523       -1.53426792085512
o            4.13590367998316       -0.05720933549231       -6.73078253973799
h            5.01683256375322        0.35711403086812       -6.80277885265838
h            3.66919709148260        0.43845628042128       -6.04433571572451
o           -6.81619630841329        6.60769619795726        2.95963829131343
h           -6.26156898006987        6.08811305356262        2.34194749422110
h           -7.71993438136713        6.27317115199381        2.85201571119810
o            0.78482825068574        6.61241153431998       -5.02232603304316
h            0.92590882989694        5.81870861695715       -4.44880601665259
h           -0.13509705546632        6.56011047757196       -5.34814701331440
o            5.05163566552396       -2.53809408832317       -7.27908666996750
h            4.64306312263017       -1.67795338632464       -7.04883630802980
h            5.97452973840042       -2.34214804600216       -7.45833523073767
o           -7.02417705551755       -1.11214189921893       -6.74759765607787
h           -6.17264174472049       -0.69593470813298       -6.58162011427667
h           -7.68703693331947       -0.40774649307066       -6.64780203493627
o            0.10143128438969       -0.51634635169474        5.60543929044406
h           -0.03588681997060       -0.65385781713696        6.55573766797784
h            0.06102053763857       -1.39893646881078        5.16437131866460
o           -5.24072133078129       -5.40254171806805       -2.76497615707380
h           -4.72266043134559       -5.36958087972620       -3.59131079030890
h           -6.18426587474219       -5.37729862991020       -3.04134144293336
o           -3.23120679211832       -6.28753863196049       -1.24891272812934
h           -3.02343571319446       -5.44821491253074       -0.78222613392716
h           -4.01676768053604       -6.09779324606441       -1.78886300283433
o           -8.79029938686191        1.32069841816961       -0.96669554761271
h           -9.20814064429576        2.09659124478463       -1.37731868451666
h           -8.48309465866322        0.78797421479426       -1.71849682886311
o           -8.41031633661529       -6.93043065881492       -1.56878481755257
h           -9.15433934288738       -6.45915850243836       -1.16231608206357
h           -8.23815822478766       -6.48777155408353       -2.40907699149282
o           11.26497992706839        0.01378158212118        4.28808898966382
h           10.84601024483890       -0.85649412893685        4.13140800350004
h           10.75875636663413        0.42052087298556        5.00565918628973
o           -2.62590356667620        1.99521972108911       -8.83290383280890
h           -3.49775314518849        2.11886007861813       -8.43268034934094
h           -2.31483900513606        1.12067857112647       -8.57194628951990
o            5.89172930058278        2.89041882943545       -2.22808584728472
h            5.58242699757874        3.31701044745730       -3.04117743914839
h            5.80573268846120        3.53540948469498       -1.50298702385748
o          -12.77868035503148       -1.35554626673614        0.70055639980418
h          -12.32271081233488       -2.07418201376365        1.17092658446495
h          -12.05774232771833       -0.73105147677496        0.48970706976646
o            2.03360919332788        4.93604976344788        1.97722935675850
h            2.32506287948763        4.71272654626699        2.87217787792777
h            1.06012001704500        4.81344221322282        1.95100724559149
o           -0.46645967382340       -0.29633376480704        8.30071533928421
h           -0.56099607745219        0.67556447902334        8.21432080959923
h           -1.35567988012420       -0.61886854868342        8.47509125530600
o           -0.16631332896989       -3.57985049177206        7.61285986820102
h           -0.75554598210245       -2.90595113999442        7.22770636983459
h           -0.27962473265703       -4.36065588643123        7.04989112973175
o            5.46081529526174       -3.17524195731019        5.82364791689929
h            5.40113807499807       -3.68870971317237        4.97957764610946
h            5.14793381968985       -3.78427412800591        6.49489584302286
o            1.32702299468273        4.52337095923511       -3.53434221089392
h            0.92168129168920        4.36774395217340       -2.67551362667356
h            1.10480064219959        3.74442181500361       -4.08310019128183
o            2.01534784972185        1.96494765979796        7.65329640534968
h            1.10066746548353        2.21582291402255        7.85467649086627
h            2.14151196161657        1.05869798987715        7.97932908400133
o           -4.02668220441646       -8.19367130851514        0.45720918118150
h           -3.27327093901578       -8.77943264817028        0.60784763520572