237
 energy: -396.692240951534 gnorm: 0.039912752834 xtb: 6.5.1 (579679a)
h           -0.54250542236797       -1.15979968239695        0.91808737932248
c           -0.61125101768967       -0.54129568518002        0.01007491846514
h           -0.53913085058113       -1.19691447165356       -0.87124367816881
c            0.51036587524963        0.50378784395978       -0.00948718411966
h            0.39110985371409        1.15189243103056        0.86009664670295
h            0.39443993020508        1.11526701862859       -0.90564118147742
o           -1.78918255390479        0.21002581361451       -0.00773070418283
h           -2.56465822815856       -0.36207477160767        0.00267346025182
n            1.86374215708766       -0.11727809731927        0.00594752104846
h            1.98712725504032       -0.72370378895708       -0.81631063926517
h            1.98397883773239       -0.68907633476970        0.85310417775158
h            2.59308294202115        0.60724004426223       -0.00770513808498
o            2.22230717722098        2.56844258860732        1.57842173555869
h            2.98567491789809        3.18631941928273        1.70175172601634
h            1.43103286493283        3.13726616263390        1.63619297449890
o            1.51159518165879       -1.21482981579148        2.43890576572555
h            1.38107647796804       -2.17644270427604        2.36901400980959
h            0.64225457581361       -0.84019913254885        2.69760015172458
o            1.96423238596415       -1.52256897424060       -2.33311103754072
h            2.51595917987690       -1.95453620716381       -3.02192647593471
h            1.15808308395671       -1.19792786195972       -2.81004993479178
o           -0.82502400875690       -0.20591420109576        3.19518113576049
h           -1.37617578542253       -0.90269978355018        3.60640766390783
h           -0.35945962095033        0.22465883405685        3.94437680815209
o           -3.67319080901218       -1.27909620732925        1.41111880408046
h           -3.71151122945699       -0.98940560390598        2.34296638052633
h           -4.44806100632191       -0.86518776463039        0.99895284982006
o           -0.20744917055361       -0.81279924029071       -3.64155205314748
h           -0.67550794332824       -0.03330907260947       -3.24897500406953
h            0.10689240788295       -0.50509262723915       -4.52482811639991
o            4.32510891382932        0.98462202794954        0.41803163141626
h            4.33375800662645        0.11874324178329        0.86600512325441
h            4.47156700594126        0.78426787553814       -0.52680555742434
o            3.83659922965145       -1.54978609681561        1.10751604584784
h            3.59679388440015       -2.10060507581187        1.87194776372609
h            4.46864672261231       -2.07250393271916        0.58771997607329
o            5.76536508370614       -1.97150520868959       -2.61985085613789
h            6.69790905108763       -1.69357935797486       -2.68985912464271
h            5.27295105939089       -1.14515602815601       -2.43245306392389
o            3.13451189498940        0.69088504760193        3.33747422225894
h            2.70483430185347       -0.12620483629124        3.02026186718902
h            2.87218288222753        1.37101110980163        2.68211550176141
o           -1.65238411099660        1.12727086141536       -2.58197026085249
h           -2.54138032671830        1.08116214449296       -2.97454736263014
h           -1.76398355944279        0.87031012225506       -1.64970012264563
o            0.90828635983204        0.78291256776384        4.99721745447306
h            1.76717730484662        0.76906433934860        4.53491576376406
h            0.58690310524906        1.69715625954273        4.91307202607987
o           -1.90693990147953        2.07608143528735        2.34250367586950
h           -1.61822270306614        1.17729902907378        2.60855757708546
h           -1.80328930429612        2.13434224908179        1.37363801895811
o            1.40591960066310       -3.65306110717951       -0.77555740974601
h            0.67818181308014       -4.14597626064869       -1.20761602576107
h            1.61227457951768       -2.90504964047827       -1.37328230539081
o            1.60212635145958        1.28345274082515       -3.06386541174368
h            2.03789650392990        1.88261415963679       -2.42774255906129
h            2.27306658001130        1.02543941886299       -3.71881135447948
o           -4.22344664586094        0.94970253798945       -3.50425515728533
h           -4.66172489559904        1.75729359136367       -3.21374435703841
h           -4.55628979038081        0.24668121251360       -2.92671079326845
o           -4.13705641217627        1.22585223936896       -0.46571250809255
h           -4.68847048121725        1.84056960173719       -0.97963578341218
h           -4.44705278801547        1.25724774055616        0.45219775564654
o           -2.09243564036995        2.91180285715170       -0.21217799501477
h           -2.75146505692741        2.19812999896391       -0.38130698342371
h           -2.61475412521084        3.72941172229628       -0.07838998442737
o            0.08602168491937        4.13089729574751        1.07217459102702
h           -0.48617623729393        4.58195060130003        1.72056218057104
h           -0.52548946064682        3.64174171922995        0.50433828230873
o           -0.98192286010000        3.98643516935031       -2.40344879301505
h           -1.26641687930556        3.35371116635271       -1.71592029920171
h           -0.75447379310236        3.45076189554863       -3.18288145790179
o           -1.85207546006963       -2.82231061765431       -3.44050048760048
h           -1.23252624924991       -2.07198140606774       -3.61496845711391
h           -2.65896956820885       -2.66008391850521       -3.95428081053326
o            0.65855368030114       -3.64475432365015        1.74355723013767
h            1.12652490308435       -4.35930343225668        2.17834669719921
h            0.95118091205202       -3.64178924152529        0.80058216052438
o           -7.11293921308242        0.88525981266836       -1.66372982464403
h           -6.39626310347366        0.23071432399527       -1.56160487151900
h           -6.70678954756400        1.65435915951362       -2.08460325719645
o            4.18388105683200        0.20107843844479       -2.11426560914455
h            3.34669381820356       -0.24598296037864       -2.31288683951696
h            4.19409187588435        1.02286389030169       -2.64934809120109
o           -5.20593366400857       -1.12602400343086       -1.90928898666186
h           -5.80365227665402       -1.84838513561248       -1.59279054012579
h           -4.34580841740889       -1.34213666838067       -1.47468751638269
o           -2.93065094720292       -2.16176577783753       -1.07722715885820
h           -3.07410576269342       -3.05035263249736       -0.70739720626951
h           -2.49531193209234       -2.32477764501371       -1.93871669343136
o           -1.99873848876310       -3.46743648190136        1.94270386646180
h           -1.02531587227444       -3.49587721116302        1.85322180856361
h           -2.31529193469387       -2.62127825940541        1.59157532643843
o           -0.72900030106569       -4.79340918148146       -1.94785266778398
h           -1.41596607603096       -5.04174967834116       -1.31647613396131
h           -1.14157323828832       -4.13616431875858       -2.53755475147286
o           -4.54349778146742        1.72945067524662        2.25400929447940
h           -3.58247747162820        1.91051386444803        2.37893559068934
h           -4.76337532426821        1.08981907768971        2.93739260497757
o           -5.86522862534125        3.61998272324885        0.73378728772113
h           -6.79615312877285        3.35841362591615        0.68340586359539
h           -5.44305043910951        2.99786217596736        1.35442620564029
o            2.55296990774311        2.79093867536510       -1.04748067541776
h            2.13288548491732        3.67013485109544       -1.22873556490170
h            2.41566323118166        2.64681112723656       -0.08584611543569
o            3.61803335402968       -4.63034973320988        0.57366094227741
h            4.43145287696279       -4.27206668225032        0.20138325071599
h            2.89807187912534       -4.37279437890490       -0.02670996312185
o           -2.97890448022603       -4.76427511878438       -0.19420490128204
h           -2.56805121124350       -4.48453230143820        0.65233475767850
h           -3.88313310993405       -4.98648360366858        0.05249161763000
o            5.86007940391905       -2.88029826047425       -0.11358925846152
h            6.32336765873631       -2.03244417393575        0.08870550227043
h            5.78384644369158       -2.83033659700994       -1.08824935913560
o            6.77471318016223       -0.45286466858465        0.40260020864812
h            7.74837582292829       -0.43556692808929        0.40713841262714
h            6.47028607030601       -0.25489694885165        1.31055519061072
o            4.26741880208157        4.19741540487628        1.96982736464506
h            3.98443707743540        4.31957978194197        2.88954797191617
h            5.08578660035584        3.67069505084354        1.99885031425264
o            6.25204303935366        2.32949844887612        1.70340571646304
h            5.56301514157957        1.88756752687718        1.15132583788352
h            6.35984872535217        1.75249782370828        2.46606993200511
o           -6.19600910145260       -0.35906094078754        1.01811083144254
h           -6.53438604045874        0.34079396858227        1.59571206965436
h           -6.97145924310862       -0.69374724463595        0.52260493931435
o           -5.42685338801241        3.08387599228725       -1.95479371844000
h           -5.71556163402694        3.49859163231070       -1.12648977778755
h           -4.74995523761301        3.70030710939633       -2.34178036733648
o            6.68546616994224        1.43879742871264       -1.66583503964855
h            6.56513690670592        0.79592156785688       -0.94200586140362
h            6.12462436057535        2.21104635636565       -1.43799857318679
o            5.74688511002105       -0.15041514004475        2.91760888081304
h            4.83682633115360        0.14450296969348        3.11714152050057
h            5.76431100710422       -1.10524823375848        3.07401944590133
o            0.07755087960507        3.18056807161631        3.98895648961621
h           -0.32395434614471        3.95968079333239        4.37619569228955
h           -0.61698757445774        2.78951725239698        3.42492986244500
o           -4.18835204411683       -0.66793054583162        4.02502181987019
h           -5.01987588857054       -1.17944698417432        3.94495857239808
h           -3.53655597268855       -1.29433471481550        4.37910843431936
o            3.28136531576472       -3.48083627055809        2.98740617383744
h            3.37717063377628       -4.04833405930745        2.19264900427264
h            4.15726782560088       -3.46189142951601        3.38574889358007
o           -3.54194327628898        4.59875335674131       -2.95663286189221
h           -3.48268041608722        4.22816657772292       -3.85561425228719
h           -2.61181433608340        4.53766757410856       -2.65181858127221
o           -2.02575478815635       -2.29322585474147        4.40017223076499
h           -2.08224949941481       -2.94469061470042        3.67655725829978
h           -1.17566494372524       -2.44073105915621        4.84780478423509
o           -5.10090736895279       -3.63749033732422        1.21224295923152
h           -4.47788480535486       -2.88525999911396        1.23909693104037
h           -5.63117469415594       -3.53151939565604        2.01448531080218
o            1.24727950538093        5.03974613122729       -1.28049547439951
h            0.44281021471726        4.81978682523447       -1.78725696638362
h            0.96148671049618        5.07898730118671       -0.35578965689065
o           -8.26148385132355        2.33332977822045        0.25067208754345
h           -9.13276591438901        2.55650806681489       -0.07646665250554
h           -7.86104032637572        1.71754680895091       -0.41242049373665
o            0.61177039264153       -2.10150253012862        5.12742643129261
h            1.40307181222705       -2.44136392089761        4.70178818158193
h            0.77679616653119       -1.16896957814651        5.31978052554635
o           -3.63246655629039        5.08893793366304        0.12079325939300
h           -3.71218834709395        5.48162025733152       -0.75352874318971
h           -4.50943495252763        4.75760418290338        0.37329434006671
o            6.06149082133248        0.73109773537078       -4.29968340068802
h            6.74882025916405        0.12820700910544       -4.58551137926956
h            6.27297467141169        0.96349565440955       -3.37536757894330
o            5.10252861780260        3.50962726768733       -1.03228045422816
h            5.24379175379624        4.08841431828900       -0.28077252355051
h            4.16558520642936        3.20529392182245       -0.95883443274191
o            8.56581268448899        2.35991788055358        0.20024307982195
h            7.82777739186207        2.45100957830241        0.83278332913670
h            8.15519569818477        2.41635873281751       -0.67239370191710
o            3.60872410709342       -2.52373802235491       -4.17354823099041
h            4.47624563140704       -2.58633839064731       -3.73488137238861
h            3.20933570404713       -3.39982154807456       -4.22668243366074
o           -6.29438601292560       -2.07769648533732        3.12727769496016
h           -7.24691463935264       -2.05226611339670        3.31141981977620
h           -6.20963209398871       -1.51756683700449        2.32647514705658
o            4.15423004838269        2.56059442413535       -3.51513366667628
h            4.83639393759331        2.44458904369799       -4.18138334186341
h            4.47775272156730        3.21902826244825       -2.88885242518065
o           -2.80371175727974        2.96344055756058       -5.02328085695467
h           -1.85010626255232        2.81687282265898       -4.97832851432510
h           -3.21779958216186        2.10964733317307       -4.86724063683165
o            0.05821745309898        2.68594031910654       -4.61622363002053
h            0.63277153689357        3.39773017206853       -4.90185848731998
h            0.58764826417958        2.13667087866608       -3.96665343698552
o           -8.35927465045118       -1.31813700310690       -0.26221399227231
h           -8.45641054303925       -0.75974240751335       -1.03884209211920
h           -7.95317045902813       -2.14893154742868       -0.56563234482229
o           -2.04855232294127        4.90365118135372        2.54490743699114
h           -2.32294587818364        3.99371286737482        2.71598736841873
h           -2.61905934831117        5.23417413928893        1.84123282617573
o            2.92759256478671        3.56976853040752        4.29181061071852
h            3.21655958977700        2.66877377289895        4.45857495794651
h            1.97410470594848        3.52917030427387        4.13513007235455
o            8.22207722477974       -0.76333222608050       -2.47675491011380
h            7.92360801407108        0.14462002528271       -2.33557806391203
h            8.83197243269538       -0.93039977858016       -1.75005019333542
o            9.42160312339126       -0.13690290629864        0.11337831758136
h           10.22053167046907       -0.27773372273266        0.61993547008422
h            9.24178166997443        0.83881529147743        0.14191541593355
o           -4.40422837318856       -2.28039069783223       -4.22179356571441
h           -4.75632412092218       -1.79817430447045       -3.43947539589552
h           -4.75759700880401       -1.84729856731285       -4.99806383639431
o           -6.54454296841668       -3.19667642172187       -0.98449171746180
h           -6.17309113187873       -3.83715953389935       -1.61960053933833
h           -6.08452624969528       -3.39473170664691       -0.13491998168264
o           -7.63325162480953        1.31469300982649        2.65300368256219
h           -7.54825145329565        1.96440513994831        3.35050545794974
h           -8.00897299455120        1.76206850762028        1.87039124847042
o           -4.87623548929706       -4.54559930397286       -2.62346097890283
h           -4.04029065525383       -4.81116415763428       -2.23251110417409
h           -4.67247499440136       -3.93383818163022       -3.34535086832795
o           -8.83060751492216       -1.27183653960266        2.63058821604187
h           -8.59237456042490       -0.34260528521404        2.74945722791369
h           -8.95448388052939       -1.40238509369091        1.68348486111128
o           -2.41697673735996        1.37976522528930        4.99970701454196
h           -2.14124950854121        1.14532073634041        5.88523849418486
h           -3.11714443460062        0.76371822544438        4.75256089327118
o            3.33370465250849        0.11176036733123       -4.92782577161090
h            4.25408034951873        0.40950240150775       -4.87210775038010
h            3.37712757767998       -0.85206426584773       -4.83210847139136
o            1.38771951725159       -4.12573212372664       -3.84315203364387
h            0.87814903542772       -4.74203315064816       -3.30734172885467
h            0.75821690045471       -3.67982018979693       -4.41274334709846
o            6.05376423034939       -2.97695720860658        2.76068801637160
h            6.03223829694665       -3.14478793553570        1.80677409557259
h            6.87700083817184       -3.34020102490609        3.08659840723457
o            0.69525410629643        0.23000467536072       -5.88978681356301
h            1.65780894719347        0.24115884222616       -5.78440062624023
h            0.38952695566076        1.13727481158714       -5.74456961313556
o            4.11110519798387       -4.87161779322550       -2.30379358366093
h            4.92878732182145       -5.35690445500205       -2.43021192373229
h            3.39008005107816       -5.47874276569813       -2.48158785086538
237
 energy: -396.693817585571 gnorm: 0.038418939828 xtb: 6.5.1 (579679a)
h           -0.54250542236797       -1.15979968239695        0.91808737932248
c           -0.61125101768967       -0.54129568518002        0.01007491846514
h           -0.53913085058113       -1.19691447165356       -0.87124367816881
c            0.51036587524963        0.50378784395978       -0.00948718411966
h            0.39110985371409        1.15189243103056        0.86009664670295
h            0.39443993020508        1.11526701862859       -0.90564118147742
o           -1.78918255390479        0.21002581361451       -0.00773070418283
h           -2.56465822815856       -0.36207477160767        0.00267346025182
n            1.86374215708766       -0.11727809731927        0.00594752104846
h            1.98712725504032       -0.72370378895709       -0.81631063926517
h            1.98397883773239       -0.68907633476970        0.85310417775158
h            2.59308294202115        0.60724004426223       -0.00770513808498
o            2.22267494733999        2.56918665854989        1.57883859984185
h            2.98642525986758        3.18663659698236        1.70141054886605
h            1.43162993135981        3.13820282136305        1.63605685090986
o            1.51180807240031       -1.21451230130154        2.44131739948602
h            1.38338965084106       -2.17604147546171        2.36578872645198
h            0.64097753634401       -0.84217168023572        2.69735572358863
o            1.96773433834032       -1.52487766499314       -2.33162752135634
h            2.52897025473896       -1.96881914518548       -3.00748836614106
h            1.16699058853331       -1.20616281558243       -2.82037445036031
o           -0.82661557201414       -0.20544112390018        3.19624088224390
h           -1.37669953512009       -0.90279789537538        3.60769330720274
h           -0.35904910390168        0.22408852607505        3.94475231131763
o           -3.67436157259139       -1.28024268835964        1.41159872551042
h           -3.71117004135721       -0.98910708008201        2.34304116532186
h           -4.44780307293072       -0.86411216472350        0.99910166287023
o           -0.20983571909691       -0.81440480894714       -3.64408803060774
h           -0.67367033440550       -0.03412076701916       -3.24829716654878
h            0.10610872224034       -0.50520544845084       -4.52617000507156
o            4.32582466816751        0.98432297333298        0.41850373593470
h            4.33438624213033        0.11766546508164        0.86543137021990
h            4.47042694292421        0.78361348213214       -0.52667046494381
o            3.84581032153116       -1.54958499059126        1.11075116540026
h            3.59571006040023       -2.10662048782232        1.86708141596282
h            4.46524108964321       -2.07909582738484        0.58084080210674
o            5.77781102625731       -1.96721546242499       -2.61890921628248
h            6.70765971641138       -1.68311596980086       -2.68436689056125
h            5.27673782341069       -1.14802520569597       -2.42614870201868
o            3.13339144430641        0.69096920780871        3.33817936013034
h            2.70708510004071       -0.12701503902465        3.01838575639576
h            2.87318547886130        1.37011827262882        2.68103039289817
o           -1.65253645126188        1.12792498964747       -2.58215553867763
h           -2.54165706864964        1.08006329881325       -2.97408745232054
h           -1.76256823138556        0.87017058111957       -1.64982669880600
o            0.90878327807904        0.78264536719929        4.99808901792038
h            1.76672792357764        0.76736229236995        4.53385928896027
h            0.58761099723738        1.69676033726404        4.91236512092637
o           -1.90734351183386        2.07609937814774        2.34251620353385
h           -1.61778991048227        1.17757076161713        2.60861879913672
h           -1.80206562282624        2.13458867014160        1.37382389828196
o            1.39411799793948       -3.65086223738017       -0.76774460815867
h            0.67479195007767       -4.13690400447314       -1.21897274167261
h            1.64174910643954       -2.91749103469837       -1.37011255181122
o            1.60123768297794        1.28566057376982       -3.06630969083374
h            2.03917050147543        1.88063724364477       -2.42775345943857
h            2.27373307032105        1.02026839180587       -3.71698703282170
o           -4.22486176105515        0.94976356088188       -3.50535023361402
h           -4.66105204697784        1.75785065784169       -3.21313196374052
h           -4.55597196246445        0.24709535228298       -2.92641365986644
o           -4.13767492556185        1.22606766055322       -0.46603966267163
h           -4.68858923205160        1.84154686017407       -0.97951806593765
h           -4.44670892606991        1.25784914976095        0.45215062531422
o           -2.09235779621227        2.91206322326964       -0.21197569099526
h           -2.75090019167390        2.19803631804796       -0.38144471227440
h           -2.61490626882140        3.72944744749677       -0.07817417270389
o            0.08593493347957        4.13226192888197        1.07215412723397
h           -0.48672444101877        4.58175553001977        1.72110821323709
h           -0.52467057261912        3.64112342408137        0.50503058340402
o           -0.98258765294666        3.98666143514196       -2.40354240576524
h           -1.26496771226186        3.35365928260980       -1.71536992913233
h           -0.75331094369119        3.45074897359322       -3.18232545003189
o           -1.85253897379862       -2.82327159433138       -3.44097813282166
h           -1.23128608397202       -2.07363248843906       -3.61411630832773
h           -2.65943879635499       -2.65776961339550       -3.95362887353670
o            0.65532618638120       -3.64500071963480        1.74573306412769
h            1.13034392618600       -4.35639177090332        2.17789647960847
h            0.94934701746111       -3.63540810615941        0.80271284369038
o           -7.11289758990251        0.88563788682743       -1.66398540398687
h           -6.39603182162406        0.23132724752125       -1.56142397966772
h           -6.70651336442133        1.65492226052242       -2.08433046879157
o            4.18440274327312        0.20430764164221       -2.11256942798609
h            3.35438607939160       -0.25616580689730       -2.31250246261580
h            4.18724033085231        1.02214324060563       -2.65311491099477
o           -5.20656347954757       -1.12585709911843       -1.90969343341586
h           -5.80383082920034       -1.84824497207210       -1.59262942162803
h           -4.34601898286351       -1.34157913565200       -1.47555175242897
o           -2.93258593536906       -2.16235112485783       -1.07818712021102
h           -3.07326014384419       -3.05080963486620       -0.70717432171157
h           -2.49332546851756       -2.32467649486194       -1.93785945909174
o           -1.99942348507361       -3.46796256732272        1.94219817101798
h           -1.02568110736109       -3.49684119384666        1.85396552362929
h           -2.31455294464708       -2.62111548952427        1.59151150913687
o           -0.73454391040160       -4.80291916553199       -1.95520926314134
h           -1.41696592248072       -5.03898328101321       -1.31418235072581
h           -1.14340026283404       -4.13685322428370       -2.53776238489634
o           -4.54351187729453        1.73004767334603        2.25426917342472
h           -3.58213434517947        1.91038422450201        2.37823589894111
h           -4.76290901080630        1.08992273821676        2.93732557725917
o           -5.86531312997223        3.62054282246750        0.73424148397280
h           -6.79601019161443        3.35832787521997        0.68368337867717
h           -5.44254643131496        2.99820363522695        1.35430559523496
o            2.55321015682952        2.79199898178367       -1.04782614638086
h            2.13313968019135        3.67123246481628       -1.22794669844685
h            2.41644652846095        2.64631997163617       -0.08634975154092
o            3.61340099222046       -4.62246342603877        0.58267524842679
h            4.42661849558167       -4.28630492463904        0.18839478066602
h            2.89989275613655       -4.37837431624702       -0.03063390346386
o           -2.97951622184826       -4.76635867198213       -0.19370105749396
h           -2.56755107488642       -4.48299850574566        0.65126309000972
h           -3.88433313034700       -4.98448525377094        0.05440480891806
o            5.87214303946374       -2.88595915454406       -0.10932841339103
h            6.32291459172152       -2.02585148526235        0.06573604387929
h            5.73484689758178       -2.84056607346911       -1.08068893431399
o            6.77566074453120       -0.44570243325465        0.40267446066876
h            7.74911740315080       -0.43326713918930        0.40824670866114
h            6.47053977812189       -0.25532639669848        1.31190383396610
o            4.26820593067461        4.19846850030130        1.97041736970771
h            3.98474014729168        4.31772049453495        2.89034463924896
h            5.08519487068436        3.66940380560489        1.99803570815146
o            6.25146887772589        2.32913293865281        1.70268243628707
h            5.56366049445964        1.88608389843756        1.14948481527414
h            6.35965034031814        1.75125366626468        2.46461960005713
o           -6.19644885428150       -0.35891325852159        1.01845273402778
h           -6.53439348676047        0.34148854837440        1.59562872978109
h           -6.97193439701839       -0.69315550572894        0.52278076591071
o           -5.42738687809555        3.08488823222612       -1.95505045314710
h           -5.71482980579649        3.49936115236687       -1.12621093001913
h           -4.74966190121520        3.70056187669589       -2.34196285779071
o            6.68851250061412        1.44039647395327       -1.66601533731610
h            6.56246841656540        0.79316040346959       -0.94689537246200
h            6.12395661036092        2.21010967859775       -1.43915742657373
o            5.74835349879259       -0.14996899893651        2.92205392226566
h            4.83658514719902        0.14383724765337        3.11536761692609
h            5.76267783784860       -1.10640690343896        3.06913298016162
o            0.07750407717410        3.18049653251422        3.98957071599861
h           -0.32452467008661        3.95977541197859        4.37587918227064
h           -0.61604604606021        2.78910550457098        3.42451456301304
o           -4.18826174803899       -0.66794852480710        4.02562524859176
h           -5.01935479637928       -1.18001085488679        3.94516920784725
h           -3.53574105884385       -1.29419802660608        4.37872932463530
o            3.27974320634058       -3.48422810871402        2.99263049867646
h            3.37649368405775       -4.03667305807888        2.18629587200911
h            4.15916728677559       -3.45939505008254        3.38258276382275
o           -3.54188912690883        4.59900631838765       -2.95704879732967