      -----------------------------------------------------------      
     |                   =====================                   |     
     |                           x T B                           |     
     |                   =====================                   |     
     |                         S. Grimme                         |     
     |          Mulliken Center for Theoretical Chemistry        |     
     |                    University of Bonn                     |     
      -----------------------------------------------------------      

   * xtb version 6.5.1 (579679a) compiled by 'ehlert@majestix' on 2022-07-11

   xtb is free software: you can redistribute it and/or modify it under
   the terms of the GNU Lesser General Public License as published by
   the Free Software Foundation, either version 3 of the License, or
   (at your option) any later version.
   
   xtb is distributed in the hope that it will be useful,
   but WITHOUT ANY WARRANTY; without even the implied warranty of
   MERCHANTABILITY or FITNESS FOR A PARTICULAR PURPOSE.  See the
   GNU Lesser General Public License for more details.
   
   Cite this work as:
   * C. Bannwarth, E. Caldeweyher, S. Ehlert, A. Hansen, P. Pracht,
     J. Seibert, S. Spicher, S. Grimme, WIREs Comput. Mol. Sci., 2020, 11,
     e01493. DOI: 10.1002/wcms.1493
   
   for GFN2-xTB:
   * C. Bannwarth, S. Ehlert and S. Grimme., J. Chem. Theory Comput., 2019,
     15, 1652-1671. DOI: 10.1021/acs.jctc.8b01176
   for GFN1-xTB:
   * S. Grimme, C. Bannwarth, P. Shushkov, J. Chem. Theory Comput., 2017,
     13, 1989-2009. DOI: 10.1021/acs.jctc.7b00118
   for GFN0-xTB:
   * P. Pracht, E. Caldeweyher, S. Ehlert, S. Grimme, ChemRxiv, 2019, preprint.
     DOI: 10.26434/chemrxiv.8326202.v1
   for GFN-FF:
   * S. Spicher and S. Grimme, Angew. Chem. Int. Ed., 2020, 59, 15665-15673.
     DOI: 10.1002/anie.202004239
   
   for ALPB and GBSA implicit solvation:
   * S. Ehlert, M. Stahn, S. Spicher, S. Grimme, J. Chem. Theory Comput.,
     2021, 17, 4250-4261. DOI: 10.1021/acs.jctc.1c00471
   
   for DFT-D4:
   * E. Caldeweyher, C. Bannwarth and S. Grimme, J. Chem. Phys., 2017,
     147, 034112. DOI: 10.1063/1.4993215
   * E. Caldeweyher, S. Ehlert, A. Hansen, H. Neugebauer, S. Spicher,
     C. Bannwarth and S. Grimme, J. Chem. Phys., 2019, 150, 154122.
     DOI: 10.1063/1.5090222
   * E. Caldeweyher, J.-M. Mewes, S. Ehlert and S. Grimme, Phys. Chem. Chem. Phys.
     2020, 22, 8499-8512. DOI: 10.1039/D0CP00502A
   
   for sTDA-xTB:
   * S. Grimme and C. Bannwarth, J. Chem. Phys., 2016, 145, 054103.
     DOI: 10.1063/1.4959605
   
   in the mass-spec context:
   * V. Asgeirsson, C. Bauer and S. Grimme, Chem. Sci., 2017, 8, 4879.
     DOI: 10.1039/c7sc00601b
   * J. Koopman and S. Grimme, ACS Omega 2019, 4, 12, 15120-15133.
     DOI: 10.1021/acsomega.9b02011
   
   for metadynamics refer to:
   * S. Grimme, J. Chem. Theory Comput., 2019, 155, 2847-2862
     DOI: 10.1021/acs.jctc.9b00143
   
   for SPH calculations refer to:
   * S. Spicher and S. Grimme, J. Chem. Theory Comput., 2021, 17, 1701-1714
     DOI: 10.1021/acs.jctc.0c01306
   
   with help from (in alphabetical order)
   P. Atkinson, C. Bannwarth, F. Bohle, G. Brandenburg, E. Caldeweyher
   M. Checinski, S. Dohm, S. Ehlert, S. Ehrlich, I. Gerasimov, C. Hölzer
   A. Katbashev, J. Koopman, C. Lavigne, S. Lehtola, F. März, M. Müller,
   F. Musil, H. Neugebauer, J. Pisarek, C. Plett, P. Pracht, F. Pultar,
   J. Seibert, P. Shushkov, S. Spicher, M. Stahn, M. Steiner, T. Strunk,
   J. Stückrath, T. Rose, and J. Unsleber
   
 * started run on 2022/11/17 at 06:48:47.983     

           -------------------------------------------------
          |                Calculation Setup                |
           -------------------------------------------------

          program call               : xtb solvent_cluster.coord --gfn2 --input xcontrol --opt 1
          hostname                   : cn0363
          coordinate file            : solvent_cluster.coord
          omp threads                :                     2

   ID    Z sym.   atoms
    1    8 o      1, 4, 7, 10, 13, 16, 19, 22, 25, 28, 31, 34, 37, 40, 43,
                  46, 49, 52, 55, 58, 61, 64, 67, 70, 73, 76, 79, 82, 85, 88,
                  91, 94, 97, 100, 103, 106, 109, 112, 115, 118, 121, 124,
                  127, 130, 133, 136, 139, 142, 145, 148, 151, 154, 157, 160,
                  163, 166, 169, 172, 175, 178, 181, 184, 187, 190, 193, 196,
                  199, 202, 205, 208, 211, 214, 217, 220, 223, 226, 229, 232,
                  235, 238, 241, 244, 247, 250, 253, 256, 259, 262, 265, 268,
                  271, 274, 277, 280, 283, 286, 289, 292, 295, 298, 301, 304,
                  307, 310, 313, 316, 319, 322, 325, 328, 331, 334, 337, 340,
                  343, 346, 349, 352, 355, 358, 361, 364, 367, 370, 373, 376,
                  379, 382, 385, 388, 391, 394, 397, 400, 403, 406, 409, 412,
                  415, 418, 421, 424, 427, 430, 433, 436, 439, 442, 445, 448,
                  451, 454, 457, 460, 463, 466, 469, 472, 475, 478, 481, 484,
                  487, 490, 493, 496, 499, 502, 505, 508, 511, 514, 517, 520,
                  523, 526, 529
    2    1 h      2, 3, 5, 6, 8, 9, 11, 12, 14, 15, 17, 18, 20, 21, 23, 24,
                  26, 27, 29, 30, 32, 33, 35, 36, 38, 39, 41, 42, 44, 45, 47,
                  48, 50, 51, 53, 54, 56, 57, 59, 60, 62, 63, 65, 66, 68, 69,
                  71, 72, 74, 75, 77, 78, 80, 81, 83, 84, 86, 87, 89, 90, 92,
                  93, 95, 96, 98, 99, 101, 102, 104, 105, 107, 108, 110, 111,
                  113, 114, 116, 117, 119, 120, 122, 123, 125, 126, 128, 129,
                  131, 132, 134, 135, 137, 138, 140, 141, 143, 144, 146, 147,
                  149, 150, 152, 153, 155, 156, 158, 159, 161, 162, 164, 165,
                  167, 168, 170, 171, 173, 174, 176, 177, 179, 180, 182, 183,
                  185, 186, 188, 189, 191, 192, 194, 195, 197, 198, 200, 201,
                  203, 204, 206, 207, 209, 210, 212, 213, 215, 216, 218, 219,
                  221, 222, 224, 225, 227, 228, 230, 231, 233, 234, 236, 237,
                  239, 240, 242, 243, 245, 246, 248, 249, 251, 252, 254, 255,
                  257, 258, 260, 261, 263, 264, 266, 267, 269, 270, 272, 273,
                  275, 276, 278, 279, 281, 282, 284, 285, 287, 288, 290, 291,
                  293, 294, 296, 297, 299, 300, 302, 303, 305, 306, 308, 309,
                  311, 312, 314, 315, 317, 318, 320, 321, 323, 324, 326, 327,
                  329, 330, 332, 333, 335, 336, 338, 339, 341, 342, 344, 345,
                  347, 348, 350, 351, 353, 354, 356, 357, 359, 360, 362, 363,
                  365, 366, 368, 369, 371, 372, 374, 375, 377, 378, 380, 381,
                  383, 384, 386, 387, 389, 390, 392, 393, 395, 396, 398, 399,
                  401, 402, 404, 405, 407, 408, 410, 411, 413, 414, 416, 417,
                  419, 420, 422, 423, 425, 426, 428, 429, 431, 432, 434, 435,
                  437, 438, 440, 441, 443, 444, 446, 447, 449, 450, 452, 453,
                  455, 456, 458, 459, 461, 462, 464, 465, 467, 468, 470, 471,
                  473, 474, 476, 477, 479, 480, 482, 483, 485, 486, 488, 489,
                  491, 492, 494, 495, 497, 498, 500, 501, 503, 504, 506, 507,
                  509, 510, 512, 513, 515, 516, 518, 519, 521, 522, 524, 525,
                  527, 528, 530, 531

molecular fragmentation (1/2 indicates fragments):
111222222222222222222222222222222222222222222222222222222222222222222222
222222222222222222222222222222222222222222222222222222222222222222222222
222222222222222222222222222222222222222222222222222222222222222222222222
222222222222222222222222222222222222222222222222222222222222222222222222
222222222222222222222222222222222222222222222222222222222222222222222222
222222222222222222222222222222222222222222222222222222222222222222222222
222222222222222222222222222222222222222222222222222222222222222222222222
222222222222222222222222222
# atoms in fragment 1/2:     3   528
 fragment masses (1/2) :       18.02     3170.69
CMA distance (Bohr)    :   4.936
constraining FC (au)   :  0.0500

           -------------------------------------------------
          |                 G F N 2 - x T B                 |
           -------------------------------------------------

        Reference                      10.1021/acs.jctc.8b01176
      * Hamiltonian:
        H0-scaling (s, p, d)           1.850000    2.230000    2.230000
        zeta-weighting                 0.500000
      * Dispersion:
        s8                             2.700000
        a1                             0.520000
        a2                             5.000000
        s9                             5.000000
      * Repulsion:
        kExp                           1.500000    1.000000
        rExp                           1.000000
      * Coulomb:
        alpha                          2.000000
        third order                    shell-resolved
        anisotropic                    true
        a3                             3.000000
        a5                             4.000000
        cn-shift                       1.200000
        cn-exp                         4.000000
        max-rad                        5.000000


          ...................................................
          :                      SETUP                      :
          :.................................................:
          :  # basis functions                1062          :
          :  # atomic orbitals                1062          :
          :  # shells                          708          :
          :  # electrons                      1416          :
          :  max. iterations                   250          :
          :  Hamiltonian                  GFN2-xTB          :
          :  restarted?                      false          :
          :  GBSA solvation                  false          :
          :  PC potential                    false          :
          :  electronic temp.          300.0000000     K    :
          :  accuracy                    1.0000000          :
          :  -> integral cutoff          0.2500000E+02      :
          :  -> integral neglect         0.1000000E-07      :
          :  -> SCF convergence          0.1000000E-05 Eh   :
          :  -> wf. convergence          0.1000000E-03 e    :
          :  Broyden damping             0.4000000          :
          ...................................................

 iter      E             dE          RMSdq      gap      omega  full diag
   1   -906.5241854 -0.906524E+03  0.407E+00    8.16       0.0  T
   2   -906.5815475 -0.573621E-01  0.241E+00    7.45       1.0  T
   3   -906.6042133 -0.226657E-01  0.213E-01    6.31       1.0  T
   4   -906.6081803 -0.396702E-02  0.464E-02    6.69       1.0  T
   5   -906.6082455 -0.651767E-04  0.312E-02    6.65       1.0  T
   6   -906.6082751 -0.296536E-04  0.432E-03    6.68       1.0  T
   7   -906.6082769 -0.177422E-05  0.751E-04    6.68       5.8  T
   8   -906.6082769 -0.211038E-07  0.375E-04    6.68      11.6  T
   9   -906.6082769 -0.959039E-08  0.622E-05    6.68      69.8  T

   *** convergence criteria satisfied after 9 iterations ***

         #    Occupation            Energy/Eh            Energy/eV
      -------------------------------------------------------------
         1        2.0000           -0.7034120             -19.1408
       ...           ...                  ...                  ...
       702        2.0000           -0.3487549              -9.4901
       703        2.0000           -0.3467379              -9.4352
       704        2.0000           -0.3436468              -9.3511
       705        2.0000           -0.3432591              -9.3406
       706        2.0000           -0.3429183              -9.3313
       707        2.0000           -0.3274883              -8.9114
       708        2.0000           -0.3250829              -8.8460 (HOMO)
       709                         -0.0797685              -2.1706 (LUMO)
       710                         -0.0746286              -2.0307
       711                         -0.0545500              -1.4844
       712                         -0.0452409              -1.2311
       713                         -0.0408603              -1.1119
       ...                                ...                  ...
      1062                          0.6688822              18.2012
      -------------------------------------------------------------
                  HL-Gap            0.2453144 Eh            6.6753 eV
             Fermi-level           -0.2024257 Eh           -5.5083 eV

 SCC (total)                   0 d,  0 h,  0 min,  8.433 sec
 SCC setup                      ...        0 min,  0.051 sec (  0.609%)
 Dispersion                     ...        0 min,  0.085 sec (  1.008%)
 classical contributions        ...        0 min,  0.017 sec (  0.199%)
 integral evaluation            ...        0 min,  0.523 sec (  6.202%)
 iterations                     ...        0 min,  2.947 sec ( 34.950%)
 molecular gradient             ...        0 min,  4.781 sec ( 56.690%)
 printout                       ...        0 min,  0.029 sec (  0.341%)

         :::::::::::::::::::::::::::::::::::::::::::::::::::::
         ::                     SUMMARY                     ::
         :::::::::::::::::::::::::::::::::::::::::::::::::::::
         :: total energy            -901.147575134990 Eh    ::
         :: gradient norm              0.145251407321 Eh/a0 ::
         :: HOMO-LUMO gap              6.675344252999 eV    ::
         ::.................................................::
         :: SCC energy              -906.608276918198 Eh    ::
         :: -> isotropic ES            5.098828969500 Eh    ::
         :: -> anisotropic ES         -1.113746663395 Eh    ::
         :: -> anisotropic XC         -0.093067568835 Eh    ::
         :: -> dispersion             -0.530711368224 Eh    ::
         :: repulsion energy           5.367832588139 Eh    ::
         :: add. restraining           0.000000000000 Eh    ::
         :: total charge               0.000000000000 e     ::
         :::::::::::::::::::::::::::::::::::::::::::::::::::::

      ----------------------------------------------------------- 
     |                       L-ANC optimizer                     |
      ----------------------------------------------------------- 
          low memory version by Sebastian Ehlert

          ...................................................
          :                      SETUP                      :
          :.................................................:
          :   energy convergence        0.1000000E-05 Eh    :
          :   grad. convergence         0.8000000E-03 Eh/a0 :
          :   optimization log               true           :
          :   writing optlog all                1     steps :
          :   Hessian reset                    20     steps :
          :   maximium step len.        1.0000000     a0    :
          :   LBFGS images                     20           :
          ...................................................
 * calculating model hessian...
Using Lindh-Hessian (1995)
 Shifting diagonal of input Hessian by   1.000009597517447E-002
 Lowest  eigenvalues of input Hessian
    0.010000   -0.000000   -0.000000   -0.000000   -0.000000   -0.000000
   -0.000000   -0.000000   -0.000000   -0.000000   -0.000000   -0.000000
   -0.000000   -0.000000   -0.000000   -0.000000   -0.000000   -0.000000
 Highest eigenvalues
    0.335133    0.435365    1.281395    1.446038    1.477770    1.583033
 

........................................................................
.............................. CYCLE    1 ..............................
........................................................................
   1   -906.6212524 -0.906621E+03  0.378E-02    6.73       0.0  T
   2   -906.6214307 -0.178331E-03  0.207E-02    6.73       1.0  T
   3   -906.6214591 -0.284083E-04  0.813E-03    6.73       1.0  T
   4   -906.6214602 -0.109335E-05  0.106E-03    6.73       4.1  T
   5   -906.6214602 -0.275572E-07  0.164E-04    6.73      26.5  T
   6   -906.6214602 -0.974410E-09  0.672E-05    6.73      64.6  T
     SCC iter.                  ...        0 min,  1.672 sec
     gradient                   ...        0 min,  4.845 sec
 * total energy  :  -901.1632387 Eh     change       -0.1566355E-01 Eh
   gradient norm :     0.0295148 Eh/a0  converged?    E=F G=F D=F
   step length   :     0.5503742 a0

........................................................................
.............................. CYCLE    2 ..............................
........................................................................
   1   -906.6325343 -0.906633E+03  0.453E-02    6.74       0.0  T
   2   -906.6327355 -0.201178E-03  0.255E-02    6.71       1.0  T
   3   -906.6327670 -0.314292E-04  0.909E-03    6.64       1.0  T
   4   -906.6327686 -0.159889E-05  0.119E-03    6.63       3.6  T
   5   -906.6327686 -0.388327E-07  0.211E-04    6.64      20.6  T
   6   -906.6327686 -0.179068E-08  0.844E-05    6.64      51.4  T
     SCC iter.                  ...        0 min,  1.651 sec
     gradient                   ...        0 min,  4.883 sec
 * total energy  :  -901.1776283 Eh     change       -0.1438961E-01 Eh
   gradient norm :     0.0167080 Eh/a0  converged?    E=F G=F D=F
   step length   :     1.2776982 a0

........................................................................
.............................. CYCLE    3 ..............................
........................................................................
   1   -906.6350138 -0.906635E+03  0.310E-02    6.52       0.0  T
   2   -906.6350810 -0.671713E-04  0.178E-02    6.49       1.0  T
   3   -906.6350911 -0.101425E-04  0.544E-03    6.46       1.0  T
   4   -906.6350919 -0.788691E-06  0.677E-04    6.46       6.4  T
   5   -906.6350919 -0.148996E-07  0.133E-04    6.46      32.6  T
     SCC iter.                  ...        0 min,  1.357 sec
     gradient                   ...        0 min,  4.904 sec
 * total energy  :  -901.1826215 Eh     change       -0.4993207E-02 Eh
   gradient norm :     0.0157452 Eh/a0  converged?    E=F G=F D=F
   step length   :     0.8483324 a0

........................................................................
.............................. CYCLE    4 ..............................
........................................................................
   1   -906.6363151 -0.906636E+03  0.181E-02    6.41       0.0  T
   2   -906.6363259 -0.108298E-04  0.108E-02    6.40       1.0  T
   3   -906.6363279 -0.196761E-05  0.219E-03    6.39       2.0  T
   4   -906.6363282 -0.289622E-06  0.371E-04    6.39      11.7  T
   5   -906.6363282 -0.350326E-08  0.694E-05    6.40      62.5  T
     SCC iter.                  ...        0 min,  1.346 sec
     gradient                   ...        0 min,  4.920 sec
 * total energy  :  -901.1841935 Eh     change       -0.1571982E-02 Eh
   gradient norm :     0.0142064 Eh/a0  converged?    E=F G=F D=F
   step length   :     0.4614118 a0

........................................................................
.............................. CYCLE    5 ..............................
........................................................................
   1   -906.6367950 -0.906637E+03  0.261E-02    6.34       0.0  T
   2   -906.6368068 -0.118435E-04  0.158E-02    6.34       1.0  T
   3   -906.6368099 -0.302917E-05  0.220E-03    6.34       2.0  T
   4   -906.6368103 -0.392258E-06  0.503E-04    6.34       8.6  T
   5   -906.6368103 -0.557338E-08  0.818E-05    6.34      53.1  T
     SCC iter.                  ...        0 min,  1.357 sec
     gradient                   ...        0 min,  4.935 sec
 * total energy  :  -901.1855436 Eh     change       -0.1350117E-02 Eh
   gradient norm :     0.0197578 Eh/a0  converged?    E=F G=F D=F
   step length   :     0.6249567 a0

........................................................................
.............................. CYCLE    6 ..............................
........................................................................
   1   -906.6421203 -0.906642E+03  0.133E-02    6.37       0.0  T
   2   -906.6421222 -0.182610E-05  0.802E-03    6.37       1.0  T
   3   -906.6421228 -0.658083E-06  0.892E-04    6.38       4.9  T
   4   -906.6421229 -0.482277E-07  0.248E-04    6.38      17.5  T
     SCC iter.                  ...        0 min,  1.079 sec
     gradient                   ...        0 min,  4.920 sec
 * total energy  :  -901.1859606 Eh     change       -0.4169867E-03 Eh
   gradient norm :     0.0116671 Eh/a0  converged?    E=F G=F D=F
   step length   :     0.3093901 a0

........................................................................
.............................. CYCLE    7 ..............................
........................................................................
   1   -906.6422142 -0.906642E+03  0.172E-02    6.38       0.0  T
   2   -906.6422175 -0.333845E-05  0.106E-02    6.39       1.0  T
   3   -906.6422187 -0.118948E-05  0.109E-03    6.40       4.0  T
   4   -906.6422188 -0.872363E-07  0.277E-04    6.40      15.7  T
   5   -906.6422188 -0.817636E-09  0.320E-05    6.40     135.7  T
     SCC iter.                  ...        0 min,  1.338 sec
     gradient                   ...        0 min,  4.906 sec
 * total energy  :  -901.1864056 Eh     change       -0.4450569E-03 Eh
   gradient norm :     0.0098174 Eh/a0  converged?    E=F G=F D=F
   step length   :     0.2601196 a0

........................................................................
.............................. CYCLE    8 ..............................
........................................................................
   1   -906.6424459 -0.906642E+03  0.668E-03    6.42       0.0  T
   2   -906.6424472 -0.128025E-05  0.394E-03    6.42       1.1  T
   3   -906.6424474 -0.231577E-06  0.744E-04    6.42       5.8  T
   4   -906.6424474 -0.340583E-07  0.132E-04    6.42      32.9  T
     SCC iter.                  ...        0 min,  1.070 sec
     gradient                   ...        0 min,  4.899 sec
 * total energy  :  -901.1865791 Eh     change       -0.1734692E-03 Eh
   gradient norm :     0.0081889 Eh/a0  converged?    E=F G=F D=F
   step length   :     0.1444125 a0

........................................................................
.............................. CYCLE    9 ..............................
........................................................................
   1   -906.6422687 -0.906642E+03  0.346E-03    6.43       0.0  T
   2   -906.6422691 -0.387162E-06  0.206E-03    6.44       2.1  T
   3   -906.6422692 -0.869737E-07  0.415E-04    6.44      10.5  T
   4   -906.6422692 -0.109789E-07  0.948E-05    6.44      45.8  T
     SCC iter.                  ...        0 min,  0.995 sec
     gradient                   ...        0 min,  4.839 sec
 * total energy  :  -901.1866454 Eh     change       -0.6627586E-04 Eh
   gradient norm :     0.0042359 Eh/a0  converged?    E=F G=F D=F
   step length   :     0.0782167 a0

........................................................................
.............................. CYCLE   10 ..............................
........................................................................
   1   -906.6425202 -0.906643E+03  0.210E-03    6.45       0.0  T
   2   -906.6425203 -0.143903E-06  0.126E-03    6.45       3.4  T
   3   -906.6425204 -0.339847E-07  0.251E-04    6.45      17.3  T
   4   -906.6425204 -0.424529E-08  0.565E-05    6.45      76.8  T
     SCC iter.                  ...        0 min,  0.997 sec
     gradient                   ...        0 min,  4.828 sec
 * total energy  :  -901.1866686 Eh     change       -0.2324335E-04 Eh
   gradient norm :     0.0019077 Eh/a0  converged?    E=F G=F D=F
   step length   :     0.0400676 a0

........................................................................
.............................. CYCLE   11 ..............................
........................................................................
   1   -906.6417838 -0.906642E+03  0.454E-03    6.44       0.0  T
   2   -906.6417840 -0.232890E-06  0.276E-03    6.44       1.6  T
   3   -906.6417841 -0.853220E-07  0.304E-04    6.44      14.3  T
   4   -906.6417841 -0.709315E-08  0.871E-05    6.44      49.8  T
     SCC iter.                  ...        0 min,  0.980 sec
     gradient                   ...        0 min,  4.919 sec
 * total energy  :  -901.1866774 Eh     change       -0.8801621E-05 Eh
   gradient norm :     0.0034206 Eh/a0  converged?    E=F G=F D=F
   step length   :     0.0547159 a0

........................................................................
.............................. CYCLE   12 ..............................
........................................................................
   1   -906.6424594 -0.906642E+03  0.168E-03    6.44       0.0  T
   2   -906.6424595 -0.557106E-07  0.990E-04    6.44       4.4  T
   3   -906.6424595 -0.128050E-07  0.159E-04    6.44      27.3  T
     SCC iter.                  ...        0 min,  0.821 sec
     gradient                   ...        0 min,  4.842 sec
 * total energy  :  -901.1866867 Eh     change       -0.9285258E-05 Eh
   gradient norm :     0.0017098 Eh/a0  converged?    E=F G=F D=F
   step length   :     0.0284529 a0

........................................................................
.............................. CYCLE   13 ..............................
........................................................................
   1   -906.6426438 -0.906643E+03  0.923E-04    6.44       0.0  T
   2   -906.6426438 -0.316741E-07  0.544E-04    6.44       8.0  T
   3   -906.6426438 -0.835928E-08  0.123E-04    6.44      35.2  T
     SCC iter.                  ...        0 min,  0.798 sec
     gradient                   ...        0 min,  4.884 sec
 * total energy  :  -901.1866892 Eh     change       -0.2507221E-05 Eh
   gradient norm :     0.0010088 Eh/a0  converged?    E=F G=F D=F
   step length   :     0.0152228 a0

........................................................................
.............................. CYCLE   14 ..............................
........................................................................
   1   -906.6426320 -0.906643E+03  0.706E-04    6.44       0.0  T
   2   -906.6426320 -0.872319E-08  0.428E-04    6.43      10.1  T
   3   -906.6426320 -0.279545E-08  0.609E-05    6.43      71.3  T
     SCC iter.                  ...        0 min,  0.797 sec
     gradient                   ...        0 min,  4.894 sec
 * total energy  :  -901.1866906 Eh     change       -0.1328125E-05 Eh
   gradient norm :     0.0002397 Eh/a0  converged?    E=F G=T D=F
   step length   :     0.0108494 a0

........................................................................
.............................. CYCLE   15 ..............................
........................................................................
   1   -906.6426282 -0.906643E+03  0.722E-04    6.43       0.0  T
   2   -906.6426282 -0.339617E-08  0.441E-04    6.43       9.8  T
   3   -906.6426282 -0.199486E-08  0.394E-05    6.43     110.2  T
     SCC iter.                  ...        0 min,  0.799 sec
     gradient                   ...        0 min,  4.892 sec
 * total energy  :  -901.1866913 Eh     change       -0.7891989E-06 Eh
   gradient norm :     0.0004190 Eh/a0  converged?    E=T G=T D=F
   step length   :     0.0101180 a0

   *** GEOMETRY OPTIMIZATION CONVERGED AFTER 15 CYCLES ***

------------------------------------------------------------------------
 total energy gain   :        -0.0391162 Eh      -24.5458 kcal/mol
 total RMSD          :         0.1421547 a0        0.0752 Å
 total power (kW/mol):        -6.8466401 (step)   -1.0066 (real)
------------------------------------------------------------------------

 L-ANCopt (total)              0 d,  0 h,  1 min, 42.030 sec
 setup                          ...        0 min,  0.033 sec (  0.032%)
 model hessian                  ...        0 min,  3.934 sec (  3.855%)
 ANC generation                 ...        0 min,  1.011 sec (  0.991%)
 coordinate transformation      ...        0 min,  0.001 sec (  0.001%)
 Rational function              ...        0 min,  0.000 sec (  0.000%)
 singlepoint calculation        ...        1 min, 36.963 sec ( 95.033%)
 optimization log               ...        0 min,  0.084 sec (  0.083%)
 hessian update                 ...        0 min,  0.000 sec (  0.000%)

================
 final structure:
================
$coord
       -0.85672473907900       -4.45350072563600       -2.01599197195300      o
       -0.86852526675100       -4.94692315803600       -0.21984744752600      h
        0.76327243162300       -3.59909446297800       -2.21764601657300      h
       -0.31114488479700       -5.00749395920800        2.85693713369300      o
        1.29068131971500       -4.12490268894000        2.93058008747400      h
       -0.20203637510800       -6.42422425502600        4.02515417310300      h
        4.48444628648600        6.11032094670900        1.47097429470000      o
        3.18760436890300        7.32605971088000        0.94689904022000      h
        5.89882760362800        6.32783305012000        0.35041008149100      h
        4.02456745174600       -2.86660464888500       -2.42962000313500      o
        4.43122430941200       -3.29048370030100       -4.15842067325400      h
        4.98875795021900       -1.33969837177100       -2.04767775055200      h
      -10.54371588454100       -2.32029494351300        5.33189210265800      o
       -9.31255083353400       -1.33046372287400        4.41717073726900      h
      -11.11159237700400       -1.31549834529900        6.75384297824900      h
        6.21821701824500       -7.61380539878100       -3.84816560692700      o
        4.42235454921100       -7.43436736453900       -4.19323140813000      h
        6.61353719696900       -9.32787661491700       -4.36160806229700      h
       -5.40188690855700       -4.73388289606400        4.64282403197000      o
       -4.48232955569600       -5.96583926074200        3.62759229941200      h
       -4.15573796727400       -3.93000932031700        5.72091849487300      h
        8.01210730124700       -3.47400349478400        7.06384453595000      o
        8.47610582831900       -3.28821932257600        5.30054715257400      h
        8.02941114741000       -1.79767545869200        7.79438296687200      h
       -3.73945999531400       -8.36286772583500        1.23003336670200      o
       -4.26918909724100       -7.46024525071200       -0.28487012253700      h
       -2.06623544783500       -9.06437681486900        0.91217670105500      h
       -0.02639264468800        6.40843791587000        5.66071480565900      o
       -1.26187689754500        7.76537609382500        5.72916572114200      h
        1.56163680276100        7.19284182506300        6.14802004114800      h
       -4.21487048271900       -0.79780304618500       -2.77906799283100      o
       -3.23295552779400       -2.35459506139800       -2.49573591144100      h
       -5.22558210778000       -1.08811095737600       -4.26786635068200      h
        4.76991255009700        8.17011013436200        6.15283646995700      o
        5.01318245270000        7.33780467286100        4.51773518367000      h
        6.14717022742100        7.60244486261600        7.24460757327300      h
        1.06498063730100        9.62084025870700        0.14279999805700      o
        0.86330636675500       11.27222782551200        0.91465468281800      h
       -0.59747811045400        8.81346015114100        0.22932503562200      h
      -10.37628782045500        3.42088743363600        5.24614463327500      o
       -9.06549327478700        3.94272798740400        4.03301485857500      h
      -11.84278319971600        3.01461729213400        4.20867050900900      h
       -2.89035837443200        4.75948316165400       -4.10871686266300      o
       -3.00558499433600        6.52173763343500       -4.65621507488800      h
       -3.02133415823700        3.76229499619800       -5.64993774071100      h
       -2.97083025034000       13.48393214213300       -3.20642202444600      o
       -2.90089203889800       11.93515279152400       -4.20520897080900      h
       -1.36013485934800       14.29665680702200       -3.46272431188700      h
       -6.97359902105400        8.44485457330500       -3.07244093746600      o
       -6.96957499515400        7.66343567862300       -4.75447798380500      h
       -8.36546605725300        7.66733771893400       -2.13139991654200      h
       -0.30428497834500       -3.11179169433700       -8.08966296888900      o
       -1.92191709390500       -3.68425884192400       -7.35130838313000      h
       -0.70614262714200       -2.77094924392600       -9.85502428883700      h
        7.68698105810500        2.48855863420900        4.26454770259800      o
        8.07901653805000        4.23843009599500        3.87074456147300      h
        5.89104531948300        2.42928022833000        4.79357089399500      h
        8.72295279071500       -1.90187359468200        2.10879118482900      o
        8.50954980926400       -0.16538943680200        2.69812308053400      h
       10.04339569296700       -1.88596720010200        0.84686951816500      h
       -8.47252373921000       13.10950807372200       -3.49350721703300      o
       -7.06208631810800       14.20802403886400       -3.80738552144100      h
       -7.73018458805300       11.39064863350300       -3.43569700160600      h
        0.26805698755800        0.47888741893400       -4.60372366038600      o
        0.28472983570800       -0.93416207907300       -5.78940042567200      h
       -1.46614116411600        0.50328552855800       -3.96734851267000      h
       12.97799733760300        4.63673900518700        6.13998763646800      o
       14.61300142980400        5.44209250412600        6.16043219771000      h
       13.20465972498500        2.95137680991800        5.45556339892600      h
       18.73291129724700       -1.95693778791600        2.45172233591400      o
       20.06457466804200       -0.75729005796700        2.19086300496000      h
       18.97311157134800       -3.28222721418500        1.18433386914600      h
       -7.76671649439400        3.31116350029900       -2.94211991932500      o
       -6.01088118299000        3.73872197323800       -3.28116453945900      h
       -8.14727222405600        1.93394806383000       -4.09897913829500      h
        6.45769567176800        1.47244486734000       -1.66740822177400      o
        8.01711349010000        1.86214844247100       -0.79747134844800      h
        6.48288620414300        2.46024684564100       -3.21232627815500      h
       -6.86628685140400       -4.11015130960100       10.24660738634200      o
       -6.97172613974400       -2.56122608254200        9.25174733982300      h
       -8.59768195935000       -4.67350284779800       10.48603343537500      h
       -3.88993176634200        2.52422929398000       -8.52803380534500      o
       -3.03931126481100        3.34438902665600       -9.95791688384300      h
       -4.86267326755500        1.12618772299500       -9.20579268844600      h
      -11.97180872776000        6.06273346987700       -7.48664357497100      o
      -12.07939049308400        4.72868000847200       -6.20472355728200      h
      -13.33514193259200        5.70688305446100       -8.64256797788300      h
       10.27149637269000       -6.03908342924600       10.71495800216400      o
        9.45337668175700       -5.04994162012900        9.36075373099000      h
        9.00005403444600       -6.13290370584000       12.03946502160700      h
        6.13055292852200       -8.50378522066500       -9.65755123453300      o
        7.61824271795100       -7.47594689197300      -10.02353453151000      h
        5.08747605670000       -8.51783195993700      -11.14228639057500      h
      -17.85662276209700       -8.90233554782800       -2.15157864266500      o
      -16.96559347731600      -10.49071414104200       -2.05463557050800      h
      -17.44192127889200       -8.07112520330100       -0.55206175790700      h
       -6.92907374477900        4.39916474717800        1.87724108836400      o
       -7.39427664219700        3.84489412016700        0.17709964086500      h
       -5.81949110209300        5.85973906777500        1.71010061675700      h
        1.37777425904500       -7.66002048651900       -5.28112201363300      o
        0.19171872049100       -6.77291112358100       -4.17867822853900      h
        0.58810203938100       -7.84724563693500       -6.93729072863000      h
        3.22045909210100        2.38789576218800        6.26756642207200      o
        3.28868755320300        3.03143548817600        7.99607689926100      h
        2.05882310570200        3.49174431626200        5.40888431997200      h
        7.14689683698800      -12.15517235925800       -5.98671590347600      o
        8.93009220388600      -12.06744943594100       -5.62201061152900      h
        6.84795396140000      -11.23826264832300       -7.54920807708200      h
        8.96801749379800        1.37297476822800        8.88073584454500      o
       10.77759431386000        1.15925482342200        9.12289584098900      h
        8.71184350136300        1.79249207061500        7.07022358217000      h
      -13.10197528707100       -6.59508691397700       -1.90655568854200      o
      -12.02324581747900       -6.24205334106800       -0.45202126334800      h
      -13.31120127440900       -8.42208238407700       -1.88416392023300      h
       11.22871018040300        2.60307989141500        0.00934634341600      o
       12.02738987820500        4.26078991187200        0.16784184207000      h
       12.05167006741700        1.57256644342600        1.28612198396400      h
       -2.71508764435600        9.31895688941700       -6.30590826295100      o
       -1.23559292494900        8.91635744948700       -7.36279249622300      h
       -4.18136050517400        9.03569959242000       -7.35205106810500      h
        4.59666663095100       -6.75808603264600        1.05910700282200      o
        4.35364650854400       -5.30711012109600       -0.04906561404400      h
        3.19356836875400       -7.91149290920000        0.67033354381100      h
        4.99292204638600       -0.63241171757800       11.61965393051800      o
        6.29063463649200        0.46652867887800       10.95453059472000      h
        3.64669699336700        0.40073763052500       12.29947509479100      h
        5.64926381870600       -5.67568915017200       13.01063485381100      o
        5.55551047885200       -3.87502909667700       12.66754334473900      h
        5.23212580374300       -6.51953056637400       11.42316928811300      h
       -2.14698241644000       -2.30114403971200        8.20270477155400      o
       -2.42471194434900       -2.86538835512300        9.90520906416100      h
       -2.16161098608100       -0.45117729794400        8.25231493110600      h
        2.02851193435600        5.88625469393800       -3.30120357552800      o
        2.00531733090700        7.69885209353100       -3.51260985969000      h
        0.30397680864100        5.29288172605900       -3.53415594181100      h
        2.19487665702000       15.07192569178000       -3.17800346863000      o
        2.01890746155600       15.00779182801600       -1.34962894947500      h
        3.74726845273000       15.96063800436200       -3.50773735156300      h
       -7.92350790961800      -10.78772145877900        2.01675357365100      o
       -6.19200425864900      -10.08645853603000        1.83512307256000      h
       -7.89793507944800      -11.82263337336200        3.50282770162900      h
      -11.15776711474700       -1.49704032274600       -1.84269146637200      o
      -10.92974785443400       -2.89317556767300       -3.00397469063600      h
       -9.66469100070600       -1.42121247141300       -0.73089538824900      h
       16.92079328635600        5.05108982101800       -4.47550181162400      o
       15.96066852929400        5.06439434472300       -6.02451233354200      h
       16.22961671520000        3.66194073286500       -3.45447593760900      h
       -1.58718815411700        5.02268714967100      -12.25608623847500      o
       -0.65961319615300        6.36854938626800      -11.44107028710900      h
       -0.34212209175400        3.92156209943700      -12.99987215153600      h
      -19.15278627789100       -0.38032032291000        0.97619984842100      o
      -17.91712300921600       -1.17462638776300       -0.14555857275500      h
      -20.14279935668400        0.76613307967900       -0.05974953591200      h
        3.11864966004000        4.82849233241800       10.74117132716500      o
        4.48245834656600        6.00582407433800       10.93057080117200      h
        1.56620683530500        5.81797768823200       10.85774203751700      h
      -13.18003927134000        2.46827803220400       -4.13658232045000      o
      -14.39604756239900        1.56718990097900       -5.17225975866800      h
      -12.24955308000200        1.12382330166600       -3.24343350392600      h
       -7.12775534553400        0.59468633629500        8.20208168091000      o
       -8.42777099435500        1.63783770375900        7.43570712789100      h
       -5.70236783795301        0.70080509487500        7.03821486603600      h
       14.98680653435500       -4.09652953473500       10.31455127266800      o
       15.73439012515400       -4.82970192048700        8.79561714764500      h
       13.39504473245900       -4.98184680951700       10.61591311614600      h
       15.95849305561600        1.00758756772700       -1.53057561203600      o
       17.40720715474400        0.11605024297500       -2.25438514326900      h
       16.49899854502400        1.72558355946700        0.07690898376900      h
      -16.38455184695600        4.00783395548800        7.10389764499700      o
      -15.63177314875500        5.61410104527200        7.51618170894200      h
      -15.89275936365800        3.66707475241800        5.33454000725600      h
        2.07522916328600        1.18239579909400      -12.70436609917800      o
        2.15689549055800        1.75567964844100      -10.92953338830200      h
        3.30721202041100       -0.18444828165900      -12.84185143688900      h
       -3.23018975399700       -7.82031926201800       10.22479542904000      o
       -1.96434204107700       -7.02236354638500       11.28632591317300      h
       -4.59964009545700       -6.60918902807700       10.03952995089000      h
        7.83432644252300       15.29349517740000       -3.11806699384600      o
        9.56017006588700       15.30847982356600       -2.53713901425000      h
        7.04559477744800       14.01649205466600       -2.03349739253700      h
      -11.27508334598500        6.71906219212800       -0.94279754670500      o
      -12.05431775998800        7.84342112452100       -2.18934511396000      h
      -11.20276991305300        5.04447961482700       -1.65842805357900      h
      -14.25566479141600       -2.19105518593100        2.03305765009600      o
      -12.99101787310400       -2.39907885592100        3.38116403962600      h
      -13.27824124094100       -2.07217127111600        0.46039919251300      h
       -9.08043279013900       12.49745345255400        1.58936434967000      o
      -10.78733781360900       11.93256812547100        1.97362784806700      h
       -9.06961470113100       12.84661444768100       -0.22357215500900      h
      -16.75522928007100        9.69258183335400       -1.14459982558600      o
      -15.64227600879900       10.25021641916400       -2.48613758799800      h
      -15.84163468494500       10.00356891564100        0.41921317272800      h
       12.59488704654500       -2.85355886154300       -1.36131696343100      o
       13.75917757199200       -1.42122465957800       -1.44506217935400      h
       13.57240068649200       -4.34630117193600       -0.92879074773500      h
        9.49526129524200        7.26808306615400        3.61358805610800      o
       11.04587662005700        6.43890025792100        4.17967405080900      h
        9.60442570075700        7.38502005679500        1.76733932255500      h
        9.06710653874300       -3.67635937946400       -5.10954123293200      o
        8.06354476305300       -5.11603795711100       -4.50802715426600      h
       10.41644315120400       -3.33830696542000       -3.91854881783800      h
       -1.11072422764300        7.98659596162500       10.82985082541200      o
       -2.75639782593800        7.19628509150200       10.81889616779800      h
       -1.23061940265500        9.31727117865900        9.59386797365400      h
       -4.18954468470500       -2.61416058297700       14.30187966693800      o
       -5.26817768700000       -3.35587007858200       12.99058899526400      h
       -3.06332491536000       -3.92962890884600       14.84833538973300      h
       -7.26785950004700       -1.24461106662100        1.26603971625700      o
       -6.07023532190300       -0.89394067197800       -0.09398655433500      h
       -6.50959440358400       -2.56086376103900        2.31694973948800      h
        9.99837287471500       -5.15255555501400       -9.71204393703500      o
        9.52138398955400       -4.43173261129900       -8.04562910072900      h
       10.34420496054600       -3.70345014031800      -10.80708907389600      h
       -9.82785784275800       -6.06228078923900        1.73368076644100      o
       -9.92246173503400       -5.16923604445900        3.32013294902400      h
       -9.33880741719700       -7.80655747338800        2.10167206882600      h
        4.56752728339100       -3.91184724944500       -7.71173851272400      o
        4.94133259600000       -5.70871426618000       -7.83635855989000      h
        2.71714510975000       -3.77331077869800       -7.79071951315500      h
        5.44884045338600       -2.63952138948700      -12.48196503757600      o
        5.34229183166300       -3.02089317216700      -10.65836246516000      h
        7.20049335491100       -2.37886032593300      -12.89827935217800      h
      -11.46814374620000        0.76227723353000      -10.61271800492700      o
      -12.38061025827100       -0.82785156187600      -10.60059453575200      h
      -12.76070657061100        2.04940266197400      -10.63757290893400      h
       15.20526942654300       -1.91461965372400       -6.53802636927400      o
       13.85048497208700       -0.89325214617100       -5.79093132044300      h
       14.62441077381100       -3.65493585457500       -6.58570484434600      h
        9.46145534579500       -6.88041265718800        0.01921185199800      o
        7.64115450369100       -7.11712049739200        0.31632208005300      h
        9.56997380159500       -5.20767185139400       -0.67466492475500      h
      -21.33127418910600       -5.17078318690400       -2.91444346682600      o
      -21.90389881757200       -5.05781999740500       -1.17670459195500      h
      -20.72981757114800       -6.88514334913000       -3.11112707620900      h
        0.08280933084700        0.29298277197300       12.91398365001500      o
       -1.39332957901500        0.02235250774000       13.94334606725200      h
       -0.44903531890200        1.41345458703200       11.54413102350600      h
        7.11515979825000        0.71665746918100       -7.33674337007600      o
        6.63465427085800       -1.04341894623400       -7.20340290132600      h
        7.42993384636400        1.12501908925600       -9.09976831808700      h
        5.39024368242900       12.87129459587900        4.61009234826200      o
        5.03738095794200       11.19842414033400        5.36223401852200      h
        7.18831214421400       13.13347693323000        4.83312557742900      h
       10.57746239114700       -0.97279068454300      -12.48804615753900      o
        9.56916307401400        0.55182128442200      -12.62744484523000      h
       12.28895451705500       -0.35281377888400      -12.10449703904500      h
        3.72317199571300       -1.82269890206500        2.86954624410700      o
        3.62960071281200       -1.86332386807400        4.72029854835400      h
        5.46349267615900       -2.14288840510600        2.40412082144300      h
      -16.64378547558900       -3.11738077482800       -2.60471074853100      o
      -15.34816783907200       -4.43389318203100       -2.35373413116800      h
      -18.25780351219200       -3.98524014524000       -2.82825958073100      h
      -15.88028598715700        3.59959362463900       -9.92895594795600      o
      -16.37146219340600        2.28029562079100       -8.74275992679700      h
      -17.27957146628000        3.84504495242300      -11.04698859584400      h
        3.61859944076200       10.48192978662800       -5.14273956405500      o
        2.93728696769800       12.10911520158700       -4.63457957377100      h
        5.35673754972000       10.80294143894200       -5.69344506356900      h
       13.64177264212000       -0.22837847737400        3.82070649483300      o
       12.77078833036000       -1.82129867353000        4.10940433457000      h
       15.34900264591900       -0.68493453157800        3.36648370963600      h
       21.65995601284900        3.20860690499100       -3.80873223652900      o
       21.30560569515000        1.43059440630500       -4.06562612195400      h
       20.12055634306700        4.08832097622600       -4.31599652524800      h
       11.87542044890600       12.82638835368700       -0.61365706833300      o
       13.62164514495600       12.35286982607700       -0.71941985318900      h
       11.39410801514800       12.71462285567600        1.15151380843500      h
       13.98738806765800        6.64052978523700        1.13000139424000      o
       15.38137984009400        5.64031159275400        1.76892290836500      h
       14.72789423774600        7.84806805946300       -0.04281552574700      h
        0.98793829916300      -10.13271521455800        0.28281089761900      o
        1.30917310354600      -11.14300870241500       -1.22293959060100      h
        1.30248233852700      -11.23604684335800        1.74089944662400      h
       12.13975125915300       -5.28651998122500        4.14008440196400      o
       11.59698541260100       -6.52811291532100        5.39721545933400      h
       11.33193495521700       -5.86038495569500        2.58180848833100      h
        2.03423750899700      -12.71132596022700        4.46316220712100      o
        3.81310011356100      -12.32364141951200        4.64298800273500      h
        1.14533449736700      -11.38373116599900        5.41249833354500      h
      -21.64783400783300       -4.49108508687600        2.27883266261300      o
      -20.85356747567000       -2.83657760350500        1.92266754111800      h
      -22.59691811473500       -4.28743899407200        3.80500013889500      h
      -15.85000644755600       -4.01474677577800        7.35558300634500      o
      -17.28258121579100       -2.86775440879700        7.09578180683700      h
      -15.92808075445300       -5.18823902920500        5.96113082089000      h
      -13.25256939404400      -10.17392494416700        3.69602770931600      o
      -14.53556017524300       -8.88656835820900        3.52190812904500      h
      -11.91151555624300       -9.48497992846500        4.72682590971500      h
       -4.83490292685700       -6.61717560747000      -11.41685818793500      o
       -3.98543168238200       -5.24090289499600      -12.25435675826300      h
       -6.63311312508000       -6.31539938224100      -11.59916983583200      h
       11.52083038904600       -9.80926409082700       -3.56826342556700      o
       12.16889747359900       -8.77094400617300       -4.93803296347200      h
       10.42891467615200       -8.71597166628100       -2.53448978835600      h
       -8.41331826050100       -0.17680960686000       -6.53107300207900      o
       -9.40669777760300        0.40269546257500       -7.96099163274700      h
       -8.87645245848200       -1.92455831681100       -6.29027195046100      h
       -3.20439215547500      -13.50247348175900       -2.15428839893800      o
       -3.18796996435600      -13.50056384414600       -0.30128110323600      h
       -1.53166285055400      -13.98291624587200       -2.68455005020400      h
       16.88029651085200       -5.60047880137600        5.74095853174000      o
       17.84911022896200       -4.31267860546400        4.88952558713500      h
       15.17846645186500       -5.48325360220500        4.99814842213700      h
        6.72401361218700      -10.17863665532400        4.27191890860900      o
        5.98684081285000       -8.83816994101400        3.24737536076300      h
        7.82784911619200      -11.11891658817700        3.12799268301900      h
       -5.56112077094900      -11.56493974741100        6.99230337826700      o
       -4.49043453945800      -10.98812010081500        8.34224620460800      h
       -6.94060819601400      -10.34211555122400        6.93821643753200      h
       -6.60949903384000       -5.89821451341300       -2.11138018572500      o
       -7.41771583797800       -7.31806569560500       -2.94474195130800      h
       -7.68191886174400       -5.52500020673600       -0.65780783342800      h
       -9.11450981964000       -7.86624259723500        6.61744643921400      o
       -7.84063910097000       -6.59277180334600        6.19045578961600      h
       -9.99539941020900       -7.27506398687700        8.10144497951400      h
       14.87755381344200       -7.48371953549200       -0.37464421449300      o
       14.80641554608800       -8.41264889575900        1.23550805112100      h
       13.95710335984600       -8.53095837470400       -1.58038245539900      h
       10.51022511965100       12.05980082288500        4.47112997429300      o
       11.76276692728600       12.13910135140700        5.76989013794700      h
       10.07186277864600       10.24803951779800        4.23680916183000      h
      -13.35945484354300        0.35862439157000        8.89462437803900      o
      -14.25931659157100       -1.20614102352000        8.56003079573000      h
      -14.51895001308300        1.69910269916000        8.34501142093700      h
       -2.88499960807100       10.63016240002500        6.29401981766900      o
       -2.81330997764300       11.80904148885800        4.90613754018800      h
       -4.63353730751800       10.05573337429500        6.30697936623400      h
      -21.68943527599800       -0.65697464777700       -5.91419933653200      o
      -21.91585963293300        0.62690175726700       -4.62294466602700      h
      -21.89805599828700       -2.27265292257600       -5.08381051219000      h
      -16.86268498310000       -6.45012124349400        2.46735119381400      o
      -18.63646955917900       -5.98862056487500        2.59378936086600      h
      -15.94099181605000       -4.87386438109600        2.08832541557100      h
      -16.81667647075400       -0.30418751913100       -6.62510142839500      o
      -16.47962971349100       -1.41667906515900       -5.14872135189600      h
      -18.68762375314500       -0.29957342403600       -6.64810130805700      h
       13.85661571719800       -6.91945900812100       -7.22990158647400      o
       12.45871982178500       -6.39703953756400       -8.37209769936100      h
       15.08838328275900       -7.75895133041100       -8.25091541273000      h
        0.00247688080900       -8.60279987541400        6.45797918149400      o
        1.55734530864000       -8.17557488071200        7.36578159197500      h
       -1.36430058030100       -8.38726409804500        7.67970705336100      h
       -3.69567435154000       -9.63780196601800       -5.39319151110200      o
       -3.49845663795200      -10.93481282377900       -4.08919904400300      h
       -2.64267868634400      -10.14155207444100       -6.78242789986900      h
       -3.91558491345600       13.23022580051900        1.80170624036300      o
       -5.72204294511800       13.45914764553600        1.96401846103500      h
       -3.54451838633400       13.44402930182600       -0.00705892898700      h
       11.55353728654200        1.31854821539400       -4.96137021628600      o
       11.43665145134900        1.74912766584100       -3.16876991029400      h
        9.84175771498600        0.96329116050800       -5.57546251363900      h
        2.02670022196300       -6.30377444960500      -13.37830084459800      o
        3.39656621431500       -5.07648525297600      -13.31826937574800      h
        0.55444520688600       -5.31637250871300      -13.79038173919300      h
       -2.99780744395600      -13.71366847717500        2.94047235325300      o
       -1.29584299729700      -13.98746588506100        3.51740783967200      h
       -3.88571800647700      -12.95597419643500        4.36054883991000      h
       14.85622168552700        1.02818014666800      -10.79791913337300      o
       14.36402138292900        2.63591585209100      -10.06796965954300      h
       15.27408773120700       -0.06514755320400       -9.38102805362400      h
       19.44030733444600       -5.75690106203700       -0.91007537946700      o
       17.71564313515700       -6.50014676008600       -0.83729952492700      h
       20.59720825305300       -7.08979457469500       -0.51893514093900      h
       -8.57845814878700      -13.31617972718600       -2.22652803958400      o
       -8.37535111599500      -12.45353633657700       -0.58401424127700      h
       -6.93310429798100      -14.02719788110300       -2.55929061143000      h
      -13.27640265229800        9.67896182613700        2.70999565344100      o
      -12.49389730673600        8.32195009003200        1.73665606152500      h
      -13.26508853819600        9.13543308739300        4.45170338536500      h
      -14.70364549168300       -3.41668948227300      -10.09468193739100      o
      -15.03731393049700       -5.05613458786900       -9.36817773783400      h
      -15.62552225071000       -2.25798974222700       -8.99356386515900      h
      -11.80549930187900       -5.51084930917100       10.54687460795300      o
      -11.97015558435000       -4.33823784415800       11.97261063920200      h
      -13.28052530545200       -5.21248308232300        9.50900158332600      h
      -14.66869725600100        2.75308209540200        2.61859847076600      o
      -15.54608750251300        3.54273789920600        1.19718173623000      h
      -14.81626506815500        0.91571165756400        2.37431593319000      h
        8.39848029335200        7.01367342542300       -9.33345510292700      o
        7.62520910460100        6.35830550636300       -7.75508213278100      h
        8.28886642955900        8.82511109793300       -9.20023722504600      h
       17.81611295901100        6.92047369968200        6.80774320139900      o
       18.20967393440100        8.02458714023400        8.18506962487400      h
       18.36999709265700        5.23655359283600        7.28111156420400      h
        6.62625602090300        5.31868157411000       -5.03445216088800      o
        4.82984930002500        5.55795696152900       -4.63997774224100      h
        7.54551348219300        6.28896925861900       -3.76008558209800      h
       -7.43085480298200        1.24448047181800       13.35653779982900      o
       -7.08717652474300        1.03451504284200       11.55545532455400      h
       -6.21945020105400        0.19983771279200       14.22740587889200      h
       22.46002004867000        4.33814597758800        0.90398593885200      o
       24.23895146779400        4.57283278858200        1.12519077539300      h
       22.21435469222500        3.94207257432000       -0.92991405923200      h
      -10.75607645725400       -4.87215383442600       -6.09214942097100      o
       -9.89458241289500       -6.46095332856900       -5.69564386043300      h
      -12.53536353395100       -5.33659851710200       -6.03607170062400      h
      -15.30427683041400       -7.46624567011800       -6.59588441196400      o
      -14.38929962183200       -9.00617925248700       -6.87153982126900      h
      -16.30012654417500       -7.75797801912300       -5.07019445563500      h
       -4.84129053145600       -4.36193212799800       -6.68774668000700      o
       -5.08966640554400       -5.59344084626800       -8.01338807245800      h
       -5.12439585820400       -5.19362803987500       -5.08074559099500      h
       -1.74830759847800       -2.20404555535900      -12.91753729043500      o
       -0.51014000299300       -0.84752965953200      -13.14761152359400      h
       -3.38205997797400       -1.37880885943600      -12.75145708434300      h
       -0.55628179185200       -8.92702347357100       -9.76937206995600      o
        0.59295475073900       -8.27572831323100      -11.04357020953600      h
       -2.21246318653200       -8.39625637277000      -10.33909509358000      h
       -5.95119640420700        5.89276516020400        9.27751593577500      o
       -6.29950876800700        6.58459429398000        7.62853780451600      h
       -7.57713957531000        5.47500088571500       10.02474828774800      h
      -16.86838845720600        4.75904480778300       -1.46254803938500      o
      -16.85731459303400        6.63087903059200       -1.40034403386900      h
      -15.50563573895800        4.19216127730100       -2.57028166176300      h
       11.00516961821100       -9.30701454083600        6.99846298081700      o
       10.72414000745200       -8.54335192124500        8.65710119440900      h
        9.36902407295400       -9.79263864626400        6.31377896907400      h
       10.28346247739400      -12.38252904707200        1.28537379799700      o
       11.91649368474400      -12.25444109862200        2.07009870114200      h
       10.50643694364300      -11.93225693296000       -0.46167183468900      h
       -6.50573261594800       -0.61496795100400      -11.77926215574700      o
       -7.45604985690400       -2.13755613402600      -11.34504437813500      h
       -7.78414695219500        0.60452575891100      -12.20322146099000      h
       12.34307527160200        9.04872524851100       -4.77598050434000      o
       12.77158576806600        7.66512787246400       -5.92444783870700      h
       13.88964724032200        9.74933373648700       -4.12373535174200      h
        2.61448198246500        3.06146720477000       -8.09043625854200      o
        4.33278476932300        2.61570361602500       -7.60057646071200      h
        1.54956364886100        2.35298289216000       -6.74453143772700      h
        7.23488110014400        2.91302644656300      -12.02865759613300      o
        5.56960063098700        2.99912272760900      -12.75926117800300      h
        7.62696837785500        4.58364389070700      -11.35753232763600      h
      -21.43935274618600        2.98623236947100       -2.17109402584700      o
      -19.74684151828400        3.78268567889700       -2.08486056316900      h
      -22.63699809398500        4.27152085900300       -1.74473154628800      h
       14.95740932594100      -10.23072349083900        3.88216419881700      o
       16.30543250875900       -9.36001398907400        4.74698968470400      h
       13.53674724174700      -10.13370163997600        5.05564009364300      h
       19.53347242774600       -1.57026427704000       -3.98229805396400      o
       19.75423793872000       -3.20094187928600       -3.18426304127300      h
       18.17619036880000       -1.77593655630600       -5.22957461059500      h
        1.35917596515800        7.91124342512400       -8.87590684584600      o
        2.38635890778800        8.97516257898200       -7.76888979753200      h
        1.88026680908400        6.17489102082700       -8.48954534648700      h
        4.51359808204900       -7.45934793626600        8.35512367254800      o
        4.23919467420000       -5.68456524756900        7.83856305862400      h
        5.57813976209000       -8.23374265250900        7.10189039642400      h
        5.83663496008900       11.60122243442600       -0.26974400732900      o
        5.69607520115300       12.10022410713600        1.51117556789900      h
        4.20062468198300       10.95914915977300       -0.77879920388100      h
      -11.87438615994200       -1.46517494610400       13.58706513333500      o
      -10.25154202865800       -0.62847194737700       13.81975857957300      h
      -12.69965839065000       -0.54869552898000       12.23575690119400      h
       -6.90630091663400        6.63553845700000       -7.80019422319800      o
       -6.04860421704400        5.02148266272800       -8.07807284954000      h
       -8.69770503951700        6.35168669303700       -8.05292553765400      h
       18.14648839445600        1.75186907559100        7.49132226505700      o
       19.13449368459300        0.26482241376000        7.78942413870900      h
       16.48670459630100        1.42807103256900        8.29903774323200      h
       12.90265293315900        5.05775074008300       -7.92533907012600      o
       12.29338129155400        3.67785088100700       -6.81307871562700      h
       11.39170835118700        5.70826813098500       -8.77197841513400      h
       -8.65270076628000       -9.39469670314300       -5.35087518707800      o
       -8.95713645121500      -10.88638727144100       -4.28969065753100      h
       -6.86348466844600       -9.53647228321900       -5.81134106499600      h
       -9.55119832379000       -4.72106848809000      -10.98056820034200      o
      -11.16484016225500       -4.61051409597600      -11.80274865306900      h
       -9.93931127029200       -4.76537165259100       -9.15623502113500      h
        1.30675068615000       14.46059088669100        1.95153585870300      o
       -0.25040398315700       14.92555259706400        2.75763722783600      h
        2.62084364282800       14.28699327707300        3.22276911029800      h
      -12.22192277725600        7.52151350041000        7.35616601420100      o
      -11.95909036775300        7.31970803299400        9.14639823922100      h
      -11.53620105293300        5.93856522632900        6.60681583483000      h
       -7.65330926105900        9.04707291636100        5.26095997284500      o
       -9.26070917994500        8.90382821136300        6.13184583404100      h
       -7.98137867791200       10.13425903429800        3.82001521267200      h
        8.30792767871400       11.65709595117500       -6.65825393895400      o
        8.21187768631600       13.26495043607900       -5.75353661493300      h
        9.79954722015100       10.82798898595900       -5.97018463454000      h
      -10.63016446795200        4.54866005787900       11.23355916522200      o
       -9.82667161869400        3.84538806467200       12.71366584611000      h
      -11.38253317007600        3.12305404412100       10.37208807706500      h
        8.90391320556700        7.87040466081300       -1.33335247682400      o
        7.94596997289700        9.44108380923200       -1.04836300599900      h
       10.37938270382200        8.37784757663200       -2.32623074090500      h
       17.73336366589100        3.33323646787100        2.61392826214800      o
       19.44526336694800        3.77518187062700        2.14410984931600      h
       17.79422260094800        2.64806777902700        4.31948720396600      h
       -3.72227827609200        8.18850815962900        0.69631794986800      o
       -4.62026079900000        8.24236050562700       -0.92016909494600      h
       -4.00091772065200        9.84047430288300        1.45148477714300      h
      -12.75717591927500       10.09081568282100       -4.45220289473500      o
      -12.41055063855200        8.96401469689000       -5.87091333195200      h
      -11.49670645938200       11.41402077538300       -4.45696098203500      h
       16.75564435025000        9.57408019120100       -1.97877197028500      o
       17.20689891795400        8.08886152307500       -2.97366167983100      h
       18.02512263338800        9.68094087659800       -0.64370585368700      h
       13.96462265801100        0.61207003263900        9.97731773564900      o
       14.28531703800000       -1.26841677437200       10.06524788385700      h
       14.04028817130200        1.19946942372400       11.68659762571800      h
      -19.23558428965700       -0.42922530590200        6.19127409972200      o
      -18.76305386081800        1.16992011977200        6.92344019676900      h
      -19.03280566534500       -0.22608876182600        4.37840914800500      h
        2.82253139071000       -2.86515832029500        7.60262629747200      o
        3.53173251265600       -1.92698265927000        9.02088416270900      h
        0.97877457659500       -2.81104341218300        7.76081981829700      h
      -13.53962662435600      -11.67073697101000       -1.21591679638700      o
      -12.11877652811500      -12.68997822771100       -1.72362715775100      h
      -13.36122154455400      -11.43862605698500        0.61072536525900      h
        0.33283422042700       -4.95231133363500       12.83037490197500      o
        1.98342971880500       -5.61078231177200       13.25788310253500      h
        0.53803547378400       -3.12313147809900       12.77439342820600      h
       19.79035289800600        8.79777397993300        2.05823310567000      o
       18.95937531782800        8.28658732557800        3.60347465856700      h
       20.91249579054100        7.42446989162000        1.59901639896600      h
        1.90375296795600      -12.56582171879400       -4.09569697004700      o
        3.58921865595700      -13.05241367741300       -4.57271148839600      h
        1.66552130244600      -10.86242275527900       -4.79440183332900      h
       -1.95242924497500        2.75465689587600        8.97127929552400      o
       -1.13561786611900        3.85723006540400        7.74601668446600      h
       -3.57946796939100        3.55885948462700        9.26090450825500      h
        8.55639900248200        6.45307799961000        9.16264770126400      o
       10.09324514076800        6.61428524687500        8.20366780140900      h
        8.41405050814200        4.63383885996900        9.43663180519099      h
       -0.59311488654996        0.80251388289004        0.88216413874567      o
       -0.24202662418129        1.59118817619883       -0.70978838667791      h
        1.00486108863948        0.20596682846121        1.52705212159975      h
       -4.26699803451513        0.93438734061088        4.31016219288564      o
       -5.40733328228900        1.85960770806990        3.21023089000369      h
       -2.82156242977834        0.65623214667663        3.21056877621236      h
$end
 
 Bond Distances (Angstroems)
 ---------------------------
O1-H2=0.9857         O1-H3=0.9750         H2-O1=0.9857         H3-O1=0.9750         O4-H5=0.9686         O4-H6=0.9734         
H5-O4=0.9686         H6-O4=0.9734         O7-H8=0.9807         O7-H9=0.9618         H8-O7=0.9807         H9-O7=0.9618         
O10-H11=0.9662       O10-H12=0.9768       H11-O10=0.9662       H12-O10=0.9768       O13-H14=0.9660       O13-H15=0.9691       
H14-O13=0.9660       H15-O13=0.9691       O16-H17=0.9724       O16-H18=0.9697       H17-O16=0.9724       H18-O16=0.9697       
O19-H20=0.9749       O19-H21=0.9702       H20-O19=0.9749       H21-O19=0.9702       O22-H23=0.9699       O22-H24=0.9677       
H23-O22=0.9699       H24-O22=0.9677       O25-H26=0.9744       O25-H27=0.9747       H26-O25=0.9744       H27-O25=0.9747       
O28-H29=0.9718       O28-H30=0.9721       H29-O28=0.9718       H30-O28=0.9721       O31-H32=0.9855       O31-H33=0.9645       
H32-O31=0.9855       H33-O31=0.9645       O34-H35=0.9794       O34-H36=0.9773       H35-O34=0.9794       H36-O34=0.9773       
O37-H38=0.9705       O37-H39=0.9791       H38-O37=0.9705       H39-O37=0.9791       O40-H41=0.9846       O40-H42=0.9746       
H41-O40=0.9846       H42-O40=0.9746       O43-H44=0.9784       O43-H45=0.9739       H44-O43=0.9784       H45-O43=0.9739       
O46-H47=0.9759       O46-H48=0.9643       H47-O46=0.9759       H48-O46=0.9643       O49-H50=0.9815       O49-H51=0.9797       
H50-O49=0.9815       H51-O49=0.9797       O52-H53=0.9885       O52-H54=0.9749       H53-O52=0.9885       H54-O52=0.9749       
O55-H56=0.9716       O55-H57=0.9912       H56-O55=0.9716       H57-O55=0.9912       O58-H59=0.9769       O58-H60=0.9666       
H59-O58=0.9769       H60-O58=0.9666       O61-H62=0.9605       O61-H63=0.9913       H62-O61=0.9605       H63-O61=0.9913       
O64-H65=0.9762       O64-H66=0.9776       H65-O64=0.9762       H66-O64=0.9776       O67-H68=0.9645       O67-H69=0.9700       
H68-O67=0.9645       H69-O67=0.9700       O70-H71=0.9585       O70-H72=0.9787       H71-O70=0.9585       H72-O70=0.9787       
O73-H74=0.9730       O73-H75=0.9729       H74-O73=0.9730       H75-O73=0.9729       O76-H77=0.9672       O76-H78=0.9705       
H77-O76=0.9672       H78-O76=0.9705       O79-H80=0.9758       O79-H81=0.9718       H80-O79=0.9758       H81-O79=0.9718       
O82-H83=0.9816       O82-H84=0.9700       H83-O82=0.9816       H84-O82=0.9700       O85-H86=0.9807       O85-H87=0.9644       
H86-O85=0.9807       H87-O85=0.9644       O88-H89=0.9874       O88-H90=0.9728       H89-O88=0.9874       H90-O88=0.9728       
O91-H92=0.9763       O91-H93=0.9602       H92-O91=0.9763       H93-O91=0.9602       O94-H95=0.9651       O94-H96=0.9788       
H95-O94=0.9651       H96-O94=0.9788       O97-H98=0.9778       O97-H99=0.9747       H98-O97=0.9778       H99-O97=0.9747       
O100-H101=0.9771     O100-H102=0.9760     H101-O100=0.9771     H102-O100=0.9760     O103-H104=0.9767     O103-H105=0.9621     
H104-O103=0.9767     H105-O103=0.9621     O106-H107=0.9643     O106-H108=0.9717     H107-O106=0.9643     H108-O106=0.9717     
O109-H110=0.9727     O109-H111=0.9928     H110-O109=0.9727     H111-O109=0.9928     O112-H113=0.9763     O112-H114=0.9732     
H113-O112=0.9763     H114-O112=0.9732     O115-H116=0.9773     O115-H117=0.9714     H116-O115=0.9773     H117-O115=0.9714     
O118-H119=0.9855     O118-H120=0.9649     H119-O118=0.9855     H120-O118=0.9649     O121-H122=0.9747     O121-H123=0.9829     
H122-O121=0.9747     H123-O121=0.9829     O124-H125=0.9663     O124-H126=0.9674     H125-O124=0.9663     H126-O124=0.9674     
O127-H128=0.9713     O127-H129=0.9766     H128-O127=0.9713     H129-O127=0.9766     O130-H131=0.9604     O130-H132=0.9793     
H131-O130=0.9604     H132-O130=0.9793     O133-H134=0.9658     O133-H135=0.9729     H134-O133=0.9658     H135-O133=0.9729     
O136-H137=0.9726     O136-H138=0.9625     H137-O136=0.9726     H138-O136=0.9625     O139-H140=0.9932     O139-H141=0.9584     
H140-O139=0.9932     H141-O139=0.9584     O142-H143=0.9685     O142-H144=0.9859     H143-O142=0.9685     H144-O142=0.9859     
O145-H146=0.9644     O145-H147=0.9829     H146-O145=0.9644     H147-O145=0.9829     O148-H149=0.9665     O148-H150=0.9636     
H149-O148=0.9665     H150-O148=0.9636     O151-H152=0.9781     O151-H153=0.9711     H152-O151=0.9781     H153-O151=0.9711     
O154-H155=0.9587     O154-H156=0.9761     H155-O154=0.9587     H156-O154=0.9761     O157-H158=0.9705     O157-H159=0.9859     
H158-O157=0.9705     H159-O157=0.9859     O160-H161=0.9708     O160-H162=0.9754     H161-O160=0.9708     H162-O160=0.9754     
O163-H164=0.9763     O163-H165=0.9769     H164-O163=0.9763     H165-O163=0.9769     O166-H167=0.9783     O166-H168=0.9746     
H167-O166=0.9783     H168-O166=0.9746     O169-H170=0.9637     O169-H171=0.9884     H170-O169=0.9637     H171-O169=0.9884     
O172-H173=0.9879     O172-H174=0.9765     H173-O172=0.9879     H174-O172=0.9765     O175-H176=0.9709     O175-H177=0.9724     
H176-O175=0.9709     H177-O175=0.9724     O178-H179=0.9637     O178-H180=0.9799     H179-O178=0.9637     H180-O178=0.9799     
O181-H182=0.9794     O181-H183=0.9644     H182-O181=0.9794     H183-O181=0.9644     O184-H185=0.9843     O184-H186=0.9819     
H185-O184=0.9843     H186-O184=0.9819     O187-H188=0.9729     O187-H189=0.9770     H188-O187=0.9729     H189-O187=0.9770     
O190-H191=0.9685     O190-H192=0.9724     H191-O190=0.9685     H192-O190=0.9724     O193-H194=0.9778     O193-H195=0.9716     
H194-O193=0.9778     H195-O193=0.9716     O196-H197=0.9775     O196-H198=0.9807     H197-O196=0.9775     H198-O196=0.9807     
O199-H200=0.9817     O199-H201=0.9691     H200-O199=0.9817     H201-O199=0.9691     O202-H203=0.9661     O202-H204=0.9631     
H203-O202=0.9661     H204-O202=0.9631     O205-H206=0.9805     O205-H207=0.9609     H206-O205=0.9805     H207-O205=0.9609     
O208-H209=0.9768     O208-H210=0.9775     H209-O208=0.9768     H210-O208=0.9775     O211-H212=0.9934     O211-H213=0.9784     
H212-O211=0.9934     H213-O211=0.9784     O214-H215=0.9647     O214-H216=0.9782     H215-O214=0.9647     H216-O214=0.9782     
O217-H218=0.9735     O217-H219=0.9828     H218-O217=0.9735     H219-O217=0.9828     O220-H221=0.9875     O220-H222=0.9627     
H221-O220=0.9875     H222-O220=0.9627     O223-H224=0.9702     O223-H225=0.9654     H224-O223=0.9702     H225-O223=0.9654     
O226-H227=0.9810     O226-H228=0.9712     H227-O226=0.9810     H228-O226=0.9712     O229-H230=0.9840     O229-H231=0.9600     
H230-O229=0.9840     H231-O229=0.9600     O232-H233=0.9701     O232-H234=0.9670     H233-O232=0.9701     H234-O232=0.9670     
O235-H236=0.9630     O235-H237=0.9779     H236-O235=0.9630     H237-O235=0.9779     O238-H239=0.9681     O238-H240=0.9720     
H239-O238=0.9681     H240-O238=0.9720     O241-H242=0.9884     O241-H243=0.9688     H242-O241=0.9884     H243-O241=0.9688     
O244-H245=0.9701     O244-H246=0.9844     H245-O244=0.9701     H246-O244=0.9844     O247-H248=0.9809     O247-H249=0.9682     
H248-O247=0.9809     H249-O247=0.9682     O250-H251=0.9864     O250-H252=0.9769     H251-O250=0.9864     H252-O250=0.9769     
O253-H254=0.9742     O253-H255=0.9567     H254-O253=0.9742     H255-O253=0.9567     O256-H257=0.9715     O256-H258=0.9797     
H257-O256=0.9715     H258-O256=0.9797     O259-H260=0.9728     O259-H261=0.9656     H260-O259=0.9728     H261-O259=0.9656     
O262-H263=0.9690     O262-H264=0.9759     H263-O262=0.9690     H264-O262=0.9759     O265-H266=0.9591     O265-H267=0.9700     
H266-O265=0.9591     H267-O265=0.9700     O268-H269=0.9688     O268-H270=0.9732     H269-O268=0.9688     H270-O268=0.9732     
O271-H272=0.9745     O271-H273=0.9818     H272-O271=0.9745     H273-O271=0.9818     O274-H275=0.9781     O274-H276=0.9772     
H275-O274=0.9781     H276-O274=0.9772     O277-H278=0.9681     O277-H279=0.9835     H278-O277=0.9681     H279-O277=0.9835     
O280-H281=0.9893     O280-H282=0.9571     H281-O280=0.9893     H282-O280=0.9571     O283-H284=0.9808     O283-H285=0.9653     
H284-O283=0.9808     H285-O283=0.9653     O286-H287=0.9662     O286-H288=0.9665     H287-O286=0.9662     H288-O286=0.9665     
O289-H290=0.9638     O289-H291=0.9697     H290-O289=0.9638     H291-O289=0.9697     O292-H293=0.9721     O292-H294=0.9838     
H293-O292=0.9721     H294-O292=0.9838     O295-H296=0.9711     O295-H297=0.9652     H296-O295=0.9711     H297-O295=0.9652     
O298-H299=0.9806     O298-H300=0.9628     H299-O298=0.9806     H300-O298=0.9628     O301-H302=0.9645     O301-H303=0.9846     
H302-O301=0.9645     H303-O301=0.9846     O304-H305=0.9743     O304-H306=0.9774     H305-O304=0.9743     H306-O304=0.9774     
[...]
   157   8 o      159   1 h                                       0.9859011
   160   8 o      161   1 h                                       0.9707966
   160   8 o      162   1 h                                       0.9754069
   163   8 o      164   1 h                                       0.9762688
   163   8 o      165   1 h                                       0.9769465
   166   8 o      167   1 h                                       0.9782642
   166   8 o      168   1 h                                       0.9745588
   169   8 o      170   1 h                                       0.9637345
   169   8 o      171   1 h                                       0.9883868
   172   8 o      173   1 h                                       0.9879266
   172   8 o      174   1 h                                       0.9764642
   175   8 o      176   1 h                                       0.9708565
   175   8 o      177   1 h                                       0.9723845
   178   8 o      179   1 h                                       0.9636604
   178   8 o      180   1 h                                       0.9799251
   181   8 o      182   1 h                                       0.9793740
   181   8 o      183   1 h                                       0.9644367
   184   8 o      185   1 h                                       0.9843261
   184   8 o      186   1 h                                       0.9818691
   187   8 o      188   1 h                                       0.9729207
   187   8 o      189   1 h                                       0.9770122
   190   8 o      191   1 h                                       0.9684587
   190   8 o      192   1 h                                       0.9724313
   193   8 o      194   1 h                                       0.9777854
   193   8 o      195   1 h                                       0.9715688
   196   8 o      197   1 h                                       0.9775331
   196   8 o      198   1 h                                       0.9806535
   199   8 o      200   1 h                                       0.9817101
   199   8 o      201   1 h                                       0.9690523
   202   8 o      203   1 h                                       0.9660859
   202   8 o      204   1 h                                       0.9631499
   205   8 o      206   1 h                                       0.9804878
   205   8 o      207   1 h                                       0.9609255
   208   8 o      209   1 h                                       0.9767507
   208   8 o      210   1 h                                       0.9774606
   211   8 o      212   1 h                                       0.9933945
   211   8 o      213   1 h                                       0.9784243
   214   8 o      215   1 h                                       0.9646873
   214   8 o      216   1 h                                       0.9782037
   217   8 o      218   1 h                                       0.9734549
   217   8 o      219   1 h                                       0.9828098
   220   8 o      221   1 h                                       0.9874969
   220   8 o      222   1 h                                       0.9626882
   223   8 o      224   1 h                                       0.9701786
   223   8 o      225   1 h                                       0.9653720
   226   8 o      227   1 h                                       0.9810186
   226   8 o      228   1 h                                       0.9712054
   229   8 o      230   1 h                                       0.9840137
   229   8 o      231   1 h                                       0.9600307
   232   8 o      233   1 h                                       0.9700551
   232   8 o      234   1 h                                       0.9670293
   235   8 o      236   1 h                                       0.9630174
   235   8 o      237   1 h                                       0.9778778
   238   8 o      239   1 h                                       0.9680523
   238   8 o      240   1 h                                       0.9720309
   241   8 o      242   1 h                                       0.9884041
   241   8 o      243   1 h                                       0.9687751
   244   8 o      245   1 h                                       0.9700761
   244   8 o      246   1 h                                       0.9844243
   247   8 o      248   1 h                                       0.9808626
   247   8 o      249   1 h                                       0.9682437
   250   8 o      251   1 h                                       0.9864323
   250   8 o      252   1 h                                       0.9769318
   253   8 o      254   1 h                                       0.9741552
   253   8 o      255   1 h                                       0.9566616
   256   8 o      257   1 h                                       0.9714613
   256   8 o      258   1 h                                       0.9796855
   259   8 o      260   1 h                                       0.9727877
   259   8 o      261   1 h                                       0.9655703
   262   8 o      263   1 h                                       0.9689707
   262   8 o      264   1 h                                       0.9758932
   265   8 o      266   1 h                                       0.9590681
   265   8 o      267   1 h                                       0.9699953
   268   8 o      269   1 h                                       0.9688237
   268   8 o      270   1 h                                       0.9731680
   271   8 o      272   1 h                                       0.9744867
   271   8 o      273   1 h                                       0.9818058
   274   8 o      275   1 h                                       0.9781232
   274   8 o      276   1 h                                       0.9772046
   277   8 o      278   1 h                                       0.9681180
   277   8 o      279   1 h                                       0.9834579
   280   8 o      281   1 h                                       0.9893079
   280   8 o      282   1 h                                       0.9571264
   283   8 o      284   1 h                                       0.9808153
   283   8 o      285   1 h                                       0.9653209
   286   8 o      287   1 h                                       0.9661899
   286   8 o      288   1 h                                       0.9664718
   289   8 o      290   1 h                                       0.9637903
   289   8 o      291   1 h                                       0.9696899
   292   8 o      293   1 h                                       0.9720697
   292   8 o      294   1 h                                       0.9837939
   295   8 o      296   1 h                                       0.9710506
   295   8 o      297   1 h                                       0.9652379
   298   8 o      299   1 h                                       0.9806084
   298   8 o      300   1 h                                       0.9627574
   301   8 o      302   1 h                                       0.9644925
   301   8 o      303   1 h                                       0.9845732
   304   8 o      305   1 h                                       0.9743135
   304   8 o      306   1 h                                       0.9773528
   307   8 o      308   1 h                                       0.9615073
   307   8 o      309   1 h                                       0.9759283
   310   8 o      311   1 h                                       0.9705295
   310   8 o      312   1 h                                       0.9760769
   313   8 o      314   1 h                                       0.9795921
   313   8 o      315   1 h                                       0.9653258
   316   8 o      317   1 h                                       0.9844064
   316   8 o      318   1 h                                       0.9754307
   319   8 o      320   1 h                                       0.9557368 (min)
   319   8 o      321   1 h                                       0.9941700
   322   8 o      323   1 h                                       0.9714684
   322   8 o      324   1 h                                       0.9819605
   325   8 o      326   1 h                                       0.9643684
   325   8 o      327   1 h                                       0.9739623
   328   8 o      329   1 h                                       0.9709999
   328   8 o      330   1 h                                       0.9676111
   331   8 o      332   1 h                                       0.9722012
   331   8 o      333   1 h                                       0.9868503
   334   8 o      335   1 h                                       0.9943656
   334   8 o      336   1 h                                       0.9901406
   337   8 o      338   1 h                                       0.9944657
   337   8 o      339   1 h                                       0.9561089
   340   8 o      341   1 h                                       0.9792271
   340   8 o      342   1 h                                       0.9767809
   343   8 o      344   1 h                                       0.9788390
   343   8 o      345   1 h                                       0.9602113
   346   8 o      347   1 h                                       0.9674022
   346   8 o      348   1 h                                       0.9836199
   349   8 o      350   1 h                                       0.9775434
   349   8 o      351   1 h                                       0.9805508
   352   8 o      353   1 h                                       0.9737977
   352   8 o      354   1 h                                       0.9630893
   355   8 o      356   1 h                                       0.9619538
   355   8 o      357   1 h                                       0.9727515
   358   8 o      359   1 h                                       0.9699837
   358   8 o      360   1 h                                       0.9725290
   361   8 o      362   1 h                                       0.9945404
   361   8 o      363   1 h                                       0.9566283
   364   8 o      365   1 h                                       0.9876293
   364   8 o      366   1 h                                       0.9647102
   367   8 o      368   1 h                                       0.9759247
   367   8 o      369   1 h                                       0.9655270
   370   8 o      371   1 h                                       0.9652117
   370   8 o      372   1 h                                       0.9764579
   373   8 o      374   1 h                                       0.9807430
   373   8 o      375   1 h                                       0.9673824
   376   8 o      377   1 h                                       0.9777322
   376   8 o      378   1 h                                       0.9839539
   379   8 o      380   1 h                                       0.9926435
   379   8 o      381   1 h                                       0.9629090
   382   8 o      383   1 h                                       0.9570628
   382   8 o      384   1 h                                       0.9709288
   385   8 o      386   1 h                                       0.9814690
   385   8 o      387   1 h                                       0.9772606
   388   8 o      389   1 h                                       0.9766293
   388   8 o      390   1 h                                       0.9637988
   391   8 o      392   1 h                                       0.9567148
   394   8 o      395   1 h                                       0.9791456
   394   8 o      396   1 h                                       0.9735590
   397   8 o      398   1 h                                       0.9590474
   397   8 o      399   1 h                                       0.9764079
   400   8 o      401   1 h                                       0.9664738
   400   8 o      402   1 h                                       0.9691776
   403   8 o      404   1 h                                       0.9794967
   403   8 o      405   1 h                                       0.9725560
   406   8 o      407   1 h                                       0.9712257
   406   8 o      408   1 h                                       0.9684428
   409   8 o      410   1 h                                       0.9640730
   409   8 o      411   1 h                                       0.9723874
   412   8 o      413   1 h                                       0.9910962
   412   8 o      414   1 h                                       0.9765472
   415   8 o      416   1 h                                       0.9776525
   415   8 o      417   1 h                                       0.9731101
   418   8 o      419   1 h                                       0.9611512
   418   8 o      420   1 h                                       0.9619725
   421   8 o      422   1 h                                       0.9771775
   421   8 o      423   1 h                                       0.9614802
   424   8 o      425   1 h                                       0.9781824
   424   8 o      426   1 h                                       0.9624861
   427   8 o      428   1 h                                       0.9744957
   427   8 o      429   1 h                                       0.9825414
   430   8 o      431   1 h                                       0.9633865
   430   8 o      432   1 h                                       0.9750519
   433   8 o      434   1 h                                       0.9909003
   433   8 o      435   1 h                                       0.9566415
   436   8 o      437   1 h                                       0.9646750
   436   8 o      438   1 h                                       0.9764345
   439   8 o      440   1 h                                       0.9677879
   439   8 o      441   1 h                                       0.9815082
   442   8 o      443   1 h                                       0.9775489
   442   8 o      444   1 h                                       0.9808684
   445   8 o      446   1 h                                       0.9888659
   445   8 o      447   1 h                                       0.9618122
   448   8 o      449   1 h                                       0.9815396
   448   8 o      450   1 h                                       0.9682534
   451   8 o      452   1 h                                       0.9740084
   451   8 o      453   1 h                                       0.9681258
   454   8 o      455   1 h                                       0.9783393
   454   8 o      456   1 h                                       0.9690699
   457   8 o      458   1 h                                       0.9578440
   457   8 o      459   1 h                                       0.9917143
   460   8 o      461   1 h                                       0.9917604
   460   8 o      462   1 h                                       0.9790387
   463   8 o      464   1 h                                       0.9820387
   463   8 o      465   1 h                                       0.9805390
   466   8 o      467   1 h                                       0.9601386
   466   8 o      468   1 h                                       0.9872789
   469   8 o      470   1 h                                       0.9599456
   469   8 o      471   1 h                                       0.9718741
   472   8 o      473   1 h                                       0.9634424
   472   8 o      474   1 h                                       0.9952845 (max)
   475   8 o      476   1 h                                       0.9703870
   475   8 o      477   1 h                                       0.9708528
   478   8 o      479   1 h                                       0.9776090
   478   8 o      480   1 h                                       0.9737130
   481   8 o      482   1 h                                       0.9657895
   481   8 o      483   1 h                                       0.9671854
   484   8 o      485   1 h                                       0.9851665
   484   8 o      486   1 h                                       0.9786655
   487   8 o      488   1 h                                       0.9680684
   487   8 o      489   1 h                                       0.9731815
   490   8 o      491   1 h                                       0.9789498
   490   8 o      492   1 h                                       0.9724356
   493   8 o      494   1 h                                       0.9761232
   493   8 o      495   1 h                                       0.9670601
   496   8 o      497   1 h                                       0.9756557
   496   8 o      498   1 h                                       0.9765286
   499   8 o      501   1 h                                       0.9572700
   502   8 o      503   1 h                                       0.9637157
   502   8 o      504   1 h                                       0.9712764
   505   8 o      506   1 h                                       0.9749788
   505   8 o      507   1 h                                       0.9796775
   508   8 o      509   1 h                                       0.9635441
   508   8 o      510   1 h                                       0.9789530
   511   8 o      512   1 h                                       0.9672244
   511   8 o      513   1 h                                       0.9744825
   514   8 o      515   1 h                                       0.9670498
   514   8 o      516   1 h                                       0.9694274
   517   8 o      518   1 h                                       0.9620421
   517   8 o      519   1 h                                       0.9824060
   520   8 o      521   1 h                                       0.9734729
   520   8 o      522   1 h                                       0.9725753
   523   8 o      524   1 h                                       0.9623938
   523   8 o      525   1 h                                       0.9764663
   526   8 o      527   1 h                                       0.9583198
   526   8 o      528   1 h                                       0.9649727
   529   8 o      530   1 h                                       0.9708991
   529   8 o      531   1 h                                       0.9722702

 * 1 distinct bonds (by element types)

   Z      Z             #   av. dist./Å        max./Å        min./Å
   1 H    8 O         352     0.9734639     0.9952845     0.9557368


optimized geometry written to: xtbopt.coord


           -------------------------------------------------
          | TOTAL ENERGY             -901.186691347180 Eh   |
          | GRADIENT NORM               0.010006848255 Eh/α |
          | HOMO-LUMO GAP               6.434259369509 eV   |
           -------------------------------------------------

------------------------------------------------------------------------
 * finished run on 2022/11/17 at 06:50:45.270     
------------------------------------------------------------------------
 total:
 * wall-time:     0 d,  0 h,  1 min, 57.287 sec
 *  cpu-time:     0 d,  0 h,  3 min,  1.367 sec
 * ratio c/w:     1.546 speedup
 SCF:
 * wall-time:     0 d,  0 h,  0 min,  8.440 sec
 *  cpu-time:     0 d,  0 h,  0 min, 13.299 sec
 * ratio c/w:     1.576 speedup
 ANC optimizer:
 * wall-time:     0 d,  0 h,  1 min, 48.186 sec
 *  cpu-time:     0 d,  0 h,  2 min, 47.015 sec
 * ratio c/w:     1.544 speedup

