      -----------------------------------------------------------      
     |                   =====================                   |     
     |                           x T B                           |     
     |                   =====================                   |     
     |                         S. Grimme                         |     
     |          Mulliken Center for Theoretical Chemistry        |     
     |                    University of Bonn                     |     
      -----------------------------------------------------------      

   * xtb version 6.5.1 (579679a) compiled by 'ehlert@majestix' on 2022-07-11

   xtb is free software: you can redistribute it and/or modify it under
   the terms of the GNU Lesser General Public License as published by
   the Free Software Foundation, either version 3 of the License, or
   (at your option) any later version.
   
   xtb is distributed in the hope that it will be useful,
   but WITHOUT ANY WARRANTY; without even the implied warranty of
   MERCHANTABILITY or FITNESS FOR A PARTICULAR PURPOSE.  See the
   GNU Lesser General Public License for more details.
   
   Cite this work as:
   * C. Bannwarth, E. Caldeweyher, S. Ehlert, A. Hansen, P. Pracht,
     J. Seibert, S. Spicher, S. Grimme, WIREs Comput. Mol. Sci., 2020, 11,
     e01493. DOI: 10.1002/wcms.1493
   
   for GFN2-xTB:
   * C. Bannwarth, S. Ehlert and S. Grimme., J. Chem. Theory Comput., 2019,
     15, 1652-1671. DOI: 10.1021/acs.jctc.8b01176
   for GFN1-xTB:
   * S. Grimme, C. Bannwarth, P. Shushkov, J. Chem. Theory Comput., 2017,
     13, 1989-2009. DOI: 10.1021/acs.jctc.7b00118
   for GFN0-xTB:
   * P. Pracht, E. Caldeweyher, S. Ehlert, S. Grimme, ChemRxiv, 2019, preprint.
     DOI: 10.26434/chemrxiv.8326202.v1
   for GFN-FF:
   * S. Spicher and S. Grimme, Angew. Chem. Int. Ed., 2020, 59, 15665-15673.
     DOI: 10.1002/anie.202004239
   
   for ALPB and GBSA implicit solvation:
   * S. Ehlert, M. Stahn, S. Spicher, S. Grimme, J. Chem. Theory Comput.,
     2021, 17, 4250-4261. DOI: 10.1021/acs.jctc.1c00471
   
   for DFT-D4:
   * E. Caldeweyher, C. Bannwarth and S. Grimme, J. Chem. Phys., 2017,
     147, 034112. DOI: 10.1063/1.4993215
   * E. Caldeweyher, S. Ehlert, A. Hansen, H. Neugebauer, S. Spicher,
     C. Bannwarth and S. Grimme, J. Chem. Phys., 2019, 150, 154122.
     DOI: 10.1063/1.5090222
   * E. Caldeweyher, J.-M. Mewes, S. Ehlert and S. Grimme, Phys. Chem. Chem. Phys.
     2020, 22, 8499-8512. DOI: 10.1039/D0CP00502A
   
   for sTDA-xTB:
   * S. Grimme and C. Bannwarth, J. Chem. Phys., 2016, 145, 054103.
     DOI: 10.1063/1.4959605
   
   in the mass-spec context:
   * V. Asgeirsson, C. Bauer and S. Grimme, Chem. Sci., 2017, 8, 4879.
     DOI: 10.1039/c7sc00601b
   * J. Koopman and S. Grimme, ACS Omega 2019, 4, 12, 15120-15133.
     DOI: 10.1021/acsomega.9b02011
   
   for metadynamics refer to:
   * S. Grimme, J. Chem. Theory Comput., 2019, 155, 2847-2862
     DOI: 10.1021/acs.jctc.9b00143
   
   for SPH calculations refer to:
   * S. Spicher and S. Grimme, J. Chem. Theory Comput., 2021, 17, 1701-1714
     DOI: 10.1021/acs.jctc.0c01306
   
   with help from (in alphabetical order)
   P. Atkinson, C. Bannwarth, F. Bohle, G. Brandenburg, E. Caldeweyher
   M. Checinski, S. Dohm, S. Ehlert, S. Ehrlich, I. Gerasimov, C. Hölzer
   A. Katbashev, J. Koopman, C. Lavigne, S. Lehtola, F. März, M. Müller,
   F. Musil, H. Neugebauer, J. Pisarek, C. Plett, P. Pracht, F. Pultar,
   J. Seibert, P. Shushkov, S. Spicher, M. Stahn, M. Steiner, T. Strunk,
   J. Stückrath, T. Rose, and J. Unsleber
   
 * started run on 2022/11/17 at 06:54:59.737     

           -------------------------------------------------
          |                Calculation Setup                |
           -------------------------------------------------

          program call               : xtb solvent_cluster.coord --gfn2 --sp --lmo --chrg 0
          hostname                   : cn0363
          coordinate file            : solvent_cluster.coord
          omp threads                :                     2

   ID    Z sym.   atoms
    1    8 o      1, 4, 7, 10, 13, 16, 19, 22, 25, 28, 31, 34, 37, 40, 43,
                  46, 49, 52, 55, 58, 61, 64, 67, 70, 73, 76, 79, 82, 85, 88,
                  91, 94, 97, 100, 103, 106, 109, 112, 115, 118, 121, 124,
                  127, 130, 133, 136, 139, 142, 145, 148, 151, 154, 157, 160,
                  163, 166, 169, 172, 175, 178, 181, 184, 187, 190, 193, 196,
                  199, 202, 205, 208, 211, 214, 217, 220, 223, 226, 229, 232,
                  235, 238, 241, 244, 247, 250, 253, 256, 259, 262, 265, 268,
                  271, 274, 277, 280, 283, 286, 289, 292, 295, 298, 301, 304,
                  307, 310, 313, 316, 319, 322, 325, 328, 331, 334, 337, 340,
                  343, 346, 349, 352, 355, 358, 361, 364, 367, 370, 373, 376,
                  379, 382, 385, 388, 391, 394, 397, 400, 403, 406, 409, 412,
                  415, 418, 421, 424, 427, 430, 433, 436, 439, 442, 445, 448,
                  451, 454, 457, 460, 463, 466, 469, 472, 475, 478, 481, 484,
                  487, 490, 493, 496, 499, 502, 505, 508, 511, 514, 517, 520,
                  523, 526, 529
    2    1 h      2, 3, 5, 6, 8, 9, 11, 12, 14, 15, 17, 18, 20, 21, 23, 24,
                  26, 27, 29, 30, 32, 33, 35, 36, 38, 39, 41, 42, 44, 45, 47,
                  48, 50, 51, 53, 54, 56, 57, 59, 60, 62, 63, 65, 66, 68, 69,
                  71, 72, 74, 75, 77, 78, 80, 81, 83, 84, 86, 87, 89, 90, 92,
                  93, 95, 96, 98, 99, 101, 102, 104, 105, 107, 108, 110, 111,
                  113, 114, 116, 117, 119, 120, 122, 123, 125, 126, 128, 129,
                  131, 132, 134, 135, 137, 138, 140, 141, 143, 144, 146, 147,
                  149, 150, 152, 153, 155, 156, 158, 159, 161, 162, 164, 165,
                  167, 168, 170, 171, 173, 174, 176, 177, 179, 180, 182, 183,
                  185, 186, 188, 189, 191, 192, 194, 195, 197, 198, 200, 201,
                  203, 204, 206, 207, 209, 210, 212, 213, 215, 216, 218, 219,
                  221, 222, 224, 225, 227, 228, 230, 231, 233, 234, 236, 237,
                  239, 240, 242, 243, 245, 246, 248, 249, 251, 252, 254, 255,
                  257, 258, 260, 261, 263, 264, 266, 267, 269, 270, 272, 273,
                  275, 276, 278, 279, 281, 282, 284, 285, 287, 288, 290, 291,
                  293, 294, 296, 297, 299, 300, 302, 303, 305, 306, 308, 309,
                  311, 312, 314, 315, 317, 318, 320, 321, 323, 324, 326, 327,
                  329, 330, 332, 333, 335, 336, 338, 339, 341, 342, 344, 345,
                  347, 348, 350, 351, 353, 354, 356, 357, 359, 360, 362, 363,
                  365, 366, 368, 369, 371, 372, 374, 375, 377, 378, 380, 381,
                  383, 384, 386, 387, 389, 390, 392, 393, 395, 396, 398, 399,
                  401, 402, 404, 405, 407, 408, 410, 411, 413, 414, 416, 417,
                  419, 420, 422, 423, 425, 426, 428, 429, 431, 432, 434, 435,
                  437, 438, 440, 441, 443, 444, 446, 447, 449, 450, 452, 453,
                  455, 456, 458, 459, 461, 462, 464, 465, 467, 468, 470, 471,
                  473, 474, 476, 477, 479, 480, 482, 483, 485, 486, 488, 489,
                  491, 492, 494, 495, 497, 498, 500, 501, 503, 504, 506, 507,
                  509, 510, 512, 513, 515, 516, 518, 519, 521, 522, 524, 525,
                  527, 528, 530, 531

molecular fragmentation (1/2 indicates fragments):
111222222222222222222222222222222222222222222222222222222222222222222222
222222222222222222222222222222222222222222222222222222222222222222222222
222222222222222222222222222222222222222222222222222222222222222222222222
222222222222222222222222222222222222222222222222222222222222222222222222
222222222222222222222222222222222222222222222222222222222222222222222222
222222222222222222222222222222222222222222222222222222222222222222222222
222222222222222222222222222222222222222222222222222222222222222222222222
222222222222222222222222222
# atoms in fragment 1/2:     3   528
 fragment masses (1/2) :       18.02     3170.69
CMA distance (Bohr)    :   4.927
constraining FC (au)   :  0.0500

           -------------------------------------------------
          |                 G F N 2 - x T B                 |
           -------------------------------------------------

        Reference                      10.1021/acs.jctc.8b01176
      * Hamiltonian:
        H0-scaling (s, p, d)           1.850000    2.230000    2.230000
        zeta-weighting                 0.500000
      * Dispersion:
        s8                             2.700000
        a1                             0.520000
        a2                             5.000000
        s9                             5.000000
      * Repulsion:
        kExp                           1.500000    1.000000
        rExp                           1.000000
      * Coulomb:
        alpha                          2.000000
        third order                    shell-resolved
        anisotropic                    true
        a3                             3.000000
        a5                             4.000000
        cn-shift                       1.200000
        cn-exp                         4.000000
        max-rad                        5.000000


          ...................................................
          :                      SETUP                      :
          :.................................................:
          :  # basis functions                1062          :
          :  # atomic orbitals                1062          :
          :  # shells                          708          :
          :  # electrons                      1416          :
          :  max. iterations                   250          :
          :  Hamiltonian                  GFN2-xTB          :
          :  restarted?                      false          :
          :  GBSA solvation                  false          :
          :  PC potential                    false          :
          :  electronic temp.          300.0000000     K    :
          :  accuracy                    1.0000000          :
          :  -> integral cutoff          0.2500000E+02      :
          :  -> integral neglect         0.1000000E-07      :
          :  -> SCF convergence          0.1000000E-05 Eh   :
          :  -> wf. convergence          0.1000000E-03 e    :
          :  Broyden damping             0.4000000          :
          ...................................................

 iter      E             dE          RMSdq      gap      omega  full diag
   1   -906.5577546 -0.906558E+03  0.406E+00    8.52       0.0  T
   2   -906.6157279 -0.579733E-01  0.241E+00    7.57       1.0  T
   3   -906.6385371 -0.228092E-01  0.214E-01    6.02       1.0  T
   4   -906.6425304 -0.399333E-02  0.464E-02    6.46       1.0  T
   5   -906.6425964 -0.659247E-04  0.313E-02    6.40       1.0  T
   6   -906.6426264 -0.300703E-04  0.424E-03    6.44       1.0  T
   7   -906.6426281 -0.170564E-05  0.754E-04    6.43       5.8  T
   8   -906.6426282 -0.212640E-07  0.377E-04    6.43      11.5  T
   9   -906.6426282 -0.966554E-08  0.640E-05    6.43      67.8  T

   *** convergence criteria satisfied after 9 iterations ***

         #    Occupation            Energy/Eh            Energy/eV
      -------------------------------------------------------------
         1        2.0000           -0.7032903             -19.1375
       ...           ...                  ...                  ...
       702        2.0000           -0.3480240              -9.4702
       703        2.0000           -0.3461828              -9.4201
       704        2.0000           -0.3429355              -9.3318
       705        2.0000           -0.3369009              -9.1675
       706        2.0000           -0.3273355              -8.9073
       707        2.0000           -0.3211008              -8.7376
       708        2.0000           -0.3159210              -8.5966 (HOMO)
       709                         -0.0794694              -2.1625 (LUMO)
       710                         -0.0737109              -2.0058
       711                         -0.0540337              -1.4703
       712                         -0.0443843              -1.2078
       713                         -0.0426332              -1.1601
       ...                                ...                  ...
      1062                          0.5146583              14.0046
      -------------------------------------------------------------
                  HL-Gap            0.2364517 Eh            6.4342 eV
             Fermi-level           -0.1976952 Eh           -5.3796 eV
 
 localization/xTB-IFF output generation
 averaging CT terms over            2  occ. levels
 averaging CT terms over            2  virt. levels
 dipole moment from electron density (au)
     X       Y       Z   
   4.2542   1.1805  -2.4484  total (Debye):   12.832
cpu  time for init local    0.43 s
wall time for init local    0.21 s
 doing rotations ...
 initialization of trafo matrix to unity

 converged in     16 iterations, threshold :   0.99993944D-06
 doing transformations ...
 lmo centers(Z=2) and atoms on file <lmocent.coord>
 LMO Fii/eV  ncent    charge center   contributions...
    1 LP   *******   0.00  -1.55898  -3.95869   3.43382    4O :  7.95   76O :  5.82  442O :  4.71  406O :  4.67   31O :  4.67   46O :  3.88  124O :  3.82  409O :  3.75   16O :  3.74  283O :  3.68  223O :  3.65   43O :  3.14
  496O :  3.13    7O :  3.11  304O :  2.86  115O :  2.84   73O :  2.75   58O :  2.65   55O :  2.58   25O :  2.50  202O :  2.36  247O :  2.32   13O :  2.28  376O :  2.27
  232O :  2.25  160O :  2.24  310O :  2.17    1O :  2.16  241O :  2.08  286O :  2.07  103O :  2.00  235O :  1.96  307O :  1.91  355O :  1.91  490O :  1.88  184O :  1.87
  205O :  1.85  424O :  1.84  196O :  1.83   79O :  1.79   82O :  1.77  277O :  1.74  163O :  1.68  325O :  1.68  346O :  1.67  526O :  1.67  226O :  1.63  199O :  1.62
  478O :  1.61  508O :  1.59  520O :  1.56   85O :  1.54  388O :  1.51  331O :  1.46  400O :  1.44  220O :  1.44  481O :  1.44   52O :  1.43  172O :  1.40  427O :  1.40
   64O :  1.39  244O :  1.38  253O :  1.36   28O :  1.36  457O :  1.32  208O :  1.31  484O :  1.30  370O :  1.29  493O :  1.23  475O :  1.22  445O :  1.22  280O :  1.18
  394O :  1.16  328O :  1.14  322O :  1.13  292O :  1.13  385O :  1.10  106O :  1.08  118O :  1.08  229O :  1.08  145O :  1.07  418O :  1.07  121O :  1.05   19O :  1.04
  214O :  1.04  238O :  1.03  268O :  1.03  142O :  1.02  217O :  1.02  148O :  1.00   94O :  0.97   37O :  0.95  403O :  0.94  337O :  0.92  472O :  0.91   78H :  0.91
  154O :  0.87  499O :  0.85  211O :  0.79  397O :  0.78  190O :  0.75   34O :  0.74  271O :  0.74  316O :  0.73  373O :  0.73  511O :  0.72  289O :  0.72  361O :  0.72
  265O :  0.70   32H :  0.68  415O :  0.68   88O :  0.68   61O :  0.67  487O :  0.66  430O :  0.64  166O :  0.64  259O :  0.64  412O :  0.63  529O :  0.62  313O :  0.62
  436O :  0.61  256O :  0.61  448O :  0.61  358O :  0.60  505O :  0.60   49O :  0.59  298O :  0.59  100O :  0.59  133O :  0.58  502O :  0.57  391O :  0.57   97O :  0.56
  340O :  0.56  349O :  0.56  451O :  0.55  523O :  0.53  274O :  0.53  151O :  0.53  139O :  0.52  301O :  0.51  262O :  0.50  175O :  0.50   67O :  0.48  410H :  0.47
  136O :  0.47  236H :  0.46  379O :  0.45  181O :  0.44  433O :  0.42  454O :  0.40    6H :  0.39  495H :  0.38  295O :  0.35  367O :  0.35  250O :  0.35  309H :  0.35
  157O :  0.35  319O :  0.35  231H :  0.33  135H :  0.31  169O :  0.30  193O :  0.30  375H :  0.30  402H :  0.30   45H :  0.30  306H :  0.29  243H :  0.29  109O :  0.29
   70O :  0.27  327H :  0.26  463O :  0.26  130O :  0.26  178O :  0.25  446H :  0.25  460O :  0.24  187O :  0.22    9H :  0.22   38H :  0.22  240H :  0.21  173H :  0.21
   66H :  0.21  352O :  0.20  395H :  0.20   91O :  0.20   84H :  0.20  364O :  0.20  506H :  0.20  411H :  0.19  443H :  0.19   20H :  0.19  525H :  0.19  382O :  0.18
  398H :  0.18   48H :  0.18  248H :  0.18  517O :  0.18  449H :  0.17  377H :  0.17  164H :  0.17  216H :  0.17  101H :  0.16  343O :  0.16  426H :  0.16  242H :  0.16
  176H :  0.16  469O :  0.15  438H :  0.15   14H :  0.15  389H :  0.15  237H :  0.15   26H :  0.15  381H :  0.14  249H :  0.14  419H :  0.14   12H :  0.14  150H :  0.14
   63H :  0.14  227H :  0.14  272H :  0.14  503H :  0.14  275H :  0.14  104H :  0.13  447H :  0.13  252H :  0.13  120H :  0.13  348H :  0.13  285H :  0.13   53H :  0.13
  305H :  0.13  119H :  0.12   57H :  0.12   22O :  0.12  347H :  0.12  356H :  0.12   30H :  0.12   81H :  0.11  273H :  0.11   40O :  0.11  341H :  0.11  311H :  0.11
  420H :  0.11  156H :  0.11  491H :  0.10  416H :  0.10  321H :  0.10  314H :  0.10   29H :  0.10   10O :  0.10  333H :  0.10  219H :  0.10  138H :  0.10  125H :  0.10
  132H :  0.10   68H :  0.10  317H :  0.10   62H :  0.10  127O :  0.10  284H :  0.10  107H :  0.10  225H :  0.10   89H :  0.09  421O :  0.09  291H :  0.09  112O :  0.09
  453H :  0.09  257H :  0.09  303H :  0.09   56H :  0.08  482H :  0.08   50H :  0.08  439O :  0.08  492H :  0.08  514O :  0.08   80H :  0.08  297H :  0.07  393H :  0.07
  116H :  0.07  204H :  0.07  518H :  0.07
    2 LP   *******   0.00   6.50989   3.09454  -4.28677   76O :  6.67    4O :  4.15  442O :  3.86   31O :  3.83  406O :  3.82   46O :  3.18  124O :  3.13  409O :  3.07   16O :  3.06  283O :  3.01  223O :  2.99   43O :  2.57
  496O :  2.56    7O :  2.55  304O :  2.34  115O :  2.32   73O :  2.25   58O :  2.19   55O :  2.10   25O :  2.05  202O :  1.93  247O :  1.90   13O :  1.87  376O :  1.86
  232O :  1.84  160O :  1.83   78H :  1.80  310O :  1.78    1O :  1.77  241O :  1.70  286O :  1.70  103O :  1.64  235O :  1.60  307O :  1.56  355O :  1.56  490O :  1.54
  184O :  1.53  205O :  1.51  424O :  1.51  196O :  1.50   79O :  1.47   82O :  1.45  277O :  1.42  163O :  1.38  325O :  1.38  346O :  1.37  526O :  1.37  226O :  1.34
  199O :  1.32  478O :  1.31  508O :  1.30  520O :  1.28   85O :  1.26  388O :  1.23  331O :  1.19  400O :  1.18  220O :  1.18  481O :  1.18   52O :  1.17  172O :  1.15
  427O :  1.14   64O :  1.14  244O :  1.13  253O :  1.12   28O :  1.12  457O :  1.08  208O :  1.07  484O :  1.06  370O :  1.05  493O :  1.01  475O :  1.00  445O :  1.00
  280O :  0.97  394O :  0.95  328O :  0.93  322O :  0.93  292O :  0.92  106O :  0.88  118O :  0.88  229O :  0.88  145O :  0.88  418O :  0.88  121O :  0.88  214O :  0.85
  268O :  0.85   19O :  0.84  217O :  0.84  142O :  0.84  385O :  0.83  238O :  0.82  148O :  0.81   94O :  0.80   37O :  0.78  403O :  0.77  337O :  0.75  472O :  0.75
  154O :  0.71  499O :  0.69  211O :  0.65  397O :  0.64  190O :  0.61   34O :  0.60  316O :  0.60  373O :  0.60  271O :  0.60  511O :  0.59  289O :  0.59  361O :  0.59
  265O :  0.58   32H :  0.56  415O :  0.56   88O :  0.56   61O :  0.55  487O :  0.54  430O :  0.53  259O :  0.52  166O :  0.52  412O :  0.52  529O :  0.51  313O :  0.50
  436O :  0.50  256O :  0.50  448O :  0.50  358O :  0.49  505O :  0.49   49O :  0.49  100O :  0.48  298O :  0.48  133O :  0.47  502O :  0.47  391O :  0.46   97O :  0.46
  349O :  0.45  451O :  0.45  340O :  0.45  523O :  0.44  274O :  0.44  151O :  0.43  139O :  0.43  301O :  0.42  262O :  0.41  175O :  0.41   67O :  0.39    6H :  0.39
  410H :  0.39  136O :  0.39  236H :  0.38  379O :  0.37  181O :  0.36  433O :  0.34  454O :  0.32  495H :  0.31  295O :  0.29  367O :  0.29  250O :  0.29  309H :  0.29
  157O :  0.28  319O :  0.28  231H :  0.27  135H :  0.25  169O :  0.25  193O :  0.25  375H :  0.25  402H :  0.24   45H :  0.24  306H :  0.24  243H :  0.24  109O :  0.23
   70O :  0.22  327H :  0.21  463O :  0.21  130O :  0.21  178O :  0.21  446H :  0.20  460O :  0.20  187O :  0.18   38H :  0.18  240H :  0.17  173H :  0.17    9H :  0.17
   66H :  0.17  352O :  0.17  395H :  0.17   91O :  0.16   84H :  0.16  364O :  0.16  506H :  0.16  411H :  0.16  443H :  0.16  525H :  0.15  382O :  0.15  398H :  0.15
   48H :  0.15  248H :  0.15  517O :  0.15  449H :  0.14  377H :  0.14  164H :  0.14  216H :  0.14   20H :  0.13  101H :  0.13  343O :  0.13  426H :  0.13  242H :  0.13
  176H :  0.13  469O :  0.13   12H :  0.12  438H :  0.12   14H :  0.12  389H :  0.12  237H :  0.12   26H :  0.12  381H :  0.12  419H :  0.12  150H :  0.12   63H :  0.11
  227H :  0.11  249H :  0.11  272H :  0.11  503H :  0.11  275H :  0.11  104H :  0.11  447H :  0.11  252H :  0.11  120H :  0.11  348H :  0.11  285H :  0.10   53H :  0.10
  305H :  0.10  119H :  0.10   57H :  0.10   22O :  0.10  347H :  0.10  356H :  0.10   30H :  0.10   81H :  0.09   40O :  0.09  273H :  0.09  341H :  0.09  311H :  0.09
  420H :  0.09  156H :  0.09   10O :  0.09  491H :  0.09  416H :  0.08  321H :  0.08  314H :  0.08   29H :  0.08  333H :  0.08  219H :  0.08  138H :  0.08  125H :  0.08
   68H :  0.08  132H :  0.08  317H :  0.08   62H :  0.08  127O :  0.08  284H :  0.08  107H :  0.08  225H :  0.08   89H :  0.08  421O :  0.07  291H :  0.07  112O :  0.07
  453H :  0.07  257H :  0.07  303H :  0.07
    3 LP   *******   0.00  -2.66349  -3.31580  -2.32554   31O :  5.66   76O :  4.41    4O :  3.84  442O :  3.57  406O :  3.54   46O :  2.94  124O :  2.90  409O :  2.84   16O :  2.84  283O :  2.79  223O :  2.77   43O :  2.38
  496O :  2.38    7O :  2.36  304O :  2.17  115O :  2.15   73O :  2.09   58O :  2.01   55O :  1.95   25O :  1.90  202O :  1.79  247O :  1.76   13O :  1.73  376O :  1.72
  232O :  1.71  160O :  1.70  310O :  1.66  241O :  1.57  286O :  1.57    1O :  1.52  103O :  1.52  235O :  1.48  307O :  1.45  355O :  1.45  490O :  1.42  184O :  1.42
   32H :  1.42  205O :  1.40  424O :  1.40  196O :  1.39   79O :  1.36   82O :  1.34  277O :  1.32  526O :  1.28  163O :  1.28  325O :  1.27  346O :  1.27  226O :  1.24
  199O :  1.23  478O :  1.22  508O :  1.20  520O :  1.19   85O :  1.16  388O :  1.14  331O :  1.11  400O :  1.10  220O :  1.09  481O :  1.09   52O :  1.08  172O :  1.06
  427O :  1.06   64O :  1.05  244O :  1.04  253O :  1.03   28O :  1.03  457O :  1.00  208O :  0.99  484O :  0.98  370O :  0.98  493O :  0.94  475O :  0.92  445O :  0.92
  280O :  0.90  394O :  0.88  328O :  0.86  322O :  0.86  292O :  0.86  385O :  0.83  106O :  0.82  229O :  0.82  118O :  0.82  145O :  0.81  418O :  0.81  121O :  0.81
  214O :  0.79  238O :  0.78  268O :  0.78   19O :  0.78  217O :  0.78  142O :  0.78  148O :  0.75   94O :  0.74   37O :  0.72  403O :  0.71  337O :  0.70  472O :  0.69
   78H :  0.69  154O :  0.66  499O :  0.64  211O :  0.60  397O :  0.59  190O :  0.57   34O :  0.56  316O :  0.56  373O :  0.55  271O :  0.55  511O :  0.55  289O :  0.55
  361O :  0.54  265O :  0.53  415O :  0.52   88O :  0.51   61O :  0.51  487O :  0.50  430O :  0.49  166O :  0.48  259O :  0.48  412O :  0.48  529O :  0.47  313O :  0.47
  436O :  0.47  256O :  0.46  448O :  0.46  358O :  0.46  505O :  0.45   49O :  0.45  100O :  0.45  298O :  0.45  133O :  0.44  502O :  0.43  391O :  0.43   97O :  0.43
  349O :  0.42  451O :  0.42  340O :  0.42  523O :  0.40  274O :  0.40  151O :  0.40  139O :  0.39  301O :  0.39  262O :  0.38  175O :  0.38   67O :  0.36    6H :  0.36
  410H :  0.36  136O :  0.36  236H :  0.35  379O :  0.34  181O :  0.34  433O :  0.32  454O :  0.30  495H :  0.29  295O :  0.27  367O :  0.27  250O :  0.27  309H :  0.27
  157O :  0.26  319O :  0.26  231H :  0.25  135H :  0.23  169O :  0.23  193O :  0.23  375H :  0.23   45H :  0.22  306H :  0.22  243H :  0.22  109O :  0.22   70O :  0.21
  402H :  0.21  463O :  0.20  327H :  0.20  130O :  0.19  178O :  0.19  446H :  0.19  460O :  0.18  187O :  0.17    9H :  0.16   38H :  0.16  240H :  0.16  173H :  0.16
  352O :  0.15  395H :  0.15   84H :  0.15   91O :  0.15  364O :  0.15  506H :  0.15  411H :  0.15  443H :  0.15  525H :  0.14  382O :  0.14  398H :  0.14   48H :  0.14
  248H :  0.14  517O :  0.14  449H :  0.13  377H :  0.13  164H :  0.13   66H :  0.13  216H :  0.13   20H :  0.12  101H :  0.12  343O :  0.12  426H :  0.12  242H :  0.12
  176H :  0.12  469O :  0.12  438H :  0.12   14H :  0.11  389H :  0.11  237H :  0.11   26H :  0.11  381H :  0.11  249H :  0.11   12H :  0.11  419H :  0.11  150H :  0.11
   63H :  0.11  227H :  0.11  272H :  0.10  503H :  0.10  275H :  0.10  104H :  0.10  447H :  0.10   53H :  0.10  252H :  0.10  120H :  0.10  348H :  0.10  285H :  0.10
  305H :  0.09  119H :  0.09   57H :  0.09   22O :  0.09  347H :  0.09  356H :  0.09   30H :  0.09   81H :  0.09   40O :  0.09  273H :  0.09  341H :  0.08  311H :  0.08
  420H :  0.08  156H :  0.08  491H :  0.08  416H :  0.08  321H :  0.08  314H :  0.08   29H :  0.08   10O :  0.08  219H :  0.08  333H :  0.08  138H :  0.07  125H :  0.07
   68H :  0.07  132H :  0.07  317H :  0.07   62H :  0.07  127O :  0.07  284H :  0.07  107H :  0.07  225H :  0.07   89H :  0.07
    4 LP   *******   0.00  -4.24703  14.49381  -3.84538   46O :  5.26   76O :  4.04    4O :  3.52  442O :  3.27   31O :  3.25  406O :  3.24  124O :  2.65  409O :  2.60   16O :  2.60  283O :  2.56  223O :  2.54   43O :  2.19
  496O :  2.18    7O :  2.16  304O :  1.99  115O :  1.97   73O :  1.91   58O :  1.84   55O :  1.79   25O :  1.74  202O :  1.64  247O :  1.61   13O :  1.59  376O :  1.58
  232O :  1.56  160O :  1.56  310O :  1.51    1O :  1.50  241O :  1.44  286O :  1.44  103O :  1.39  235O :  1.36  307O :  1.33  355O :  1.33  184O :  1.30  490O :  1.30
  205O :  1.28  424O :  1.28  196O :  1.27   79O :  1.24   82O :  1.23  277O :  1.21  346O :  1.17  163O :  1.17  325O :  1.17  526O :  1.16  226O :  1.14  199O :  1.12
  478O :  1.12  508O :  1.10  520O :  1.09   85O :  1.07  388O :  1.05  331O :  1.01  400O :  1.00  220O :  1.00  481O :  1.00   52O :  0.99  172O :  0.97  427O :  0.97
   64O :  0.97  244O :  0.96  253O :  0.95   28O :  0.95  457O :  0.92  208O :  0.91  484O :  0.90  370O :  0.89  493O :  0.86  475O :  0.85  445O :  0.85  280O :  0.82
  394O :  0.81  328O :  0.79  322O :  0.79  292O :  0.78  385O :  0.76  118O :  0.75  106O :  0.75  229O :  0.75  145O :  0.75  418O :  0.74  121O :  0.74  214O :  0.72
  238O :  0.72  268O :  0.72   19O :  0.72  217O :  0.71  142O :  0.71  148O :  0.69   94O :  0.67   37O :  0.67  403O :  0.65  337O :  0.64  472O :  0.64   78H :  0.63
  154O :  0.60  499O :  0.59  211O :  0.55  397O :  0.54  190O :  0.52   34O :  0.51  316O :  0.51  373O :  0.51  271O :  0.51  511O :  0.50  289O :  0.50  361O :  0.50
  265O :  0.49   32H :  0.48  415O :  0.47   88O :  0.47   61O :  0.47  487O :  0.46  430O :  0.45  166O :  0.44  259O :  0.44  412O :  0.44  529O :  0.43  313O :  0.43
  436O :  0.43  256O :  0.42  448O :  0.42  358O :  0.42  505O :  0.41   49O :  0.41  100O :  0.41  298O :  0.41  133O :  0.40  502O :  0.40  391O :  0.39   97O :  0.39
  349O :  0.39  451O :  0.38  340O :  0.38  523O :  0.37  274O :  0.37  151O :  0.36  139O :  0.36  301O :  0.35  262O :  0.35  175O :  0.34   67O :  0.33    6H :  0.33
  410H :  0.33  136O :  0.32  236H :  0.32  379O :  0.31  181O :  0.31  433O :  0.29  454O :  0.27  495H :  0.27  295O :  0.25  367O :  0.25  250O :  0.24  309H :  0.24
  157O :  0.24  319O :  0.24  231H :  0.23  135H :  0.22  169O :  0.21  193O :  0.21  375H :  0.21  402H :  0.21   45H :  0.21  306H :  0.20  243H :  0.20  109O :  0.20
   70O :  0.19  327H :  0.18  463O :  0.18  130O :  0.18  178O :  0.17  446H :  0.17  460O :  0.17  187O :  0.15   38H :  0.15    9H :  0.15  240H :  0.15  173H :  0.15
   66H :  0.14  352O :  0.14  395H :  0.14   91O :  0.14   84H :  0.14  364O :  0.14  506H :  0.14  411H :  0.14  443H :  0.13  525H :  0.13  382O :  0.13  398H :  0.13
  517O :  0.12  248H :  0.12  449H :  0.12  377H :  0.12  164H :  0.12  216H :  0.12   20H :  0.11  101H :  0.11  343O :  0.11  426H :  0.11  242H :  0.11  176H :  0.11
   48H :  0.11  469O :  0.11  438H :  0.11   14H :  0.11  389H :  0.10  237H :  0.10   26H :  0.10  381H :  0.10  249H :  0.10  419H :  0.10   12H :  0.10  150H :  0.10
  227H :  0.10   62H :  0.10  272H :  0.10  503H :  0.09  275H :  0.09  104H :  0.09  447H :  0.09   63H :  0.09  348H :  0.09  120H :  0.09  252H :  0.09  285H :  0.09
   53H :  0.09  305H :  0.09  119H :  0.09  347H :  0.08   57H :  0.08   22O :  0.08  356H :  0.08   30H :  0.08   81H :  0.08   40O :  0.08  273H :  0.08  341H :  0.08
  311H :  0.08  420H :  0.08  156H :  0.08  416H :  0.07  321H :  0.07  491H :  0.07  314H :  0.07
    5 LP   *******   0.00 -14.34773  -3.03838   7.28619  283O :  5.20   76O :  3.95    4O :  3.44  442O :  3.20   31O :  3.17  406O :  3.17   46O :  2.63  124O :  2.59  409O :  2.54   16O :  2.54  223O :  2.48   43O :  2.13
  496O :  2.12    7O :  2.11  304O :  1.94  115O :  1.92   73O :  1.87   58O :  1.80   55O :  1.75   25O :  1.70  202O :  1.60  247O :  1.57   13O :  1.56  376O :  1.54
  232O :  1.53  160O :  1.52  310O :  1.47    1O :  1.47  241O :  1.41  286O :  1.41  103O :  1.36  235O :  1.33  307O :  1.30  355O :  1.29  490O :  1.27  184O :  1.27
  205O :  1.25  424O :  1.25  196O :  1.24   79O :  1.21   82O :  1.20  277O :  1.18  163O :  1.14  325O :  1.14  346O :  1.13  526O :  1.13  226O :  1.11  199O :  1.10
  478O :  1.09  508O :  1.08  520O :  1.06   85O :  1.04  388O :  1.02  400O :  0.98  220O :  0.98  331O :  0.98  481O :  0.98   52O :  0.97  172O :  0.95  427O :  0.95
   64O :  0.94  244O :  0.93  253O :  0.92   28O :  0.92  457O :  0.90  208O :  0.89  484O :  0.88  370O :  0.87  493O :  0.84  475O :  0.83  445O :  0.83  280O :  0.80
  394O :  0.79  328O :  0.77  292O :  0.76  322O :  0.76  385O :  0.74  106O :  0.73  118O :  0.73  229O :  0.73  145O :  0.73  418O :  0.73  121O :  0.73  214O :  0.70
  238O :  0.70  268O :  0.70   19O :  0.70  142O :  0.69  217O :  0.69  148O :  0.67   94O :  0.66   37O :  0.65  403O :  0.64  337O :  0.62  472O :  0.62   78H :  0.62
  154O :  0.59  499O :  0.57  211O :  0.54  397O :  0.53  190O :  0.51   34O :  0.50  373O :  0.50  316O :  0.50  271O :  0.49  511O :  0.49  289O :  0.49  361O :  0.49
  265O :  0.48   32H :  0.47  415O :  0.46   88O :  0.46   61O :  0.45  487O :  0.44  430O :  0.43  166O :  0.43  259O :  0.43  412O :  0.43  529O :  0.42  313O :  0.42
  436O :  0.42  256O :  0.41  448O :  0.41  358O :  0.41  505O :  0.40   49O :  0.40  100O :  0.40  298O :  0.40  133O :  0.39  391O :  0.38   97O :  0.38  502O :  0.38
  349O :  0.38  451O :  0.37  340O :  0.37  523O :  0.36  274O :  0.36  151O :  0.36  139O :  0.35  301O :  0.35  262O :  0.34  175O :  0.34   67O :  0.33    6H :  0.32
  410H :  0.32  136O :  0.32  236H :  0.31  379O :  0.30  181O :  0.30  433O :  0.28  454O :  0.27  495H :  0.26  375H :  0.26  295O :  0.24  367O :  0.24  250O :  0.24
  309H :  0.24  157O :  0.23  319O :  0.23  231H :  0.23  135H :  0.21  169O :  0.21  193O :  0.21  402H :  0.20   45H :  0.20  306H :  0.20  243H :  0.20  109O :  0.19
   70O :  0.19  327H :  0.18  463O :  0.18  130O :  0.17  178O :  0.17  446H :  0.17  460O :  0.16  187O :  0.15    9H :  0.15   38H :  0.15  240H :  0.14  173H :  0.14
   66H :  0.14  352O :  0.14  395H :  0.14   91O :  0.14   84H :  0.14  364O :  0.14  506H :  0.13  411H :  0.13  443H :  0.13  525H :  0.13  382O :  0.12  398H :  0.12
   48H :  0.12  517O :  0.12  248H :  0.12  449H :  0.12  377H :  0.12  164H :  0.12  216H :  0.11   20H :  0.11  101H :  0.11  343O :  0.11  426H :  0.11  242H :  0.11
  176H :  0.11  469O :  0.10  438H :  0.10   14H :  0.10  389H :  0.10  237H :  0.10   26H :  0.10  381H :  0.10  249H :  0.10  419H :  0.10   12H :  0.10  150H :  0.10
   63H :  0.09  227H :  0.09  272H :  0.09  275H :  0.09  503H :  0.09  104H :  0.09  447H :  0.09  252H :  0.09  120H :  0.09  348H :  0.09   53H :  0.09  305H :  0.08
  119H :  0.08   57H :  0.08   22O :  0.08  347H :  0.08  356H :  0.08   30H :  0.08   81H :  0.08   40O :  0.08  273H :  0.08  341H :  0.08  311H :  0.08  420H :  0.08
  285H :  0.08  156H :  0.07  491H :  0.07
    6 LP   *******   0.00 -10.48950   0.86262 -12.06554  223O :  4.99   76O :  3.71    4O :  3.24  442O :  3.01   31O :  2.98  406O :  2.98   46O :  2.48  124O :  2.44  409O :  2.39   16O :  2.39  283O :  2.35   43O :  2.01
  496O :  2.00    7O :  1.99  304O :  1.83  115O :  1.81   73O :  1.75   58O :  1.69   55O :  1.65   25O :  1.60  202O :  1.51  247O :  1.48   13O :  1.46  376O :  1.45
  232O :  1.44  160O :  1.43  310O :  1.39    1O :  1.38  241O :  1.33  286O :  1.32  103O :  1.28  235O :  1.25  307O :  1.22  355O :  1.22  490O :  1.20  184O :  1.20
  205O :  1.18  424O :  1.18  196O :  1.17   79O :  1.14   82O :  1.13  277O :  1.11  163O :  1.07  325O :  1.07  526O :  1.07  346O :  1.07  226O :  1.04  199O :  1.03
  478O :  1.03  508O :  1.01  520O :  1.00   85O :  0.98  388O :  0.96  331O :  0.93  400O :  0.92  220O :  0.92  481O :  0.92   52O :  0.91  172O :  0.89  427O :  0.89
   64O :  0.89  244O :  0.88   28O :  0.87  253O :  0.85  457O :  0.84  370O :  0.84  208O :  0.83  484O :  0.83  493O :  0.79  475O :  0.78  445O :  0.78  280O :  0.76
  394O :  0.74  328O :  0.73  322O :  0.72  292O :  0.72  385O :  0.70  106O :  0.69  118O :  0.69  229O :  0.69  145O :  0.69  418O :  0.68  121O :  0.68  214O :  0.66
  238O :  0.66  268O :  0.66   19O :  0.66  142O :  0.65  217O :  0.65  148O :  0.64   94O :  0.62   37O :  0.61  403O :  0.60  337O :  0.59  472O :  0.58   78H :  0.58
  154O :  0.55  499O :  0.54  211O :  0.51  397O :  0.50  190O :  0.48   34O :  0.47  316O :  0.47  373O :  0.47  271O :  0.46  511O :  0.46  289O :  0.46  361O :  0.46
  265O :  0.45   32H :  0.44  415O :  0.44   88O :  0.43   61O :  0.43  487O :  0.42  430O :  0.41  259O :  0.41  166O :  0.41  412O :  0.40  529O :  0.40  313O :  0.39
  436O :  0.39  256O :  0.39  448O :  0.39  358O :  0.39  505O :  0.38   49O :  0.38  100O :  0.38  298O :  0.38  133O :  0.37  502O :  0.36  391O :  0.36   97O :  0.36
  349O :  0.35  451O :  0.35  340O :  0.35  523O :  0.34  274O :  0.34  151O :  0.34  139O :  0.33  301O :  0.33  262O :  0.32  175O :  0.32   67O :  0.31    6H :  0.31
  410H :  0.30  136O :  0.30  236H :  0.30  379O :  0.29  181O :  0.28  433O :  0.27  454O :  0.25  495H :  0.24  367O :  0.23  309H :  0.22  250O :  0.22  157O :  0.22
  319O :  0.22  295O :  0.22  231H :  0.21  135H :  0.20  169O :  0.19  193O :  0.19  375H :  0.19  402H :  0.19   45H :  0.19  306H :  0.18  243H :  0.18  109O :  0.18
   70O :  0.18  327H :  0.17  463O :  0.17  130O :  0.16  178O :  0.16  446H :  0.16  460O :  0.15  187O :  0.14    9H :  0.14   38H :  0.14  240H :  0.14  173H :  0.13
   66H :  0.13  352O :  0.13  395H :  0.13   91O :  0.13  364O :  0.13   84H :  0.13  506H :  0.13  411H :  0.12  443H :  0.12  525H :  0.12  382O :  0.12  398H :  0.12
   48H :  0.12  517O :  0.11  248H :  0.11  449H :  0.11  377H :  0.11  164H :  0.11  216H :  0.11   20H :  0.10  101H :  0.10  343O :  0.10  426H :  0.10  242H :  0.10
  176H :  0.10  469O :  0.10  438H :  0.10   14H :  0.10  389H :  0.10  237H :  0.10   26H :  0.09  381H :  0.09  249H :  0.09  419H :  0.09   12H :  0.09  150H :  0.09
   63H :  0.09  227H :  0.09  272H :  0.09  503H :  0.09  275H :  0.09  104H :  0.09  447H :  0.08  252H :  0.08  120H :  0.08  348H :  0.08  285H :  0.08   53H :  0.08
  305H :  0.08  119H :  0.08   57H :  0.08   22O :  0.08  347H :  0.08  356H :  0.08   30H :  0.08   81H :  0.07   40O :  0.07  273H :  0.07  341H :  0.07  311H :  0.07
  420H :  0.07
    7 LP   *******   0.01  -0.40746   8.14488  -8.27357  442O :  4.77   76O :  3.44    4O :  3.00   31O :  2.77  406O :  2.77   46O :  2.30  124O :  2.26  409O :  2.22   16O :  2.21  283O :  2.18  223O :  2.16   43O :  1.86
  496O :  1.86    7O :  1.84  304O :  1.70  115O :  1.68   73O :  1.63   58O :  1.57   55O :  1.53   25O :  1.48  202O :  1.40  247O :  1.37   13O :  1.35  376O :  1.34
  232O :  1.33  160O :  1.33  310O :  1.29    1O :  1.28  241O :  1.23  286O :  1.23  103O :  1.19  235O :  1.16  307O :  1.13  355O :  1.13  490O :  1.11  184O :  1.11
  205O :  1.09  424O :  1.09  196O :  1.08   79O :  1.06   82O :  1.05  277O :  1.03  163O :  1.00  325O :  1.00  346O :  0.99  526O :  0.99  226O :  0.97  199O :  0.96
  478O :  0.95  508O :  0.94  520O :  0.93   85O :  0.91  388O :  0.89  331O :  0.86  400O :  0.85  220O :  0.85  481O :  0.85  427O :  0.85   52O :  0.85  172O :  0.83
   64O :  0.82  244O :  0.82  253O :  0.81   28O :  0.81  457O :  0.78  208O :  0.77  484O :  0.77  370O :  0.76  493O :  0.73  475O :  0.72  445O :  0.72  280O :  0.70
  394O :  0.69  328O :  0.67  322O :  0.67  292O :  0.67  385O :  0.65  118O :  0.64  106O :  0.64  229O :  0.64  145O :  0.64  418O :  0.64  121O :  0.63  214O :  0.61
  238O :  0.61  268O :  0.61   19O :  0.61  217O :  0.61  142O :  0.61  148O :  0.59   94O :  0.58   37O :  0.56  403O :  0.56  337O :  0.54  472O :  0.54   78H :  0.54
  154O :  0.51  499O :  0.50  211O :  0.47  397O :  0.46  190O :  0.44   34O :  0.44  316O :  0.43  373O :  0.43  271O :  0.43  511O :  0.43  289O :  0.43  361O :  0.42
  265O :  0.42   32H :  0.41  415O :  0.40   88O :  0.40   61O :  0.40  487O :  0.39  430O :  0.38  259O :  0.38  166O :  0.38  412O :  0.37  529O :  0.37  313O :  0.36
  436O :  0.36  256O :  0.36  448O :  0.36  358O :  0.36  505O :  0.35   49O :  0.35  100O :  0.35  298O :  0.35  133O :  0.34  502O :  0.34  391O :  0.34   97O :  0.33
  349O :  0.33  451O :  0.33  340O :  0.33  523O :  0.32  274O :  0.32  151O :  0.31  139O :  0.31  301O :  0.30  262O :  0.30  175O :  0.29   67O :  0.28    6H :  0.28
  410H :  0.28  136O :  0.28  236H :  0.27  379O :  0.27  181O :  0.26  433O :  0.25  454O :  0.23  495H :  0.23  295O :  0.21  367O :  0.21  250O :  0.21  309H :  0.21
  157O :  0.20  319O :  0.20  231H :  0.20  135H :  0.18  169O :  0.18  193O :  0.18  375H :  0.18  402H :  0.18  119H :  0.18   45H :  0.17  306H :  0.17  243H :  0.17
  109O :  0.17   70O :  0.16  327H :  0.16  463O :  0.16  130O :  0.15  178O :  0.15  446H :  0.15  460O :  0.14  187O :  0.13    9H :  0.13   38H :  0.13  240H :  0.13
  173H :  0.12   66H :  0.12  352O :  0.12  395H :  0.12   91O :  0.12   84H :  0.12  364O :  0.12  506H :  0.12  411H :  0.12  525H :  0.11  382O :  0.11  398H :  0.11
   48H :  0.11  248H :  0.11  517O :  0.11  449H :  0.10  377H :  0.10  164H :  0.10  216H :  0.10   20H :  0.10  101H :  0.10  343O :  0.10  426H :  0.09  242H :  0.09
  176H :  0.09  469O :  0.09  438H :  0.09   14H :  0.09  389H :  0.09  237H :  0.09  443H :  0.09   26H :  0.09  249H :  0.09  381H :  0.08  419H :  0.08   12H :  0.08
  150H :  0.08   63H :  0.08  227H :  0.08  272H :  0.08  503H :  0.08  275H :  0.08  104H :  0.08  120H :  0.08  447H :  0.08  252H :  0.08  348H :  0.08  285H :  0.07
   53H :  0.07  305H :  0.07   57H :  0.07   22O :  0.07  347H :  0.07  356H :  0.07   30H :  0.07
    8 LP   *******   0.01  -4.28544   4.37019  -3.05722   43O :  4.01   76O :  3.41    4O :  2.98  442O :  2.76   31O :  2.76  406O :  2.74   46O :  2.28  124O :  2.24  409O :  2.20   16O :  2.19  283O :  2.16  223O :  2.14
  496O :  1.84    7O :  1.83  304O :  1.68  115O :  1.66   73O :  1.57   58O :  1.55   55O :  1.51   25O :  1.47  202O :  1.39  247O :  1.36   13O :  1.34  376O :  1.33
  232O :  1.32  160O :  1.31  310O :  1.28    1O :  1.27  241O :  1.22  286O :  1.22  103O :  1.17  235O :  1.15  307O :  1.12  355O :  1.12  490O :  1.10  184O :  1.10
  205O :  1.08  424O :  1.08  196O :  1.07   79O :  1.05   82O :  1.05  277O :  1.02  163O :  0.99  325O :  0.99  526O :  0.98  346O :  0.98  226O :  0.96  199O :  0.95
  478O :  0.94  508O :  0.93  520O :  0.92   85O :  0.90  388O :  0.88  331O :  0.86  400O :  0.85  220O :  0.85  481O :  0.84   52O :  0.84  172O :  0.82  427O :  0.82
   64O :  0.81  244O :  0.81  253O :  0.80   28O :  0.80  457O :  0.77  208O :  0.77  484O :  0.76  370O :  0.76  493O :  0.72  475O :  0.72  445O :  0.72  280O :  0.69
  394O :  0.68  328O :  0.67  118O :  0.67  322O :  0.67  292O :  0.66  385O :  0.64  106O :  0.63  229O :  0.63  145O :  0.63  418O :  0.63  121O :  0.63  214O :  0.61
  238O :  0.61  268O :  0.61   19O :  0.61  142O :  0.60  217O :  0.60  148O :  0.59   94O :  0.57   37O :  0.56  403O :  0.55  337O :  0.54  472O :  0.54   78H :  0.54
  154O :  0.51  499O :  0.50  211O :  0.46  397O :  0.46  190O :  0.44   34O :  0.43  316O :  0.43  373O :  0.43  271O :  0.43  511O :  0.42  289O :  0.42  361O :  0.42
  265O :  0.41   32H :  0.40  415O :  0.40   88O :  0.40   61O :  0.39  487O :  0.38  430O :  0.38  166O :  0.37  259O :  0.37  412O :  0.37  529O :  0.36  313O :  0.36
  436O :  0.36  133O :  0.36  448O :  0.36  256O :  0.36  358O :  0.35  505O :  0.35   49O :  0.35  100O :  0.35  298O :  0.35  502O :  0.33  391O :  0.33   97O :  0.33
  349O :  0.33  451O :  0.32  340O :  0.32  523O :  0.31  274O :  0.31  151O :  0.31  139O :  0.30  301O :  0.30  262O :  0.30  175O :  0.29   67O :  0.28    6H :  0.28
  410H :  0.28  136O :  0.28  236H :  0.27  379O :  0.26  181O :  0.26  433O :  0.24  454O :  0.23  495H :  0.22  135H :  0.22  295O :  0.21  367O :  0.21  250O :  0.21
  309H :  0.21  157O :  0.20  319O :  0.20  231H :  0.20  169O :  0.18  193O :  0.18  375H :  0.18  402H :  0.18  306H :  0.17  243H :  0.17  109O :  0.17   70O :  0.16
  327H :  0.15  463O :  0.15  130O :  0.15  178O :  0.15  446H :  0.15  460O :  0.14   45H :  0.14  187O :  0.13    9H :  0.13   66H :  0.13   38H :  0.13  240H :  0.12
  173H :  0.12  352O :  0.12  395H :  0.12   84H :  0.12   91O :  0.12  364O :  0.12  506H :  0.11  411H :  0.11  443H :  0.11  525H :  0.11  382O :  0.11  398H :  0.11
   48H :  0.11  517O :  0.10  248H :  0.10  449H :  0.10  377H :  0.10  164H :  0.10  216H :  0.10   20H :  0.10  101H :  0.09  343O :  0.09  426H :  0.09  242H :  0.09
  176H :  0.09  469O :  0.09  438H :  0.09   14H :  0.09  389H :  0.09  237H :  0.09   26H :  0.09  381H :  0.09  249H :  0.08  419H :  0.08   12H :  0.08  150H :  0.08
   63H :  0.08  227H :  0.08  272H :  0.08  503H :  0.08  275H :  0.08  104H :  0.08  447H :  0.08  252H :  0.08  348H :  0.08  120H :  0.08  285H :  0.07   53H :  0.07
  305H :  0.07   57H :  0.07   22O :  0.07  347H :  0.07
    9 LP   *******   0.01  -0.49432 -10.65492  -9.76211  406O :  4.73   76O :  3.30    4O :  2.88  442O :  2.67   31O :  2.65   46O :  2.20  124O :  2.17  409O :  2.12   16O :  2.12  283O :  2.09  223O :  2.07   43O :  1.78
  496O :  1.78    7O :  1.76  304O :  1.62  115O :  1.61   73O :  1.56   58O :  1.50   55O :  1.46   25O :  1.42  202O :  1.34  247O :  1.32   13O :  1.29  376O :  1.29
  232O :  1.28  160O :  1.27  310O :  1.23    1O :  1.23  241O :  1.18  286O :  1.17  103O :  1.13  235O :  1.11  307O :  1.08  355O :  1.08  490O :  1.06  184O :  1.06
  205O :  1.05  424O :  1.04  196O :  1.04   79O :  1.01   82O :  1.00  277O :  0.99  163O :  0.95  325O :  0.95  346O :  0.95  526O :  0.95  226O :  0.93  199O :  0.92
  478O :  0.91  508O :  0.90  520O :  0.89   85O :  0.87  388O :  0.85  331O :  0.83  400O :  0.82  220O :  0.82  481O :  0.82   52O :  0.80  172O :  0.79  427O :  0.79
   64O :  0.79  244O :  0.78  253O :  0.77   28O :  0.77  457O :  0.75  208O :  0.74  484O :  0.74  370O :  0.73  493O :  0.70  475O :  0.69  445O :  0.69  280O :  0.67
  394O :  0.66  328O :  0.64  322O :  0.64  292O :  0.64  385O :  0.62  106O :  0.61  118O :  0.61  229O :  0.61  145O :  0.61  418O :  0.61  121O :  0.61  214O :  0.59
  238O :  0.59  268O :  0.59   19O :  0.58  217O :  0.58  142O :  0.58  148O :  0.56   94O :  0.55   37O :  0.54  403O :  0.53  337O :  0.52  472O :  0.52   78H :  0.52
  154O :  0.49  499O :  0.48  211O :  0.45  397O :  0.44  190O :  0.43   34O :  0.42  316O :  0.42  373O :  0.41  271O :  0.41  511O :  0.41  361O :  0.41  265O :  0.40
   32H :  0.39  289O :  0.39  415O :  0.39   88O :  0.38   61O :  0.38  487O :  0.37  430O :  0.36  259O :  0.36  166O :  0.36  412O :  0.36  529O :  0.35  313O :  0.35
  436O :  0.35  256O :  0.34  448O :  0.34  358O :  0.34  505O :  0.34   49O :  0.34  298O :  0.33  133O :  0.33  100O :  0.33  502O :  0.32  391O :  0.32   97O :  0.32
  349O :  0.32  451O :  0.31  340O :  0.31  523O :  0.30  274O :  0.30  151O :  0.30  139O :  0.29  301O :  0.29  262O :  0.29  175O :  0.28   67O :  0.27    6H :  0.27
  410H :  0.27  136O :  0.27  236H :  0.26  379O :  0.25  181O :  0.25  433O :  0.24  454O :  0.22  495H :  0.22  295O :  0.20  367O :  0.20  250O :  0.20  309H :  0.20
  157O :  0.20  319O :  0.20  231H :  0.19  135H :  0.18  169O :  0.17  193O :  0.17  375H :  0.17  402H :  0.17   45H :  0.17  306H :  0.16  243H :  0.16  109O :  0.16
   70O :  0.16  327H :  0.15  463O :  0.15  130O :  0.15  178O :  0.14  446H :  0.14  460O :  0.14  187O :  0.13    9H :  0.12   38H :  0.12  240H :  0.12  173H :  0.12
   66H :  0.12  395H :  0.12   84H :  0.11  364O :  0.11   91O :  0.11  352O :  0.11  506H :  0.11  411H :  0.11  443H :  0.11  525H :  0.11  382O :  0.10  398H :  0.10
   48H :  0.10  248H :  0.10  517O :  0.10  449H :  0.10  377H :  0.10  164H :  0.10  216H :  0.10   20H :  0.09  343O :  0.09  101H :  0.09  426H :  0.09  242H :  0.09
  176H :  0.09  469O :  0.09  438H :  0.09   14H :  0.09  389H :  0.08  237H :  0.08   26H :  0.08  381H :  0.08  249H :  0.08   12H :  0.08  419H :  0.08  150H :  0.08
   63H :  0.08  227H :  0.08  272H :  0.08  503H :  0.08  275H :  0.08  104H :  0.08  447H :  0.08  252H :  0.07  120H :  0.07  348H :  0.07  285H :  0.07  305H :  0.07
  119H :  0.07
   10 LP   *******   0.01   5.18482   2.07526  -0.70050   76O :  4.95    4O :  2.74  442O :  2.54   31O :  2.53  406O :  2.52   46O :  2.10  124O :  2.06  409O :  2.02   16O :  2.02  283O :  1.99  223O :  1.97   43O :  1.70
  496O :  1.69    7O :  1.68  304O :  1.55  115O :  1.54   73O :  1.49   58O :  1.43   55O :  1.39   25O :  1.35  202O :  1.27  247O :  1.25   13O :  1.23  376O :  1.22
  232O :  1.22  160O :  1.21  310O :  1.17    1O :  1.17  241O :  1.12  286O :  1.12  103O :  1.08  235O :  1.06  307O :  1.03  355O :  1.03  490O :  1.01  184O :  1.01
  205O :  1.00  424O :  0.99  196O :  0.99   79O :  0.97   82O :  0.95  277O :  0.94  163O :  0.91  325O :  0.91  346O :  0.90  526O :  0.90  226O :  0.88  199O :  0.88
  478O :  0.87  508O :  0.86  520O :  0.84   85O :  0.83  388O :  0.81  331O :  0.79  400O :  0.78  220O :  0.78  481O :  0.78   52O :  0.77  172O :  0.76  427O :  0.75
   64O :  0.75  244O :  0.74  253O :  0.74   28O :  0.74  457O :  0.71  208O :  0.71  484O :  0.70  370O :  0.70  493O :  0.67  475O :  0.66  445O :  0.66  280O :  0.64
  394O :  0.63  328O :  0.61  322O :  0.61  292O :  0.61  106O :  0.58  118O :  0.58  385O :  0.58  229O :  0.58  121O :  0.58  145O :  0.58  418O :  0.58  214O :  0.56
   19O :  0.56  268O :  0.56  217O :  0.55  142O :  0.55  238O :  0.55  148O :  0.54   94O :  0.52   37O :  0.51  403O :  0.51  337O :  0.50  472O :  0.49  154O :  0.47
  499O :  0.46  211O :  0.43  397O :  0.42   78H :  0.42  190O :  0.41   34O :  0.40  316O :  0.40  373O :  0.39  271O :  0.39  511O :  0.39  289O :  0.39  361O :  0.39
  265O :  0.38   32H :  0.37  415O :  0.37   88O :  0.37   61O :  0.36  487O :  0.35  430O :  0.35  259O :  0.34  166O :  0.34  412O :  0.34  529O :  0.33  313O :  0.33
  436O :  0.33  256O :  0.33  448O :  0.33  358O :  0.33  505O :  0.32   49O :  0.32  100O :  0.32  298O :  0.32  133O :  0.31  502O :  0.31  391O :  0.31   97O :  0.30
  349O :  0.30  451O :  0.30  340O :  0.30  523O :  0.29  274O :  0.29  151O :  0.28  139O :  0.28  301O :  0.28  262O :  0.27  175O :  0.27   67O :  0.26    6H :  0.26
  410H :  0.26  136O :  0.25  236H :  0.25  379O :  0.24  181O :  0.24  433O :  0.23  454O :  0.21  495H :  0.21  295O :  0.19  367O :  0.19  250O :  0.19  309H :  0.19
  157O :  0.19  319O :  0.19  231H :  0.18  135H :  0.17  169O :  0.16  193O :  0.16  375H :  0.16  402H :  0.16   45H :  0.16  306H :  0.16  243H :  0.16  109O :  0.15
   70O :  0.15  327H :  0.14  463O :  0.14  130O :  0.14  178O :  0.14  446H :  0.13  460O :  0.13    9H :  0.12  187O :  0.12   38H :  0.12  240H :  0.11  173H :  0.11
   66H :  0.11  352O :  0.11  395H :  0.11   91O :  0.11   84H :  0.11  364O :  0.11  506H :  0.11  411H :  0.11  443H :  0.10  525H :  0.10  382O :  0.10  398H :  0.10
   48H :  0.10  248H :  0.10  517O :  0.10  449H :  0.09  377H :  0.09  164H :  0.09   12H :  0.09  216H :  0.09   20H :  0.09  101H :  0.09  343O :  0.09  426H :  0.09
  242H :  0.09  176H :  0.08  469O :  0.08  438H :  0.08   14H :  0.08  389H :  0.08  237H :  0.08   26H :  0.08  381H :  0.08  419H :  0.08  150H :  0.08   63H :  0.08
  249H :  0.08  227H :  0.07  272H :  0.07  503H :  0.07  275H :  0.07  104H :  0.07  447H :  0.07  252H :  0.07  120H :  0.07
   11 LP   *******   0.01   6.44963  -7.49349  -2.14026   16O :  3.83   76O :  3.10    4O :  2.70  442O :  2.51  406O :  2.50   31O :  2.49   46O :  2.07  124O :  2.04  409O :  2.00  283O :  1.96  223O :  1.95   43O :  1.68
  496O :  1.67    7O :  1.66  304O :  1.53  115O :  1.51   73O :  1.47   58O :  1.41   55O :  1.37   25O :  1.34  202O :  1.26  247O :  1.24   13O :  1.22  376O :  1.21
  232O :  1.20  160O :  1.19  310O :  1.16    1O :  1.15  241O :  1.11  286O :  1.10  103O :  1.07  235O :  1.04  307O :  1.02  355O :  1.02  490O :  1.00  184O :  1.00
  205O :  0.98  424O :  0.98  196O :  0.97   79O :  0.95   82O :  0.94  277O :  0.93  163O :  0.90  325O :  0.90  346O :  0.89  526O :  0.89  226O :  0.87  199O :  0.87
  478O :  0.86  508O :  0.85  520O :  0.83   85O :  0.82  388O :  0.80  331O :  0.78  400O :  0.77  220O :  0.77  481O :  0.77   52O :  0.76  172O :  0.75  427O :  0.74
   64O :  0.74  244O :  0.73  253O :  0.73   28O :  0.73  457O :  0.70  208O :  0.70  484O :  0.69  370O :  0.69  493O :  0.66  475O :  0.65  445O :  0.65  280O :  0.63
  394O :  0.62  328O :  0.61  322O :  0.60  292O :  0.60  385O :  0.59  229O :  0.58  118O :  0.57  145O :  0.57  418O :  0.57  121O :  0.57  106O :  0.56  217O :  0.56
  214O :  0.55  268O :  0.55  238O :  0.55   19O :  0.55  142O :  0.55  148O :  0.53   94O :  0.52   37O :  0.51  403O :  0.50  337O :  0.49  472O :  0.49   78H :  0.49
  154O :  0.46  499O :  0.45  211O :  0.42  397O :  0.42  190O :  0.40   34O :  0.39  316O :  0.39  373O :  0.39  271O :  0.39  511O :  0.38  289O :  0.38  361O :  0.38
  265O :  0.38   32H :  0.37  415O :  0.36   88O :  0.36   61O :  0.36  487O :  0.35  430O :  0.34  166O :  0.34  259O :  0.34  412O :  0.34  100O :  0.33  529O :  0.33
  313O :  0.33  436O :  0.33  256O :  0.32  448O :  0.32  358O :  0.32  505O :  0.32   49O :  0.32  298O :  0.31  133O :  0.31  502O :  0.30  391O :  0.30   97O :  0.30
  349O :  0.30  451O :  0.29  340O :  0.29  523O :  0.28  274O :  0.28  151O :  0.28  139O :  0.28  301O :  0.27  262O :  0.27  175O :  0.26   67O :  0.26    6H :  0.26
  410H :  0.25  136O :  0.25  236H :  0.25  379O :  0.24  181O :  0.24  433O :  0.22  454O :  0.21  495H :  0.20  295O :  0.19  231H :  0.19  367O :  0.19  250O :  0.19
  309H :  0.19  157O :  0.18  319O :  0.18  135H :  0.17  169O :  0.16  193O :  0.16  375H :  0.16  402H :  0.16   45H :  0.16  306H :  0.15  243H :  0.15  109O :  0.15
   70O :  0.15  327H :  0.14  463O :  0.14  130O :  0.14  178O :  0.13  446H :  0.13  460O :  0.13  187O :  0.12    9H :  0.12   38H :  0.11  240H :  0.11  173H :  0.11
   66H :  0.11  395H :  0.11  352O :  0.11   84H :  0.11  364O :  0.11  506H :  0.10   91O :  0.10  411H :  0.10  443H :  0.10  525H :  0.10  382O :  0.10  398H :  0.10
   48H :  0.10  517O :  0.09  248H :  0.09  449H :  0.09  377H :  0.09  164H :  0.09  216H :  0.09   20H :  0.09  343O :  0.09  101H :  0.09  426H :  0.09  242H :  0.09
  176H :  0.08  469O :  0.08  438H :  0.08   14H :  0.08  389H :  0.08  237H :  0.08   26H :  0.08  381H :  0.08  249H :  0.08  419H :  0.08   12H :  0.07  150H :  0.07
   63H :  0.07  227H :  0.07  272H :  0.07  503H :  0.07  275H :  0.07  104H :  0.07  447H :  0.07
   12 LP   *******   0.01  -7.87361   2.80685  -1.18257   73O :  3.35   76O :  3.07    4O :  2.68  442O :  2.48   31O :  2.47  406O :  2.46   46O :  2.05  124O :  2.01  409O :  1.98   16O :  1.97  283O :  1.94  223O :  1.92
  496O :  1.65    7O :  1.64   43O :  1.64  304O :  1.51  115O :  1.50   58O :  1.40   55O :  1.36   25O :  1.32  202O :  1.24  247O :  1.22   13O :  1.20  376O :  1.20
  232O :  1.19  160O :  1.18  310O :  1.15    1O :  1.14  241O :  1.10  286O :  1.09  103O :  1.06  235O :  1.03  307O :  1.01  355O :  1.01  184O :  0.99  490O :  0.99
  205O :  0.97  424O :  0.97  196O :  0.96   79O :  0.94   82O :  0.93  277O :  0.92  163O :  0.89  325O :  0.89  526O :  0.88  346O :  0.88  226O :  0.86  199O :  0.85
  478O :  0.85  508O :  0.84  520O :  0.83   85O :  0.81  388O :  0.79  331O :  0.77  400O :  0.76  220O :  0.76  481O :  0.76   52O :  0.75  172O :  0.74  427O :  0.74
   64O :  0.73  244O :  0.73  253O :  0.72   28O :  0.72  457O :  0.70  208O :  0.69  484O :  0.68  370O :  0.68  493O :  0.65  445O :  0.64  475O :  0.64  280O :  0.62
  394O :  0.61  328O :  0.60  322O :  0.60  292O :  0.59  385O :  0.58  106O :  0.57  118O :  0.57  229O :  0.57  145O :  0.57  418O :  0.57  121O :  0.56  214O :  0.55
  238O :  0.55  268O :  0.55   19O :  0.54  142O :  0.54  217O :  0.54  148O :  0.52   94O :  0.51   37O :  0.50  403O :  0.50  337O :  0.48  472O :  0.48   78H :  0.48
  154O :  0.46  499O :  0.45  211O :  0.42  397O :  0.41  190O :  0.40   34O :  0.39  316O :  0.39  373O :  0.38  271O :  0.38  511O :  0.38  289O :  0.38  361O :  0.38
  265O :  0.37   32H :  0.36  415O :  0.36   88O :  0.36   61O :  0.35  487O :  0.35  430O :  0.34  259O :  0.34  166O :  0.34  412O :  0.33  529O :  0.33  313O :  0.32
  436O :  0.32  256O :  0.32  448O :  0.32  358O :  0.32   49O :  0.32  505O :  0.31  100O :  0.31  298O :  0.31  133O :  0.31  502O :  0.30  391O :  0.30  349O :  0.29
  451O :  0.29  340O :  0.29  523O :  0.28  274O :  0.28  151O :  0.28  139O :  0.27  301O :  0.27   97O :  0.27  262O :  0.27  175O :  0.26   67O :  0.25    6H :  0.25
  410H :  0.25  136O :  0.25  236H :  0.24  379O :  0.24  181O :  0.23  433O :  0.22  454O :  0.21  495H :  0.20  295O :  0.19  367O :  0.19  250O :  0.18  309H :  0.18
  319O :  0.18  157O :  0.18  231H :  0.18  135H :  0.16   45H :  0.16  169O :  0.16  193O :  0.16  375H :  0.16  402H :  0.16  306H :  0.15  243H :  0.15  109O :  0.15
   70O :  0.14  327H :  0.14  463O :  0.14  130O :  0.14  178O :  0.13  446H :  0.13  460O :  0.13  187O :  0.12    9H :  0.11   38H :  0.11  240H :  0.11  173H :  0.11
   66H :  0.11  352O :  0.11  395H :  0.11   91O :  0.11  364O :  0.11   84H :  0.10  506H :  0.10  411H :  0.10  443H :  0.10  525H :  0.10  382O :  0.10  398H :  0.10
   48H :  0.10  248H :  0.09  517O :  0.09  449H :  0.09  377H :  0.09  164H :  0.09  216H :  0.09   20H :  0.09  101H :  0.08  343O :  0.08  426H :  0.08  242H :  0.08
  176H :  0.08  469O :  0.08  438H :  0.08   14H :  0.08  389H :  0.08  237H :  0.08   26H :  0.08  381H :  0.08  249H :  0.08   12H :  0.07  419H :  0.07  150H :  0.07
   63H :  0.07  227H :  0.07  272H :  0.07  503H :  0.07  275H :  0.07  104H :  0.07  447H :  0.07
   13 LP   *******   0.01  -3.02798   0.51607  -3.14079   31O :  4.23   76O :  3.06    4O :  2.67  442O :  2.48  406O :  2.46   46O :  2.04  124O :  2.01  409O :  1.97   16O :  1.97  283O :  1.94  223O :  1.92   43O :  1.66
  496O :  1.65    7O :  1.64  304O :  1.51  115O :  1.49   73O :  1.45   58O :  1.40   55O :  1.36   25O :  1.32  202O :  1.24  247O :  1.22   13O :  1.20  376O :  1.19
  232O :  1.19  160O :  1.18  310O :  1.14    1O :  1.13  241O :  1.09  286O :  1.09  103O :  1.05  235O :  1.03  307O :  1.01  355O :  1.00  490O :  0.99  184O :  0.99
  205O :  0.97  424O :  0.97  196O :  0.96   79O :  0.94   82O :  0.93  277O :  0.92  163O :  0.89  325O :  0.89  346O :  0.88  526O :  0.88  226O :  0.86  199O :  0.85
  478O :  0.85  508O :  0.83  520O :  0.82   85O :  0.81  388O :  0.79  331O :  0.77   64O :  0.77  400O :  0.76   52O :  0.76  220O :  0.76  481O :  0.76  172O :  0.74
  427O :  0.73  244O :  0.73  253O :  0.72   28O :  0.72  457O :  0.70  208O :  0.69  484O :  0.68  370O :  0.68  493O :  0.65  475O :  0.64  445O :  0.64  280O :  0.62
  394O :  0.61  328O :  0.60  322O :  0.60  292O :  0.59  385O :  0.58  106O :  0.57  229O :  0.57  118O :  0.57  145O :  0.57  418O :  0.56  121O :  0.56  214O :  0.55
  238O :  0.54  268O :  0.54   19O :  0.54  217O :  0.54  142O :  0.54  148O :  0.52   94O :  0.51   37O :  0.50  403O :  0.50  337O :  0.48  472O :  0.48   78H :  0.48
  154O :  0.46  499O :  0.45  211O :  0.42  397O :  0.41  190O :  0.39   34O :  0.39  316O :  0.39  373O :  0.38  271O :  0.38  511O :  0.38  289O :  0.38  361O :  0.38
  265O :  0.37  415O :  0.36   88O :  0.36   61O :  0.35  487O :  0.35  430O :  0.34  166O :  0.33  259O :  0.33  412O :  0.33  529O :  0.33  313O :  0.32  436O :  0.32
  256O :  0.32  448O :  0.32  358O :  0.32  505O :  0.31   49O :  0.31  100O :  0.31  298O :  0.31   32H :  0.31  133O :  0.31  502O :  0.30  391O :  0.30   97O :  0.30
  349O :  0.29  451O :  0.29  340O :  0.29  523O :  0.28  274O :  0.28  151O :  0.28  139O :  0.27  301O :  0.27  262O :  0.27  175O :  0.26   67O :  0.25    6H :  0.25
  410H :  0.25  136O :  0.25  236H :  0.24  379O :  0.24  181O :  0.23  433O :  0.22  454O :  0.21   66H :  0.20  495H :  0.20  367O :  0.19  250O :  0.18  309H :  0.18
  295O :  0.18  157O :  0.18  319O :  0.18  231H :  0.18  135H :  0.16  169O :  0.16  193O :  0.16  375H :  0.16  306H :  0.15  243H :  0.15  109O :  0.15  402H :  0.15
   45H :  0.15   70O :  0.14  463O :  0.14  327H :  0.14  130O :  0.14  178O :  0.13  446H :  0.13  460O :  0.13  187O :  0.12    9H :  0.11   38H :  0.11  240H :  0.11
  173H :  0.11  352O :  0.11  395H :  0.11   84H :  0.11   91O :  0.11  364O :  0.11  506H :  0.10  411H :  0.10  443H :  0.10  525H :  0.10  382O :  0.10  398H :  0.10
   48H :  0.10  248H :  0.09  517O :  0.09  449H :  0.09  377H :  0.09  164H :  0.09  216H :  0.09   20H :  0.09  101H :  0.08  343O :  0.08  426H :  0.08  242H :  0.08
  176H :  0.08  469O :  0.08  438H :  0.08   14H :  0.08  389H :  0.08  237H :  0.08   26H :  0.08  381H :  0.08  249H :  0.08   12H :  0.07  419H :  0.07  150H :  0.07
   63H :  0.07  227H :  0.07  272H :  0.07  503H :  0.07  275H :  0.07  104H :  0.07
   14 LP   *******   0.01  -0.15795  -8.12490  -8.12532  406O :  4.34   76O :  2.96    4O :  2.58  442O :  2.40   31O :  2.38   46O :  1.97  124O :  1.94  409O :  1.91   16O :  1.90  283O :  1.87  223O :  1.86   43O :  1.60
  496O :  1.59    7O :  1.58  304O :  1.46  115O :  1.44   73O :  1.40   58O :  1.35   55O :  1.31   25O :  1.28  202O :  1.20  247O :  1.18   13O :  1.16  376O :  1.15
  232O :  1.15  160O :  1.14  310O :  1.11    1O :  1.10  241O :  1.06  286O :  1.05  103O :  1.02  235O :  0.99  307O :  0.97  355O :  0.97  490O :  0.95  184O :  0.95
  205O :  0.94  424O :  0.94  196O :  0.93   79O :  0.91   82O :  0.90  277O :  0.88  163O :  0.86  325O :  0.86  346O :  0.85  526O :  0.85  226O :  0.83  199O :  0.82
  478O :  0.82  508O :  0.81  520O :  0.80   85O :  0.78  388O :  0.77  331O :  0.74  400O :  0.73  481O :  0.73  220O :  0.73   52O :  0.72  172O :  0.71  427O :  0.71
   64O :  0.71  244O :  0.70  253O :  0.69   28O :  0.69  457O :  0.67  208O :  0.66  484O :  0.66  370O :  0.66  493O :  0.63  475O :  0.62  445O :  0.62  280O :  0.60
  394O :  0.59  328O :  0.58  322O :  0.58  292O :  0.57  385O :  0.56  106O :  0.55  118O :  0.55  229O :  0.55  145O :  0.55  418O :  0.55  121O :  0.54  214O :  0.53
  268O :  0.53  238O :  0.53   19O :  0.52  217O :  0.52  142O :  0.52  148O :  0.51   94O :  0.49   37O :  0.48  403O :  0.48  337O :  0.47  472O :  0.47   78H :  0.46
  154O :  0.44  499O :  0.43  211O :  0.40  397O :  0.40  190O :  0.38  289O :  0.38   34O :  0.38  316O :  0.37  373O :  0.37  271O :  0.37  511O :  0.37  361O :  0.36
  265O :  0.36   32H :  0.35  415O :  0.35   88O :  0.35   61O :  0.34  487O :  0.33  430O :  0.33  166O :  0.32  259O :  0.32  412O :  0.32  529O :  0.32  313O :  0.31
  436O :  0.31  256O :  0.31  448O :  0.31  358O :  0.31  505O :  0.30   49O :  0.30  298O :  0.30  133O :  0.29  502O :  0.29  391O :  0.29  100O :  0.29   97O :  0.29
  349O :  0.28  451O :  0.28  340O :  0.28  523O :  0.27  274O :  0.27  151O :  0.27  139O :  0.26  301O :  0.26  262O :  0.26  175O :  0.25   67O :  0.24    6H :  0.24
  410H :  0.24  136O :  0.24  236H :  0.24  379O :  0.23  181O :  0.23  433O :  0.21  454O :  0.20  495H :  0.19  295O :  0.18  367O :  0.18  250O :  0.18  309H :  0.18
  157O :  0.18  319O :  0.18  231H :  0.17  135H :  0.16  169O :  0.16  193O :  0.15  375H :  0.15  402H :  0.15   45H :  0.15  306H :  0.15  243H :  0.15  109O :  0.15
   70O :  0.14  327H :  0.13  463O :  0.13  130O :  0.13  178O :  0.13  446H :  0.13  460O :  0.12  187O :  0.11    9H :  0.11   38H :  0.11  240H :  0.11  173H :  0.11
   66H :  0.11  352O :  0.10  395H :  0.10   91O :  0.10   84H :  0.10  364O :  0.10  506H :  0.10  411H :  0.10  443H :  0.10  525H :  0.09  382O :  0.09  398H :  0.09
   48H :  0.09  517O :  0.09  248H :  0.09  449H :  0.09  377H :  0.09  164H :  0.09  216H :  0.09   20H :  0.08  343O :  0.08  426H :  0.08  242H :  0.08  101H :  0.08
  176H :  0.08  469O :  0.08  438H :  0.08   14H :  0.08  389H :  0.08  237H :  0.08   26H :  0.08  381H :  0.07  249H :  0.07  419H :  0.07   12H :  0.07  150H :  0.07
   63H :  0.07  227H :  0.07
   15 LP   *******   0.01  15.18820   9.14301  -1.15748  496O :  3.71   76O :  2.84    4O :  2.48  442O :  2.30   31O :  2.29  406O :  2.28   46O :  1.90  124O :  1.87  409O :  1.83   16O :  1.83  283O :  1.80  223O :  1.78
   43O :  1.54    7O :  1.52  304O :  1.40  115O :  1.38   73O :  1.34   58O :  1.29   55O :  1.26   25O :  1.22  202O :  1.15  247O :  1.13   13O :  1.11  376O :  1.11
  232O :  1.10  160O :  1.09  310O :  1.06    1O :  1.06  241O :  1.01  286O :  1.01  103O :  0.98  235O :  0.96  307O :  0.93  355O :  0.93  490O :  0.92  184O :  0.91
  205O :  0.90  196O :  0.89  424O :  0.89   79O :  0.87   82O :  0.86  277O :  0.85  163O :  0.82  325O :  0.82  346O :  0.82  526O :  0.82  226O :  0.80  199O :  0.79
  478O :  0.79  508O :  0.77  520O :  0.76   85O :  0.75  388O :  0.74  331O :  0.71  400O :  0.70  220O :  0.70  481O :  0.70   52O :  0.70  172O :  0.68  427O :  0.68
   64O :  0.68  244O :  0.67  253O :  0.67   28O :  0.67  457O :  0.64  208O :  0.64  484O :  0.64  370O :  0.63  493O :  0.60  475O :  0.60  445O :  0.60  280O :  0.58
  394O :  0.57  328O :  0.56  322O :  0.55  292O :  0.55  385O :  0.54  106O :  0.53  118O :  0.53  229O :  0.53  418O :  0.52  121O :  0.52  145O :  0.52  214O :  0.51
  238O :  0.51   19O :  0.50  217O :  0.50  142O :  0.50  268O :  0.49  148O :  0.49   94O :  0.47   37O :  0.47  403O :  0.46  337O :  0.45  472O :  0.45   78H :  0.45
  154O :  0.42  499O :  0.41  211O :  0.39  397O :  0.38  190O :  0.37   34O :  0.36  316O :  0.36  373O :  0.36  271O :  0.36  511O :  0.35  289O :  0.35  361O :  0.35
  265O :  0.34   32H :  0.34  415O :  0.33   88O :  0.33   61O :  0.33  487O :  0.32  430O :  0.31  259O :  0.31  166O :  0.31  412O :  0.31  529O :  0.30  313O :  0.30
  436O :  0.30  256O :  0.30  448O :  0.30  358O :  0.30  505O :  0.29   49O :  0.29  100O :  0.29  298O :  0.29  133O :  0.28  502O :  0.28  391O :  0.28   97O :  0.28
  349O :  0.27  451O :  0.27  340O :  0.27  523O :  0.26  274O :  0.26  151O :  0.26  139O :  0.25  301O :  0.25  262O :  0.25  175O :  0.24   67O :  0.23    6H :  0.23
  410H :  0.23  136O :  0.23  236H :  0.23  379O :  0.22  181O :  0.22  433O :  0.20  454O :  0.19  495H :  0.19  295O :  0.17  367O :  0.17  250O :  0.17  309H :  0.17
  157O :  0.17  319O :  0.17  231H :  0.16  135H :  0.15  169O :  0.15  193O :  0.15  375H :  0.15  402H :  0.15   45H :  0.15  306H :  0.14  243H :  0.14  109O :  0.14
   70O :  0.13  327H :  0.13  463O :  0.13  130O :  0.13  178O :  0.12  446H :  0.12  460O :  0.12  187O :  0.11    9H :  0.11   38H :  0.11  240H :  0.10  173H :  0.10
   66H :  0.10  352O :  0.10  395H :  0.10   91O :  0.10   84H :  0.10  364O :  0.10  506H :  0.10  411H :  0.10  443H :  0.09  525H :  0.09  382O :  0.09  398H :  0.09
   48H :  0.09  248H :  0.09  517O :  0.09  449H :  0.08  377H :  0.08  164H :  0.08  216H :  0.08   20H :  0.08  101H :  0.08  343O :  0.08  242H :  0.08  176H :  0.08
  469O :  0.07  438H :  0.07   14H :  0.07  389H :  0.07  237H :  0.07   26H :  0.07  381H :  0.07  249H :  0.07
   16 LP   *******   0.01   7.72327  -9.47066   5.64051  304O :  3.46   76O :  2.66    4O :  2.32  442O :  2.15   31O :  2.14  406O :  2.13   46O :  1.77  124O :  1.75  409O :  1.71   16O :  1.71  283O :  1.68  223O :  1.67
   43O :  1.44  496O :  1.43    7O :  1.42  115O :  1.30   73O :  1.26   58O :  1.21   55O :  1.18   25O :  1.15  202O :  1.08  247O :  1.06   13O :  1.04  376O :  1.04
  232O :  1.03  160O :  1.02  310O :  0.99    1O :  0.99  241O :  0.95  286O :  0.95  103O :  0.91  235O :  0.89  307O :  0.87  355O :  0.87  490O :  0.86  184O :  0.86
  205O :  0.84  424O :  0.84  196O :  0.84   79O :  0.82   82O :  0.81  277O :  0.81  163O :  0.77  325O :  0.77  346O :  0.76  526O :  0.76  226O :  0.75  199O :  0.74
  478O :  0.73  508O :  0.72  520O :  0.72   85O :  0.70  388O :  0.69  331O :  0.67  400O :  0.66  220O :  0.66  481O :  0.66   52O :  0.65  172O :  0.64  427O :  0.64
   64O :  0.64  244O :  0.63  253O :  0.62   28O :  0.62  457O :  0.60  208O :  0.60  484O :  0.59  370O :  0.59  493O :  0.56  475O :  0.56  445O :  0.55  280O :  0.54
  394O :  0.53  328O :  0.52  322O :  0.52  292O :  0.52  121O :  0.50  385O :  0.50  106O :  0.49  118O :  0.49  145O :  0.49  229O :  0.49  418O :  0.48  214O :  0.47
  238O :  0.47  268O :  0.47   19O :  0.47  142O :  0.47  217O :  0.47  148O :  0.45   94O :  0.44   37O :  0.43  403O :  0.43  337O :  0.42  472O :  0.42   78H :  0.42
  154O :  0.40  499O :  0.39  211O :  0.36  397O :  0.36  190O :  0.34   34O :  0.34  316O :  0.33  373O :  0.33  271O :  0.33  511O :  0.33  289O :  0.33  361O :  0.33
  265O :  0.32   32H :  0.31   88O :  0.31   61O :  0.31  415O :  0.30  487O :  0.30  430O :  0.29  166O :  0.29  259O :  0.29  412O :  0.29  529O :  0.28  436O :  0.28
  313O :  0.28  256O :  0.28  448O :  0.28  358O :  0.28  505O :  0.27   49O :  0.27  100O :  0.27  298O :  0.27  133O :  0.26  502O :  0.26  391O :  0.26   97O :  0.26
  349O :  0.25  451O :  0.25  340O :  0.25  523O :  0.24  274O :  0.24  151O :  0.24  139O :  0.24  301O :  0.23  262O :  0.23  175O :  0.23   67O :  0.22    6H :  0.22
  410H :  0.22  136O :  0.22  236H :  0.21  379O :  0.20  181O :  0.20  433O :  0.19  454O :  0.18  495H :  0.17  295O :  0.16  367O :  0.16  250O :  0.16  309H :  0.16
  157O :  0.16  319O :  0.16  231H :  0.15  135H :  0.14  169O :  0.14  193O :  0.14  375H :  0.14  402H :  0.14   45H :  0.14  243H :  0.13  109O :  0.13   70O :  0.13
  327H :  0.12  463O :  0.12  130O :  0.12  178O :  0.11  446H :  0.11  460O :  0.11  306H :  0.11  187O :  0.10    9H :  0.10   38H :  0.10  240H :  0.10  173H :  0.10
   66H :  0.10  352O :  0.09  395H :  0.09   91O :  0.09   84H :  0.09  364O :  0.09  506H :  0.09  411H :  0.09  443H :  0.09  525H :  0.08  382O :  0.08  398H :  0.08
   48H :  0.08  517O :  0.08  248H :  0.08  449H :  0.08  377H :  0.08  164H :  0.08  216H :  0.08   20H :  0.07  101H :  0.07  343O :  0.07  426H :  0.07  242H :  0.07
  176H :  0.07  438H :  0.07
   17 LP   *******   0.01   5.64824  -1.75336  12.84767  124O :  3.51   76O :  2.62    4O :  2.28  442O :  2.12   31O :  2.11  406O :  2.10   46O :  1.75  409O :  1.69   16O :  1.68  283O :  1.66  223O :  1.64   43O :  1.41
  496O :  1.41    7O :  1.40  304O :  1.29  115O :  1.28   73O :  1.24   58O :  1.19   55O :  1.16   25O :  1.13  202O :  1.06  247O :  1.04   13O :  1.03  376O :  1.02
  232O :  1.01  160O :  1.01  310O :  0.98    1O :  0.97  241O :  0.93  286O :  0.93  103O :  0.90  235O :  0.86  307O :  0.86  355O :  0.86  490O :  0.84  184O :  0.84
  424O :  0.83  205O :  0.83  196O :  0.82   79O :  0.81   82O :  0.80  277O :  0.78  163O :  0.76  325O :  0.76  346O :  0.75  526O :  0.75  226O :  0.74  199O :  0.73
  478O :  0.72  508O :  0.71  520O :  0.70   85O :  0.69  388O :  0.68  331O :  0.66  400O :  0.65  220O :  0.65  481O :  0.65   52O :  0.64  172O :  0.63  427O :  0.63
   64O :  0.63  244O :  0.62  253O :  0.61   28O :  0.61  457O :  0.59  208O :  0.59  484O :  0.58  370O :  0.58  493O :  0.56  475O :  0.55  445O :  0.55  280O :  0.53
  394O :  0.52  328O :  0.51  322O :  0.51  292O :  0.51  385O :  0.49  106O :  0.49  118O :  0.48  229O :  0.48  145O :  0.48  418O :  0.48  121O :  0.48  214O :  0.47
  238O :  0.47  268O :  0.47   19O :  0.46  217O :  0.46  142O :  0.46  148O :  0.45   94O :  0.44   37O :  0.43  403O :  0.42  337O :  0.41  472O :  0.41   78H :  0.41
  499O :  0.38  154O :  0.38  211O :  0.36  397O :  0.35  190O :  0.34   34O :  0.33  316O :  0.33  373O :  0.33  271O :  0.33  511O :  0.32  289O :  0.32  361O :  0.32
  265O :  0.32   32H :  0.31  415O :  0.31   88O :  0.31   61O :  0.30  487O :  0.29  430O :  0.29  166O :  0.29  259O :  0.29  412O :  0.28  505O :  0.28  529O :  0.28
  313O :  0.28  436O :  0.28  256O :  0.27  448O :  0.27  358O :  0.27   49O :  0.27  100O :  0.27  298O :  0.27  133O :  0.26  502O :  0.26  391O :  0.26   97O :  0.25
  349O :  0.25  340O :  0.25  451O :  0.25  523O :  0.24  274O :  0.24  151O :  0.24  139O :  0.23  301O :  0.23  262O :  0.23  175O :  0.22   67O :  0.22    6H :  0.22
  410H :  0.21  136O :  0.21  236H :  0.21  379O :  0.20  181O :  0.20  433O :  0.19  454O :  0.18  495H :  0.17  295O :  0.16  367O :  0.16  250O :  0.16  309H :  0.16
  157O :  0.16  319O :  0.16  231H :  0.15  135H :  0.14  169O :  0.14  193O :  0.14  375H :  0.14  402H :  0.13   45H :  0.13  109O :  0.13  306H :  0.13  243H :  0.13
   70O :  0.12  327H :  0.12  463O :  0.12  130O :  0.12  178O :  0.11  446H :  0.11  460O :  0.11  506H :  0.11  187O :  0.10    9H :  0.10   38H :  0.10  240H :  0.10
  173H :  0.09   66H :  0.09  352O :  0.09  395H :  0.09   91O :  0.09   84H :  0.09  364O :  0.09  411H :  0.09  443H :  0.09  525H :  0.08  382O :  0.08  398H :  0.08
   48H :  0.08  517O :  0.08  248H :  0.08  449H :  0.08  377H :  0.08  164H :  0.08  216H :  0.08   20H :  0.07  101H :  0.07  343O :  0.07  426H :  0.07  242H :  0.07
  176H :  0.07
   18 LP   *******   0.01  -4.96399   4.35860   9.07110  409O :  3.56   76O :  2.57    4O :  2.24  442O :  2.08   31O :  2.07  406O :  2.06   46O :  1.71  124O :  1.69   16O :  1.65  283O :  1.62  223O :  1.61   43O :  1.39
  496O :  1.38    7O :  1.37  304O :  1.26  115O :  1.25   73O :  1.21   58O :  1.17   55O :  1.14   25O :  1.11  202O :  1.04  247O :  1.02   13O :  1.01  160O :  1.00
  376O :  1.00  232O :  0.99  310O :  0.96    1O :  0.95  241O :  0.92  286O :  0.91  103O :  0.88  235O :  0.87  307O :  0.84  355O :  0.84  490O :  0.83  184O :  0.83
  205O :  0.81  424O :  0.81  196O :  0.81   79O :  0.79   82O :  0.78  277O :  0.77  325O :  0.74  163O :  0.74  346O :  0.74  526O :  0.74  226O :  0.72  199O :  0.71
  478O :  0.71  508O :  0.70   85O :  0.68  520O :  0.67  388O :  0.66  331O :  0.64  400O :  0.64  220O :  0.64   52O :  0.63  481O :  0.62  172O :  0.62  427O :  0.62
   64O :  0.61  244O :  0.61   28O :  0.60  253O :  0.60  457O :  0.58  208O :  0.58  484O :  0.57  370O :  0.57  493O :  0.55  445O :  0.54  475O :  0.54  280O :  0.52
  394O :  0.51  328O :  0.50  322O :  0.50  292O :  0.50  385O :  0.48  106O :  0.48  118O :  0.48  229O :  0.48  145O :  0.47  418O :  0.47  121O :  0.47  214O :  0.46
  238O :  0.46  268O :  0.46   19O :  0.46  217O :  0.45  142O :  0.45  148O :  0.44   94O :  0.43   37O :  0.42  403O :  0.41  337O :  0.40   78H :  0.40  472O :  0.40
  154O :  0.38  499O :  0.37  211O :  0.35  397O :  0.35  190O :  0.33   34O :  0.33  316O :  0.32  373O :  0.32  271O :  0.32  511O :  0.32  289O :  0.32  361O :  0.32
  265O :  0.31   32H :  0.30  415O :  0.30   88O :  0.30   61O :  0.30  487O :  0.29  430O :  0.28  259O :  0.28  166O :  0.28  412O :  0.28  529O :  0.27  313O :  0.27
  436O :  0.27  256O :  0.27  448O :  0.27  358O :  0.27  505O :  0.26   49O :  0.26  100O :  0.26  298O :  0.26  133O :  0.26  502O :  0.25  391O :  0.25   97O :  0.25
  349O :  0.25  451O :  0.24  340O :  0.24  523O :  0.24  274O :  0.24  151O :  0.23  139O :  0.23  301O :  0.23  262O :  0.22  175O :  0.22   67O :  0.21    6H :  0.21
  136O :  0.21  236H :  0.20  379O :  0.20  181O :  0.20  433O :  0.18  410H :  0.18  454O :  0.17  495H :  0.17  367O :  0.16  295O :  0.16  250O :  0.15  309H :  0.15
  157O :  0.15  319O :  0.15  231H :  0.15  135H :  0.14  169O :  0.13  193O :  0.13  375H :  0.13  402H :  0.13   45H :  0.13  306H :  0.13  243H :  0.13  109O :  0.13
   70O :  0.12  327H :  0.12  463O :  0.12  130O :  0.11  178O :  0.11  446H :  0.11  460O :  0.11  187O :  0.10    9H :  0.10   38H :  0.09  240H :  0.09  173H :  0.09
   66H :  0.09  352O :  0.09  395H :  0.09   91O :  0.09   84H :  0.09  364O :  0.09  506H :  0.09  443H :  0.09  525H :  0.08  382O :  0.08  398H :  0.08   48H :  0.08
  517O :  0.08  248H :  0.08  449H :  0.08  377H :  0.08  164H :  0.08  216H :  0.07   20H :  0.07  101H :  0.07  343O :  0.07  426H :  0.07  242H :  0.07
   19 LP   *******   0.01   8.64750   2.05598   5.87022   55O :  2.70   76O :  2.49    4O :  2.18  442O :  2.02   31O :  2.01  406O :  2.01   46O :  1.67  124O :  1.64  409O :  1.61   16O :  1.61  283O :  1.58  223O :  1.57
   43O :  1.35  496O :  1.35    7O :  1.34  304O :  1.23  115O :  1.23   73O :  1.18   58O :  1.13   25O :  1.08  202O :  1.01  247O :  1.00   13O :  0.98  376O :  0.97
  232O :  0.97  160O :  0.96  310O :  0.93    1O :  0.93  241O :  0.89  286O :  0.89  103O :  0.86  235O :  0.84  307O :  0.82  355O :  0.82  490O :  0.81  184O :  0.80
  205O :  0.79  424O :  0.79   79O :  0.77  196O :  0.77   82O :  0.76  277O :  0.75  163O :  0.72  325O :  0.72  346O :  0.72  526O :  0.72  226O :  0.70  199O :  0.69
  478O :  0.69  508O :  0.68  520O :  0.67   85O :  0.66  388O :  0.65  331O :  0.63  400O :  0.62  220O :  0.62  481O :  0.62   52O :  0.61  172O :  0.60  427O :  0.60
   64O :  0.60  244O :  0.59   28O :  0.59  253O :  0.59  457O :  0.57  208O :  0.56  484O :  0.56  370O :  0.55  493O :  0.53  475O :  0.52  445O :  0.52  280O :  0.51
  394O :  0.50  328O :  0.49  322O :  0.49  292O :  0.48  385O :  0.47  106O :  0.46  118O :  0.46  229O :  0.46  145O :  0.46  418O :  0.46  121O :  0.46  214O :  0.44
  238O :  0.44  268O :  0.44   19O :  0.44  217O :  0.44  142O :  0.44  148O :  0.43   94O :  0.42   37O :  0.41  403O :  0.40  337O :  0.39  472O :  0.39   78H :  0.39
  154O :  0.37  499O :  0.36  211O :  0.34  397O :  0.34  190O :  0.32   34O :  0.32  316O :  0.31  373O :  0.31  271O :  0.31  511O :  0.31  289O :  0.31  361O :  0.31
  265O :  0.30   32H :  0.30  415O :  0.29   88O :  0.29   61O :  0.29  487O :  0.28  430O :  0.28  259O :  0.27  166O :  0.27  412O :  0.27  529O :  0.27  313O :  0.26
  436O :  0.26  256O :  0.26  448O :  0.26  358O :  0.26  505O :  0.26   49O :  0.26  100O :  0.25  298O :  0.25  133O :  0.25  502O :  0.24  391O :  0.24   97O :  0.24
  349O :  0.24  451O :  0.24  340O :  0.24  523O :  0.23  274O :  0.23  151O :  0.23  139O :  0.22  301O :  0.22  262O :  0.22  175O :  0.21   67O :  0.21    6H :  0.21
  410H :  0.20  136O :  0.20  236H :  0.20  379O :  0.19  181O :  0.19  433O :  0.18  454O :  0.17  495H :  0.16  295O :  0.15  367O :  0.15  250O :  0.15  309H :  0.15
  319O :  0.15  157O :  0.15  231H :  0.14  135H :  0.13  169O :  0.13  193O :  0.13  375H :  0.13  402H :  0.13   45H :  0.13  306H :  0.12  243H :  0.12   70O :  0.12
  327H :  0.11  463O :  0.11  130O :  0.11  178O :  0.11  446H :  0.11  460O :  0.10  109O :  0.10  187O :  0.10   38H :  0.09  240H :  0.09  173H :  0.09   66H :  0.09
    9H :  0.09  352O :  0.09  395H :  0.09   91O :  0.09   84H :  0.09  364O :  0.09  506H :  0.08  411H :  0.08  443H :  0.08  382O :  0.08  398H :  0.08   48H :  0.08
  248H :  0.08  517O :  0.08  525H :  0.08  449H :  0.07  377H :  0.07  164H :  0.07  216H :  0.07   20H :  0.07   57H :  0.07
   20 LP   *******   0.01   0.16322   6.76484  10.32262  202O :  2.66   76O :  2.41    4O :  2.10  442O :  1.95   31O :  1.94  406O :  1.93   46O :  1.61  124O :  1.58  409O :  1.56   16O :  1.55  283O :  1.52  223O :  1.51
   43O :  1.30  496O :  1.30    7O :  1.29  304O :  1.18  115O :  1.17   73O :  1.14   58O :  1.10   55O :  1.07   25O :  1.04  247O :  0.96   13O :  0.94  376O :  0.94
  232O :  0.93  160O :  0.93  310O :  0.90    1O :  0.89  241O :  0.86  286O :  0.86  103O :  0.83  235O :  0.81  307O :  0.79  355O :  0.79  490O :  0.78  184O :  0.77
  205O :  0.76  424O :  0.76  196O :  0.76   79O :  0.74   82O :  0.73  277O :  0.72  163O :  0.70  346O :  0.69  526O :  0.69  325O :  0.69  226O :  0.68  199O :  0.67
  478O :  0.67  508O :  0.66  520O :  0.65   85O :  0.64  388O :  0.62  331O :  0.60  400O :  0.60  481O :  0.60  220O :  0.60   52O :  0.59  172O :  0.58  427O :  0.58
   64O :  0.57  244O :  0.57  253O :  0.56   28O :  0.56  457O :  0.55  208O :  0.54  484O :  0.54  370O :  0.53  493O :  0.51  475O :  0.50  445O :  0.50  280O :  0.49
  394O :  0.48  328O :  0.47  322O :  0.47  292O :  0.47  385O :  0.45  106O :  0.45  118O :  0.45  229O :  0.45  145O :  0.44  418O :  0.44  121O :  0.44  214O :  0.43
  238O :  0.43  268O :  0.43   19O :  0.43  217O :  0.42  142O :  0.42  148O :  0.41   94O :  0.40   37O :  0.39  403O :  0.39  337O :  0.38  472O :  0.38   78H :  0.38
  499O :  0.35  154O :  0.34  211O :  0.33  397O :  0.32  190O :  0.31   34O :  0.30  316O :  0.30  373O :  0.30  271O :  0.30  511O :  0.30  289O :  0.30  361O :  0.30
  265O :  0.29   32H :  0.28  415O :  0.28   88O :  0.28   61O :  0.28  487O :  0.27  430O :  0.27  166O :  0.26  259O :  0.26  412O :  0.26  529O :  0.26  313O :  0.25
  436O :  0.25  256O :  0.25  448O :  0.25  358O :  0.25  505O :  0.25   49O :  0.25  100O :  0.24  298O :  0.24  133O :  0.24  502O :  0.24  391O :  0.23   97O :  0.23
  349O :  0.23  451O :  0.23  340O :  0.23  523O :  0.22  274O :  0.22  151O :  0.22  139O :  0.21  301O :  0.21  262O :  0.21  175O :  0.20   67O :  0.20    6H :  0.20
  136O :  0.19  410H :  0.19  236H :  0.19  379O :  0.19  181O :  0.18  433O :  0.17  454O :  0.16  495H :  0.16  295O :  0.15  367O :  0.15  250O :  0.14  309H :  0.14
  157O :  0.14  319O :  0.14  231H :  0.14  135H :  0.13  169O :  0.13  193O :  0.13  375H :  0.12  402H :  0.12   45H :  0.12  306H :  0.12  243H :  0.12  109O :  0.12
   70O :  0.11  463O :  0.11  327H :  0.11  130O :  0.11  178O :  0.10  446H :  0.10  460O :  0.10  187O :  0.09    9H :  0.09   38H :  0.09  240H :  0.09  173H :  0.09
   66H :  0.09  352O :  0.08  395H :  0.08   91O :  0.08   84H :  0.08  364O :  0.08  506H :  0.08  411H :  0.08  443H :  0.08  525H :  0.08  382O :  0.08  398H :  0.07
   48H :  0.07  517O :  0.07  248H :  0.07  449H :  0.07  377H :  0.07  164H :  0.07
   21 LP   *******   0.01   1.60135   8.26944 -10.54925  442O :  3.49   76O :  2.39    4O :  2.09   31O :  1.92  406O :  1.92   46O :  1.59  124O :  1.57  409O :  1.54   16O :  1.54  283O :  1.51  223O :  1.50   43O :  1.29
  496O :  1.29    7O :  1.28  304O :  1.18  115O :  1.17   73O :  1.13   58O :  1.09   55O :  1.06   25O :  1.03  202O :  0.97  247O :  0.95   13O :  0.94  376O :  0.93
  232O :  0.93  160O :  0.92  310O :  0.89    1O :  0.89  241O :  0.85  286O :  0.85  103O :  0.82  235O :  0.80  307O :  0.79  355O :  0.78  490O :  0.77  184O :  0.77
  205O :  0.76  424O :  0.76  196O :  0.75   79O :  0.74   82O :  0.73  277O :  0.72  163O :  0.69  325O :  0.69  346O :  0.69  526O :  0.69  226O :  0.67  199O :  0.66
  478O :  0.66  508O :  0.65  520O :  0.64   85O :  0.63  388O :  0.62  331O :  0.60  400O :  0.59  220O :  0.59  481O :  0.59   52O :  0.59  172O :  0.58   64O :  0.57
  244O :  0.57  253O :  0.56   28O :  0.56  427O :  0.55  457O :  0.54  208O :  0.54  484O :  0.53  370O :  0.53  493O :  0.51  475O :  0.50  445O :  0.50  280O :  0.49
[...]
   146   1 h    0.895 --   145 o    0.863
   147   1 h    0.878 --   145 o    0.811
   148   8 o    1.865 --   150 h    0.877   149 h    0.864
   149   1 h    0.890 --   148 o    0.864
   150   1 h    0.899 --   148 o    0.877
   151   8 o    1.881 --   153 h    0.839   152 h    0.815
   152   1 h    0.875 --   151 o    0.815
   153   1 h    0.893 --   151 o    0.839
   154   8 o    1.848 --   155 h    0.902   156 h    0.838
   155   1 h    0.912 --   154 o    0.902
   156   1 h    0.885 --   154 o    0.838
   157   8 o    1.865 --   158 h    0.845   159 h    0.785
   158   1 h    0.893 --   157 o    0.845
   159   1 h    0.868 --   157 o    0.785
   160   8 o    1.831 --   161 h    0.839   162 h    0.779
   161   1 h    0.890 --   160 o    0.839
   162   1 h    0.861 --   160 o    0.779
   163   8 o    1.891 --   164 h    0.837   165 h    0.832   500 h    0.120
   164   1 h    0.893 --   163 o    0.837
   165   1 h    0.887 --   163 o    0.832
   166   8 o    1.882 --   167 h    0.821   168 h    0.820
   167   1 h    0.892 --   166 o    0.821
   168   1 h    0.884 --   166 o    0.820
   169   8 o    1.849 --   170 h    0.876   171 h    0.797
   170   1 h    0.905 --   169 o    0.876
   171   1 h    0.881 --   169 o    0.797
   172   8 o    1.828 --   174 h    0.829   173 h    0.793
   173   1 h    0.877 --   172 o    0.793
   174   1 h    0.893 --   172 o    0.829
   175   8 o    1.846 --   176 h    0.852   177 h    0.837
   176   1 h    0.894 --   175 o    0.852
   177   1 h    0.887 --   175 o    0.837
   178   8 o    1.838 --   179 h    0.888   180 h    0.815
   179   1 h    0.907 --   178 o    0.888
   180   1 h    0.883 --   178 o    0.815
   181   8 o    1.870 --   183 h    0.851   182 h    0.824
   182   1 h    0.889 --   181 o    0.824
   183   1 h    0.881 --   181 o    0.851
   184   8 o    1.887 --   186 h    0.799   185 h    0.791
   185   1 h    0.879 --   184 o    0.791
   186   1 h    0.876 --   184 o    0.799
   187   8 o    1.814 --   188 h    0.845   189 h    0.833
   188   1 h    0.898 --   187 o    0.845
   189   1 h    0.894 --   187 o    0.833
   190   8 o    1.883 --   191 h    0.862   192 h    0.850
   191   1 h    0.895 --   190 o    0.862
   192   1 h    0.891 --   190 o    0.850
   193   8 o    1.840 --   195 h    0.845   194 h    0.812
   194   1 h    0.881 --   193 o    0.812
   195   1 h    0.891 --   193 o    0.845
   196   8 o    1.902 --   197 h    0.822   198 h    0.801
   197   1 h    0.887 --   196 o    0.822
   198   1 h    0.876 --   196 o    0.801
   199   8 o    1.850 --   201 h    0.836   200 h    0.801
   200   1 h    0.877 --   199 o    0.801
   201   1 h    0.891 --   199 o    0.836
   202   8 o    1.835 --   204 h    0.882   203 h    0.870
   203   1 h    0.896 --   202 o    0.870
   204   1 h    0.901 --   202 o    0.882
   205   8 o    1.814 --   207 h    0.887   206 h    0.819
   206   1 h    0.887 --   205 o    0.819
   207   1 h    0.909 --   205 o    0.887
   208   8 o    1.839 --   210 h    0.813   209 h    0.809
   209   1 h    0.876 --   208 o    0.809
   210   1 h    0.878 --   208 o    0.813
   211   8 o    1.877 --   213 h    0.819   212 h    0.777
   212   1 h    0.870 --   211 o    0.777
   213   1 h    0.887 --   211 o    0.819
   214   8 o    1.876 --   215 h    0.827   216 h    0.814
   215   1 h    0.877 --   214 o    0.827
   216   1 h    0.878 --   214 o    0.814
   217   8 o    1.882 --   218 h    0.834   219 h    0.792
   218   1 h    0.885 --   217 o    0.834
   219   1 h    0.870 --   217 o    0.792
   220   8 o    1.858 --   222 h    0.864   221 h    0.789
   221   1 h    0.876 --   220 o    0.789
   222   1 h    0.896 --   220 o    0.864
   223   8 o    1.839 --   225 h    0.865   224 h    0.854
   224   1 h    0.891 --   223 o    0.854
   225   1 h    0.903 --   223 o    0.865
   226   8 o    1.862 --   228 h    0.845   227 h    0.807
   227   1 h    0.873 --   226 o    0.807
   228   1 h    0.894 --   226 o    0.845
   229   8 o    1.869 --   231 h    0.857   230 h    0.784
   230   1 h    0.872 --   229 o    0.784
   231   1 h    0.887 --   229 o    0.857
   232   8 o    1.870 --   234 h    0.866   233 h    0.857
   233   1 h    0.892 --   232 o    0.857
   234   1 h    0.895 --   232 o    0.866
   235   8 o    1.833 --   236 h    0.883   237 h    0.814
   236   1 h    0.908 --   235 o    0.883
   237   1 h    0.877 --   235 o    0.814
   238   8 o    1.886 --   240 h    0.843   239 h    0.839
   239   1 h    0.880 --   238 o    0.839
   240   1 h    0.892 --   238 o    0.843
   241   8 o    1.863 --   243 h    0.860   242 h    0.794
   242   1 h    0.879 --   241 o    0.794
   243   1 h    0.901 --   241 o    0.860
   244   8 o    1.819 --   245 h    0.844   246 h    0.813
   245   1 h    0.894 --   244 o    0.844
   246   1 h    0.891 --   244 o    0.813
   247   8 o    1.826 --   249 h    0.837   248 h    0.818
   248   1 h    0.886 --   247 o    0.818
   249   1 h    0.890 --   247 o    0.837
   250   8 o    1.881 --   252 h    0.831   251 h    0.782
   251   1 h    0.869 --   250 o    0.782
   252   1 h    0.893 --   250 o    0.831
   253   8 o    1.849 --   255 h    0.910   254 h    0.836
   254   1 h    0.882 --   253 o    0.836
   255   1 h    0.917 --   253 o    0.910
   256   8 o    1.854 --   257 h    0.846   258 h    0.822
   257   1 h    0.898 --   256 o    0.846
   258   1 h    0.890 --   256 o    0.822
   259   8 o    1.836 --   261 h    0.866   260 h    0.833
   260   1 h    0.879 --   259 o    0.833
   261   1 h    0.898 --   259 o    0.866
   262   8 o    1.885 --   263 h    0.860   264 h    0.836   393 h    0.101
   263   1 h    0.895 --   262 o    0.860
   264   1 h    0.889 --   262 o    0.836
   265   8 o    1.816 --   266 h    0.905   267 h    0.858
   266   1 h    0.915 --   265 o    0.905
   267   1 h    0.897 --   265 o    0.858
   268   8 o    1.838 --   269 h    0.851   270 h    0.831
   269   1 h    0.896 --   268 o    0.851
   270   1 h    0.896 --   268 o    0.831
   271   8 o    1.884 --   272 h    0.827   273 h    0.813
   272   1 h    0.892 --   271 o    0.827
   273   1 h    0.889 --   271 o    0.813
   274   8 o    1.849 --   275 h    0.818   276 h    0.810
   275   1 h    0.889 --   274 o    0.818
   276   1 h    0.878 --   274 o    0.810
   277   8 o    1.852 --   278 h    0.862   279 h    0.810
   278   1 h    0.900 --   277 o    0.862
   279   1 h    0.882 --   277 o    0.810
   280   8 o    1.851 --   282 h    0.907   281 h    0.795
   281   1 h    0.880 --   280 o    0.795
   282   1 h    0.916 --   280 o    0.907
   283   8 o    1.819 --   285 h    0.867   284 h    0.824
   284   1 h    0.892 --   283 o    0.824
   285   1 h    0.900 --   283 o    0.867
   286   8 o    1.831 --   287 h    0.869   288 h    0.858
   287   1 h    0.899 --   286 o    0.869
   288   1 h    0.891 --   286 o    0.858
   289   8 o    1.848 --   290 h    0.874   291 h    0.842
   290   1 h    0.894 --   289 o    0.874
   291   1 h    0.892 --   289 o    0.842
   292   8 o    1.828 --   293 h    0.849   294 h    0.804
   293   1 h    0.898 --   292 o    0.849
   294   1 h    0.875 --   292 o    0.804
   295   8 o    1.835 --   297 h    0.849   296 h    0.843
   296   1 h    0.895 --   295 o    0.843
   297   1 h    0.890 --   295 o    0.849
   298   8 o    1.849 --   300 h    0.885   299 h    0.817
   299   1 h    0.878 --   298 o    0.817
   300   1 h    0.904 --   298 o    0.885
   301   8 o    1.829 --   302 h    0.871   303 h    0.801
   302   1 h    0.906 --   301 o    0.871
   303   1 h    0.880 --   301 o    0.801
   304   8 o    1.850 --   306 h    0.834   305 h    0.820
   305   1 h    0.873 --   304 o    0.820
   306   1 h    0.889 --   304 o    0.834
   307   8 o    1.817 --   308 h    0.884   309 h    0.829
   308   1 h    0.903 --   307 o    0.884
   309   1 h    0.890 --   307 o    0.829
   310   8 o    1.842 --   311 h    0.845   312 h    0.806
   311   1 h    0.897 --   310 o    0.845
   312   1 h    0.876 --   310 o    0.806
   313   8 o    1.847 --   315 h    0.862   314 h    0.812
   314   1 h    0.874 --   313 o    0.812
   315   1 h    0.897 --   313 o    0.862
   316   8 o    1.883 --   318 h    0.828   317 h    0.807
   317   1 h    0.883 --   316 o    0.807
   318   1 h    0.889 --   316 o    0.828
   319   8 o    1.841 --   320 h    0.919   321 h    0.778
   320   1 h    0.925 --   319 o    0.919
   321   1 h    0.874 --   319 o    0.778
   322   8 o    1.834 --   323 h    0.841   324 h    0.815
   323   1 h    0.888 --   322 o    0.841
   324   1 h    0.891 --   322 o    0.815
   325   8 o    1.839 --   326 h    0.869   327 h    0.841
   326   1 h    0.902 --   325 o    0.869
   327   1 h    0.890 --   325 o    0.841
   328   8 o    1.881 --   330 h    0.871   329 h    0.857
   329   1 h    0.895 --   328 o    0.857
   330   1 h    0.896 --   328 o    0.871
   331   8 o    1.841 --   332 h    0.847   333 h    0.793
   332   1 h    0.900 --   331 o    0.847
   333   1 h    0.876 --   331 o    0.793
   334   8 o    1.848 --   336 h    0.802   335 h    0.774
   335   1 h    0.876 --   334 o    0.774
   336   1 h    0.891 --   334 o    0.802
   337   8 o    1.867 --   339 h    0.916   338 h    0.781
   338   1 h    0.878 --   337 o    0.781
   339   1 h    0.921 --   337 o    0.916
   340   8 o    1.873 --   341 h    0.818   342 h    0.817
   341   1 h    0.889 --   340 o    0.818
   342   1 h    0.888 --   340 o    0.817
   343   8 o    1.853 --   345 h    0.879   344 h    0.822
   344   1 h    0.885 --   343 o    0.822
   345   1 h    0.902 --   343 o    0.879
   346   8 o    1.843 --   347 h    0.866   348 h    0.814
   347   1 h    0.898 --   346 o    0.866
   348   1 h    0.883 --   346 o    0.814
   349   8 o    1.884 --   350 h    0.809   351 h    0.804
   350   1 h    0.876 --   349 o    0.809
   351   1 h    0.873 --   349 o    0.804
   352   8 o    1.824 --   354 h    0.887   353 h    0.834
   353   1 h    0.892 --   352 o    0.834
   354   1 h    0.903 --   352 o    0.887
   355   8 o    1.830 --   356 h    0.880   357 h    0.837
   356   1 h    0.902 --   355 o    0.880
   357   1 h    0.888 --   355 o    0.837
   358   8 o    1.855 --   359 h    0.860   360 h    0.849
   359   1 h    0.899 --   358 o    0.860
   360   1 h    0.896 --   358 o    0.849
   361   8 o    1.862 --   363 h    0.911   362 h    0.779
   362   1 h    0.875 --   361 o    0.779
   363   1 h    0.919 --   361 o    0.911
   364   8 o    1.848 --   366 h    0.873   365 h    0.799
   365   1 h    0.881 --   364 o    0.799
   366   1 h    0.899 --   364 o    0.873
   367   8 o    1.854 --   369 h    0.860   368 h    0.831
   368   1 h    0.878 --   367 o    0.831
   369   1 h    0.896 --   367 o    0.860
   370   8 o    1.808 --   371 h    0.872   372 h    0.834
   371   1 h    0.902 --   370 o    0.872
   372   1 h    0.895 --   370 o    0.834
   373   8 o    1.831 --   375 h    0.862   374 h    0.825
   374   1 h    0.891 --   373 o    0.825
   375   1 h    0.896 --   373 o    0.862
   376   8 o    1.864 --   377 h    0.813   378 h    0.800
   377   1 h    0.888 --   376 o    0.813
   378   1 h    0.881 --   376 o    0.800
   379   8 o    1.857 --   381 h    0.874   380 h    0.776
   380   1 h    0.870 --   379 o    0.776
   381   1 h    0.900 --   379 o    0.874
   382   8 o    1.860 --   383 h    0.913   384 h    0.851
   383   1 h    0.917 --   382 o    0.913
   384   1 h    0.889 --   382 o    0.851
   385   8 o    1.872 --   387 h    0.819   386 h    0.788
   386   1 h    0.868 --   385 o    0.788
   387   1 h    0.888 --   385 o    0.819
   388   8 o    1.839 --   390 h    0.864   389 h    0.825
   389   1 h    0.880 --   388 o    0.825
   390   1 h    0.899 --   388 o    0.864
   391   8 o    1.835 --   392 h    0.910   393 h    0.776
   392   1 h    0.921 --   391 o    0.910
   393   1 h    0.879 --   391 o    0.776   262 o    0.101
   394   8 o    1.888 --   396 h    0.836   395 h    0.809
   395   1 h    0.876 --   394 o    0.809
   396   1 h    0.886 --   394 o    0.836
   397   8 o    1.846 --   398 h    0.908   399 h    0.833
   398   1 h    0.911 --   397 o    0.908
   399   1 h    0.885 --   397 o    0.833
   400   8 o    1.867 --   401 h    0.858   402 h    0.827
   401   1 h    0.899 --   400 o    0.858
   402   1 h    0.875 --   400 o    0.827
   403   8 o    1.836 --   405 h    0.844   404 h    0.824
   404   1 h    0.890 --   403 o    0.824
   405   1 h    0.891 --   403 o    0.844
   406   8 o    1.839 --   408 h    0.850   407 h    0.845
   407   1 h    0.894 --   406 o    0.845
   408   1 h    0.892 --   406 o    0.850
   409   8 o    1.839 --   410 h    0.863   411 h    0.842
   410   1 h    0.888 --   409 o    0.863
   411   1 h    0.895 --   409 o    0.842
   412   8 o    1.893 --   414 h    0.820   413 h    0.792
   413   1 h    0.885 --   412 o    0.792
   414   1 h    0.885 --   412 o    0.820
   415   8 o    1.863 --   417 h    0.834   416 h    0.820
   416   1 h    0.889 --   415 o    0.820
   417   1 h    0.889 --   415 o    0.834
   418   8 o    1.850 --   419 h    0.890   420 h    0.877
   419   1 h    0.902 --   418 o    0.890
   420   1 h    0.895 --   418 o    0.877
   421   8 o    1.853 --   423 h    0.884   422 h    0.825
   422   1 h    0.884 --   421 o    0.825
   423   1 h    0.904 --   421 o    0.884
   424   8 o    1.876 --   426 h    0.864   425 h    0.817
   425   1 h    0.886 --   424 o    0.817
   426   1 h    0.896 --   424 o    0.864
   427   8 o    1.875 --   428 h    0.824   429 h    0.780
   428   1 h    0.881 --   427 o    0.824
   429   1 h    0.868 --   427 o    0.780
   430   8 o    1.855 --   431 h    0.871   432 h    0.827
   431   1 h    0.899 --   430 o    0.871
   432   1 h    0.884 --   430 o    0.827
   433   8 o    1.860 --   435 h    0.911   434 h    0.789
   434   1 h    0.876 --   433 o    0.789
   435   1 h    0.918 --   433 o    0.911
   436   8 o    1.856 --   437 h    0.882   438 h    0.827
   437   1 h    0.903 --   436 o    0.882
   438   1 h    0.882 --   436 o    0.827
   439   8 o    1.862 --   440 h    0.857   441 h    0.818
   440   1 h    0.899 --   439 o    0.857
   441   1 h    0.884 --   439 o    0.818
   442   8 o    1.835 --   443 h    0.822   444 h    0.811
   443   1 h    0.890 --   442 o    0.822
   444   1 h    0.880 --   442 o    0.811
   445   8 o    1.871 --   447 h    0.866   446 h    0.781
   446   1 h    0.866 --   445 o    0.781
   447   1 h    0.896 --   445 o    0.866
   448   8 o    1.891 --   450 h    0.829   449 h    0.807
   449   1 h    0.885 --   448 o    0.807
   450   1 h    0.873 --   448 o    0.829
   451   8 o    1.841 --   453 h    0.865   452 h    0.843
   452   1 h    0.896 --   451 o    0.843
   453   1 h    0.902 --   451 o    0.865
   454   8 o    1.845 --   456 h    0.849   455 h    0.818
   455   1 h    0.883 --   454 o    0.818
   456   1 h    0.898 --   454 o    0.849
   457   8 o    1.849 --   458 h    0.904   459 h    0.788
   458   1 h    0.914 --   457 o    0.904
   459   1 h    0.874 --   457 o    0.788
   460   8 o    1.854 --   462 h    0.822   461 h    0.787
   461   1 h    0.877 --   460 o    0.787
   462   1 h    0.888 --   460 o    0.822
   463   8 o    1.838 --   465 h    0.815   464 h    0.814
   464   1 h    0.891 --   463 o    0.814
   465   1 h    0.888 --   463 o    0.815
   466   8 o    1.856 --   467 h    0.888   468 h    0.793
   467   1 h    0.908 --   466 o    0.888
   468   1 h    0.877 --   466 o    0.793
   469   8 o    1.872 --   470 h    0.888   471 h    0.840
   470   1 h    0.905 --   469 o    0.888
   471   1 h    0.884 --   469 o    0.840
   472   8 o    1.834 --   473 h    0.875   474 h    0.775
   473   1 h    0.903 --   472 o    0.875
   474   1 h    0.874 --   472 o    0.775
   475   8 o    1.829 --   476 h    0.850   477 h    0.842
   476   1 h    0.900 --   475 o    0.850
   477   1 h    0.890 --   475 o    0.842
   478   8 o    1.838 --   480 h    0.839   479 h    0.836
   479   1 h    0.898 --   478 o    0.836
   480   1 h    0.891 --   478 o    0.839
   481   8 o    1.848 --   482 h    0.864   483 h    0.860
   482   1 h    0.895 --   481 o    0.864
   483   1 h    0.887 --   481 o    0.860
   484   8 o    1.885 --   486 h    0.817   485 h    0.798
   485   1 h    0.877 --   484 o    0.798
   486   1 h    0.886 --   484 o    0.817
   487   8 o    1.868 --   488 h    0.846   489 h    0.823
   488   1 h    0.893 --   487 o    0.846
   489   1 h    0.886 --   487 o    0.823
   490   8 o    1.888 --   492 h    0.844   491 h    0.818
   491   1 h    0.882 --   490 o    0.818
   492   1 h    0.896 --   490 o    0.844
   493   8 o    1.865 --   495 h    0.861   494 h    0.834
   494   1 h    0.890 --   493 o    0.834
   495   1 h    0.891 --   493 o    0.861
   496   8 o    1.849 --   497 h    0.844   498 h    0.837
   497   1 h    0.892 --   496 o    0.844
   498   1 h    0.893 --   496 o    0.837
   499   8 o    1.900 --   501 h    0.914   500 h    0.751
   500   1 h    0.874 --   499 o    0.751   163 o    0.120
   501   1 h    0.918 --   499 o    0.914
   502   8 o    1.850 --   503 h    0.877   504 h    0.847
   503   1 h    0.899 --   502 o    0.877
   504   1 h    0.889 --   502 o    0.847
   505   8 o    1.892 --   506 h    0.825   507 h    0.804
   506   1 h    0.890 --   505 o    0.825
   507   1 h    0.878 --   505 o    0.804
   508   8 o    1.845 --   509 h    0.870   510 h    0.833
   509   1 h    0.899 --   508 o    0.870
   510   1 h    0.884 --   508 o    0.833
   511   8 o    1.814 --   512 h    0.866   513 h    0.834
   512   1 h    0.903 --   511 o    0.866
   513   1 h    0.887 --   511 o    0.834
   514   8 o    1.841 --   515 h    0.869   516 h    0.864
   515   1 h    0.899 --   514 o    0.869
   516   1 h    0.903 --   514 o    0.864
   517   8 o    1.837 --   518 h    0.887   519 h    0.810
   518   1 h    0.906 --   517 o    0.887
   519   1 h    0.881 --   517 o    0.810
   520   8 o    1.867 --   522 h    0.833   521 h    0.818
   521   1 h    0.875 --   520 o    0.818
   522   1 h    0.890 --   520 o    0.833
   523   8 o    1.837 --   524 h    0.885   525 h    0.831
   524   1 h    0.902 --   523 o    0.885
   525   1 h    0.889 --   523 o    0.831
   526   8 o    1.823 --   527 h    0.871   528 h    0.860
   527   1 h    0.893 --   526 o    0.871
   528   1 h    0.887 --   526 o    0.860
   529   8 o    1.799 --   530 h    0.828   531 h    0.812
   530   1 h    0.891 --   529 o    0.828
   531   1 h    0.876 --   529 o    0.812
 ---------------------------------------------------------------------------

Topologies differ in total number of bonds
Writing topology from bond orders to xtbtopo.mol

molecular dipole:
                 x           y           z       tot (Debye)
 q only:        2.208       0.526      -1.834
   full:        4.254       1.180      -2.448      12.832
molecular quadrupole (traceless):
                xx          xy          yy          xz          yz          zz
 q only:      178.428     -25.153     -90.253      92.813      54.168     -88.174
  q+dip:      259.074     -31.291    -135.969     120.472      75.238    -123.105
   full:      262.043     -31.672    -137.344     120.799      74.455    -124.699


           -------------------------------------------------
          | TOTAL ENERGY             -901.186691346912 Eh   |
          | GRADIENT NORM               0.097504992871 Eh/α |
          | HOMO-LUMO GAP               6.434177854528 eV   |
           -------------------------------------------------

------------------------------------------------------------------------
 * finished run on 2022/11/17 at 06:55:19.248     
------------------------------------------------------------------------
 total:
 * wall-time:     0 d,  0 h,  0 min, 19.510 sec
 *  cpu-time:     0 d,  0 h,  0 min, 25.839 sec
 * ratio c/w:     1.324 speedup
 SCF:
 * wall-time:     0 d,  0 h,  0 min, 18.923 sec
 *  cpu-time:     0 d,  0 h,  0 min, 24.808 sec
 * ratio c/w:     1.311 speedup

