531
 energy: -901.147575134990 gnorm: 0.054101617600 xtb: 6.5.1 (579679a)
o           -0.45335920793870       -2.35669109275319       -1.06681700892394
h           -0.45960377825937       -2.61779899932833       -0.11633825910628
h            0.40390637652655       -1.90455876970050       -1.17352773382356
o           -0.16465078232408       -2.64985168695478        1.51182602413714
h            0.68299914093331       -2.18280450018571        1.55079619702173
h           -0.10691304548091       -3.39955307349965        2.13001985878322
o            2.37306677833367        3.23344259631077        0.77840607458155
h            1.68680758940306        3.87678384472325        0.50107739311176
h            3.12152513889430        3.34854504453177        0.18542902959622
o            2.12970937921195       -1.51694185286282       -1.28569953681674
h            2.34490292094683       -1.74124898705198       -2.20054145364013
h            2.63993701797450       -0.70893784782707       -1.08358440086829
o           -5.57949416435080       -1.22784720668401        2.82151579172825
h           -4.92798967649583       -0.70405108208007        2.33746609083695
h           -5.88000146277060       -0.69613174531480        3.57397979011670
o            3.29053873851374       -4.02905230529650       -2.03636154297222
h            2.34020924598227       -3.93409778680613       -2.21896250123135
h            3.49973316810517       -4.93609973074302       -2.30806358946487
o           -2.85855544789168       -2.50506294768763        2.45687667195823
h           -2.37194665263798       -3.15698618070397        1.91963917530146
h           -2.19912182677196       -2.07967137095401        3.02737969292882
o            4.23982459514141       -1.83836348004226        3.73802554979696
h            4.48536204156116       -1.74005072996303        2.80492875846686
h            4.24898139619186       -0.95128888534209        4.12460983913081
o           -1.97883701060919       -4.42543901832056        0.65090562631083
h           -2.25915757930186       -3.94779177443526       -0.15074677691415
h           -1.09340471135732       -4.79666164147972        0.48270312251635
o           -0.01396638610439        3.39119930257468        2.99552127258440
h           -0.66775649714768        4.10926006295474        3.03174393712355
h            0.82638260773087        3.80628797546402        3.25339209795962
o           -2.23041340636891       -0.42217919083129       -1.47061944936025
h           -1.71080638917629       -1.24599804740009       -1.32068656877053
h           -2.76525896514744       -0.57580352157885       -2.25845761196703
o            2.52412901951867        4.32343609368421        3.25594084232329
h            2.65286190807513        3.88299901094654        2.39068250409959
h            3.25294239590178        4.02304056845432        3.83368122972217
o            0.56356348331423        5.09112941466023        0.07556650468897
h            0.45684205531550        5.96500608138445        0.48401441399436
h           -0.31617180006653        4.66388226119868        0.12135358274102
o           -5.49089504837063        1.81025567094973        2.77614018503804
h           -4.79725244662522        2.08640179972953        2.13417955439709
h           -6.26693098297229        1.59526677059592        2.22713252157337
o           -1.52951178309637        2.51861002483096       -2.17423932978026
h           -1.59048708443912        3.45115493111200       -2.46396290670068
h           -1.59882118306633        1.99092077268799       -2.98981829541348
o           -1.57209566594562        7.13538960299938       -1.69676546387907
h           -1.53508595827909        6.31581086593764       -2.22530075444326
h           -0.71975237132375        7.56546497439863       -1.83239479349554
o           -3.69026967992765        4.46882458959559       -1.62586572595704
h           -3.68814025712528        4.05531551835970       -2.51596139877674
h           -4.42681399609334        4.05738038916831       -1.12788826315776
o           -0.16102067616074       -1.64668924972502       -4.28086528703404
h           -1.01703472734232       -1.94962581821956       -3.89014486668355
h           -0.37367458593177       -1.46632319245867       -5.21505426656279
o            4.06777519660367        1.31688851722301        2.25670145902997
h            4.27523143845657        2.24288061681229        2.04830981116401
h            3.11740693147598        1.28551973573310        2.53664847595723
o            4.61598782864212       -1.00642816432672        1.11592423756779
h            4.50305983411918       -0.08752032087995        1.42778524643402
h            5.31473612081447       -0.99801086280733        0.44814404962259
o           -4.48346648163725        6.93725291878213       -1.84868440538424
h           -3.73709514098317        7.51856253335003       -2.01478165107430
h           -4.09063752008278        6.02767167427019       -1.81809255682279
o            0.14184964903940        0.25341630868875       -2.43618564637808
h            0.15067254032125       -0.49433728353659       -3.06361877006639
h           -0.77584849201917        0.26632723229092       -2.09943042062080
o            6.86766043423868        2.45365661445693        3.24914153245420
h            7.73286733956704        2.87983133281764        3.25996032835041
h            6.98760500421044        1.56180134860061        2.88695982335629
o            9.91302975239842       -1.03556688052300        1.29739558763122
h           10.61771566081940       -0.40074064072068        1.15935477443857
h           10.04013826350569       -1.73687984275724        0.62672249365441
o           -4.10996937238933        1.75219226593698       -1.55690281305495
h           -3.18082133949294        1.97844646614543       -1.73631749950964
h           -4.31135079200559        1.02340124245170       -2.16908634795865
o            3.41726538445620        0.77918426810962       -0.88235443223758
h            4.24247375619590        0.98540651907695       -0.42200366394796
h            3.43059564011960        1.30190656391288       -1.69988986038927
o           -3.63348252529616       -2.17499840641010        5.42227111793783
h           -3.68927859381967       -1.35534247485541        4.89581385328059
h           -4.54969735949271       -2.47311120215195        5.54896992678300
o           -2.05846324272165        1.33576461747175       -4.51284114361169
h           -1.60833425818329        1.76977445730541       -5.26950268301079
h           -2.57321587726459        0.59595287820938       -4.87149569903682
o           -6.33520835203810        3.20826038804683       -3.96176116603919
h           -6.39213817055643        2.50230969814304       -3.28339830647589
h           -7.05665321490458        3.01995245771778       -4.57345001758860
o            5.43544180231571       -3.19574532550794        5.67011159054392
h            5.00251150608173       -2.67231402177038        4.95349755132911
h            4.76262349193786       -3.24539287780224        6.37101052091619
o            3.24414890001764       -4.50000934520235       -5.11055602645741
h            4.03140043347877       -3.95610072516438       -5.30422604678933
h            2.69217639022789       -4.50744255951261       -5.89624403526356
o           -9.44931782942017       -4.71091309573554       -1.13856638516714
h           -8.97780543766553       -5.55144684955292       -1.08726632062658
h           -9.22986725517979       -4.27105552394378       -0.29213850129626
o           -3.66670791841370        2.32793773122102        0.99339320333578
h           -3.91288269017404        2.03463034673306        0.09371709400513
h           -3.07954207028908        3.10084037651327        0.90494627474152
o            0.72908673965744       -4.05350827652740       -2.79464941762063
h            0.10145317778761       -3.58407021808061       -2.21126129024559
h            0.31121019692688       -4.15258355943571       -3.67105615901002
o            1.70419356019002        1.26362001936530        3.31665331839071
h            1.74029850694028        1.60416657666987        4.23134167172878
h            1.08948226882111        1.84775151847114        2.86225831854782
o            3.78197493481945       -6.43224020713553       -3.16803362427900
h            4.72560128557235       -6.38581923524225       -2.97503989508438
h            3.62378117769602       -5.94703248365170       -3.99486887476792
o            4.74567048471072        0.72654695849313        4.69948302499588
h            5.70325729926855        0.61345123418603        4.82762857650675
h            4.61010904588770        0.94854595449646        3.74140119568389
o           -6.93326673975182       -3.48996969881107       -1.00890582169675
h           -6.36242768771264       -3.30315237734343       -0.23919935140802
h           -7.04398436418008       -4.45677406601372       -0.99705660819577
o            5.94197753532054        1.37749055670056        0.00494587194103
h            6.36462063020945        2.25471292181442        0.08881807785967
h            6.37746915301688        0.83216632449417        0.68058644435702
o           -1.43676250700156        4.93137961528089       -3.33694294680800
h           -0.65384761783784        4.71833316654702       -3.89622199761981
h           -2.21268068991418        4.78148630888767       -3.89053787864720
o            2.43245122722440       -3.57622511780822        0.56045528980276
h            2.30385051665540       -2.80840173184458       -0.02596440479112
h            1.68996360221005       -4.18658175178112        0.35472523508963
o            2.64214056277009       -0.33465786885125        6.14885605862694
h            3.32886049175803        0.24687634509562        5.79688794688186
h            1.92974894396375        0.21206122162569        6.50860192625077
o            2.98946167124650       -3.00344535444891        6.88493146403648
h            2.93984954034958       -2.05057708955329        6.70337525618075
h            2.76872173992615       -3.44998700152038        6.04488086357349
o           -1.13613416699271       -1.21771298482429        4.34068443288392
h           -1.28310230395741       -1.51629821792220        5.24161090599862
h           -1.14387527267485       -0.23875274414943        4.36693699874817
o            1.07344228770898        3.11487184161159       -1.74692170072585
h            1.06116823214781        4.07405707802095       -1.85879308854637
h            0.16085759977629        2.80087238944326       -1.87019478418908
o            1.16147870764122        7.97571960053590       -1.68172701177443
h            1.06835981958047        7.94178142138474       -0.71419288323914
h            1.98296906832605        8.44600590340453       -1.85621466828562
o           -4.19293981619134       -5.70861635357121        1.06722003118630
h           -3.27666754350062       -5.33752399600017        0.97110530920378
h           -4.17940725724704       -6.25626815406207        1.85361659342703
o           -5.90443608170368       -0.79219962260229       -0.97511033073224
h           -5.78377348549874       -1.53100257755822       -1.58963494841844
h           -5.11433422800735       -0.75207325172501       -0.38677318301656
o            8.95409819756533        2.67292162351438       -2.36833356607319
h            8.44602205650291        2.67996207426100       -3.18803463372347
h            8.58834330739847        1.93781558351505       -1.82802994180061
o           -0.83990380057628        2.65789157710873       -6.48564153228113
h           -0.34905227141604        3.37009120173282       -6.05435366429460
h           -0.18104321430319        2.07520129416884       -6.87923608726480
o          -10.13521802358419       -0.20125684772781        0.51658271307281
h           -9.48133318144963       -0.62158551573124       -0.07702627955373
h          -10.65911038337885        0.40542016628620       -0.03161809276675
o            1.65031832888821        2.55512810534268        5.68398308475648
h            2.37201480583136        3.17814523284124        5.78420897015828
h            0.82880096480625        3.07874120616318        5.74566964813371
o           -6.97457642121938        1.30615648481854       -2.18898509501256
h           -7.61806029711872        0.82932118075775       -2.73704199316548
h           -6.48218433370199        0.59470168032509       -1.71635109536175
o           -3.77184569375927        0.31469445680360        4.34035470751479
h           -4.45978434893456        0.86670638798941        3.93480675904001
h           -3.01756310803945        0.37085008549361        3.72446291255547
o            7.93067648221520       -2.16779007357895        5.45822547420183
h            8.32628068171218       -2.55576819178338        4.65444015037451
h            7.08835241146357       -2.63627979981365        5.61769929400656
o            8.44487084540959        0.53319237883182       -0.80994573345565
h            9.21149733178416        0.06141114390230       -1.19296924241961
h            8.73089403277308        0.91313949518139        0.04069848152438
o           -8.67033144829223        2.12085439433346        3.75922074233050
h           -8.27197811634991        2.97085433287303        3.97739207338929
h           -8.41008607363680        1.94053238966284        2.82291700249816
o            1.09816398061535        0.62569691114975       -6.72286101867260
h            1.14137993990596        0.92906565960379       -5.78365999490918
h            1.75010123283090       -0.09760582724444       -6.79561512622277
o           -1.70934280471240       -4.13833473545736        5.41072872720839
h           -1.03948504255956       -3.71607475543339        5.97246646809199
h           -2.43402471687841       -3.49743221621836        5.31269045820409
o            4.14574701616964        8.09296912295784       -1.65000999521678
h            5.05902413123870        8.10089865622235       -1.34259614723779
h            3.72836819349319        7.41720817215313       -1.07608047856429
o           -5.96651715774403        3.55557459072412       -0.49890697621295
h           -6.37887025158694        4.15055971462340       -1.15855154111273
h           -5.92825053699415        2.66942365303872       -0.87760233187870
o           -7.54377293391089       -1.15945647222879        1.07584777688584
h           -6.87455060489959       -1.26953785771622        1.78923495609985
h           -7.02654266559817       -1.09654581376558        0.24363276059671
o           -4.80515809769145        6.61336756143124        0.84105539366940
h           -5.70841333729018        6.31444311956459        1.04439888000353
h           -4.79943341152288        6.79813560298919       -0.11830928942357
o           -8.86648549849326        5.12909342103782       -0.60569614330537
h           -8.27753599053451        5.42418093586064       -1.31560735474160
h           -8.38303205874706        5.29366069786978        0.22183805751863
o            6.66492719894780       -1.51003831950312       -0.72037791386539
h            7.28104321188637       -0.75207970142417       -0.76469397365412
h            7.18220514055605       -2.29996353191602       -0.49149489740031
o            5.02467588902554        3.84610392556955        1.91222844888902
h            5.84522618179690        3.40731927977885        2.21178825669699
h            5.08244320466601        3.90798431612851        0.93523569343149
o            4.79810614914591       -1.94544560270733       -2.70385277864446
h            4.26704412771591       -2.70729069702552       -2.38554523617620
h            5.51214433429934       -1.76655596910400       -2.07360673421661
o           -0.58776994886817        4.22632457559380        5.73091025430324
h           -1.45862291367308        3.80811007359461        5.72511329914065
h           -0.65121574318193        4.93048757556358        5.07685629608416
o           -2.21701157121193       -1.38335420615623        7.56822879284192
h           -2.78779957495594       -1.77584996834186        6.87432365252040
h           -1.62104173480445       -2.07947006587279        7.85740070811338
o           -3.84598561948059       -0.65861981289537        0.66995936594319
h           -3.21223019717856       -0.47305303151141       -0.04973554268552
h           -3.44472901060807       -1.35515074257301        1.22607700094815
o            5.29091107142482       -2.72661497763276       -5.13939232278207
h            5.03849942354287       -2.34517190272169       -4.25756356749579
h            5.47391753004615       -1.95978141597733       -5.71886525412070
o           -5.20067840239652       -3.20802083976938        0.91742435258401
h           -5.25074062625184       -2.73544191251378        1.75693869379663
h           -4.94188406220650       -4.13105231053308        1.11215696361722
o            2.41703134855502       -2.07006041694572       -4.08087627738804
h            2.61484060130273       -3.02092149322782       -4.14682236637014
h            1.43785127080029       -1.99675007374727       -4.12267122291057
o            2.88340219378637       -1.39677456701148       -6.60517144519186
h            2.82701909131728       -1.59858782328776       -5.64016252212250
h            3.81033699068813       -1.25883867240858       -6.82547549305256
o           -6.06868032186591        0.40337974037540       -5.61600851396316
h           -6.55153680576740       -0.43808018055647       -5.60959305035865
h           -6.75267511220656        1.08449718468364       -5.62916116274288
o            8.04628206618938       -1.01317308830059       -3.45977455891244
h            7.32936100720358       -0.47268867934522       -3.06442888469150
h            7.73890490440692       -1.93410876155883       -3.48500492137122
o            5.00678655098520       -3.64095757980271        0.01016647425661
h            4.04352482835350       -3.76621797448109        0.16739043606995
h            5.06421204475710       -2.75578126562651       -0.35701730317694
o          -11.28802418043010       -2.73626062503770       -1.54225706511380
h          -11.59104408421696       -2.67648307948375       -0.62268525402926
h          -10.96974704485904       -3.64346095417023       -1.64633754895773
o            0.04382081073448        0.15503980611574        6.83378584958115
h           -0.73731826049389        0.01182843770257        7.37850098254454
h           -0.23761925765417        0.74796795610575        6.10889105733493
o            3.76518041717771        0.37923880071507       -3.88243739369884
h            3.51090784236822       -0.55215352777301       -3.81187665634502
h            3.93175167002379        0.59533446386680       -4.81539001844234
o            2.85239411796334        6.81119577497732        2.43955581086543
h            2.66566720558715        5.92595085310748        2.83757204213866
h            3.80389097158606        6.94993669300514        2.55757991301504
o            5.59735204659433       -0.51477866124034       -6.60838943529305
h            5.06378302619699        0.29201124820817       -6.68215604404912
h            6.50303467626733       -0.18670101147851       -6.40542398252352
o            1.97021777240912       -0.96453072131344        1.51849847801800
h            1.92070198190281       -0.98602852751917        2.49787442045449
h            2.89115581616694       -1.13396770949357        1.27220595096862
o           -8.80751197686489       -1.64964686375077       -1.37835356912059
h           -8.12190064957415       -2.34631522751561       -1.24554246274219
h           -9.66161353982401       -2.10889826484272       -1.49665051664514
o           -8.40348544704944        1.90482291467606       -5.25417721573293
h           -8.66340470193493        1.20668047664791       -4.62646931367000
h           -9.14395543415090        2.03471016372560       -5.84581461404246
o            1.91488035944299        5.54679836938453       -2.72142057891481
h            1.55434532519254        6.40786780889700       -2.45251389256307
h            2.83466343610819        5.71667042022389       -3.01284137917739
o            7.21891519855027       -0.12085268568739        2.02183080662041
h            6.75801014971155       -0.96378975228266        2.17460312424658
h            8.12234241033309       -0.36245174507262        1.78146646002059
o           11.46195511119343        1.69792165287203       -2.01549430200845
h           11.27444099839035        0.75703795786405       -2.15143669179607
h           10.64733988747089        2.16344629148161       -2.28392700350422
o            6.28420187147025        6.78743241498195       -0.32473333587228
h            7.20826418573854        6.53685720122969       -0.38070059137987
h            6.02950230020054        6.72828866046914        0.60935486546564
o            7.40180700548204        3.51401703067992        0.59797098612211
h            8.13947568364353        2.98472435728584        0.93607369095365
h            7.79366599522677        4.15301876669526       -0.02265700049821
o            0.52279443369680       -5.36200197612932        0.14965708201542
h            0.69278457152565       -5.89662626622846       -0.64715176165892
h            0.68924397115408       -5.94585993016041        0.92124431362966
o            6.42407971239288       -2.79750589905552        2.19083831674050
h            6.13686039554028       -3.45452858499916        2.85608342342098
h            5.99660173375286       -3.10118216568133        1.36623421494454
o            1.07647213132833       -6.72654401853079        2.36180372857863
h            2.01780568299381       -6.52139019456444        2.45696344155033
h            0.60608491486937       -6.02401110810990        2.86417077217056
o          -11.45554042238849       -2.37657988020780        1.20590631251961
h          -11.03523267418369       -1.50105222473693        1.01743184690542
h          -11.95777410299267       -2.26881500880618        2.01351936099166
o           -8.38746220473591       -2.12451250129401        3.89240689987413
h           -9.14554812500265       -1.51755027960626        3.75492602572884
h           -8.42877734870296       -2.74549785898053        3.15449458163538
o           -7.01295770925844       -5.38380922590594        1.95585363464156
h           -7.69188719246951       -4.70256945830915        1.86371352078989
h           -6.30330257969814       -5.01923522403020        2.50132855133407
o           -2.55852044582815       -3.50165853202622       -6.04154117318356
h           -2.10899962193331       -2.77336637659526       -6.48472633076623
h           -3.51009230314382       -3.34196543084225       -6.13801634253310
o            6.09656089257908       -5.19083901260942       -1.88824368731405
h            6.43950322486184       -4.64138368618610       -2.61309451096456
h            5.51874398108704       -4.61229357668516       -1.34119423726815
o           -4.45213629154376       -0.09356361461929       -3.45609499545380
h           -4.97781009377344        0.21309726172933       -4.21277534825106
h           -4.69721635470583       -1.01843240231309       -3.32866856657571
o           -1.69569130347850       -7.14520125738910       -1.14000032643392
h           -1.68700105418520       -7.14419072068321       -0.15943109390865
h           -0.81052107530219       -7.39944061930166       -1.42060270810047
o            8.93266822685350       -2.96364575184189        3.03798442374452
h            9.44534236808896       -2.28217123596692        2.58742551284625
h            8.03209854280533       -2.90161284789685        2.64490624171315
o            3.55819476938096       -5.38630255607459        2.26060213326787
h            3.16809972347315       -4.67695811888571        1.71843703616853
h            4.14231936268768       -5.88387726841120        1.65526244372965
o           -2.94281837907383       -6.11990255981346        3.70016759950939
h           -2.37623562533958       -5.81466274803287        4.41452657923305
h           -3.67281168714755       -5.47281186224869        3.67154602306489
o           -3.49759626420339       -3.12120070552429       -1.11729427784096
h           -3.92528617842328       -3.87255359401610       -1.55829033262662
h           -4.06509639765230       -2.92370419964730       -0.34809691460456
o           -4.82319088511870       -4.16263631790293        3.50180185001313
h           -4.14908753116001       -3.48874459502442        3.27584812897656
h           -5.28933758177081       -3.84979806972729        4.28710005855542
o            7.87286243207873       -3.96021383098312       -0.19825318050691
h            7.83521768217176       -4.45178207897651        0.65380270454226
h            7.38578102826903       -4.51438875906818       -0.83630237991044
o            5.56177161479525        6.38177176351799        2.36602008938784
h            6.22458819510081        6.42373579602451        3.05329437042413
h            5.32980025381666        5.42302896926737        2.24202285539180
o           -7.06951905331060        0.18977585529333        4.70683252041378
h           -7.54570538333170       -0.63826234278380        4.52977322174096
h           -7.68309747318501        0.89912642738178        4.41598986869758
o           -1.52667604605957        5.62523969030704        3.33065185249168
h           -1.48873952737890        6.24907563852931        2.59621617983051
h           -2.45196234901429        5.32126494060865        3.33750975025589
o          -11.47755486544613       -0.34765601174559       -3.12965950963920
h          -11.59737347512984        0.33174212342168       -2.44635696453397
h          -11.58795219740390       -1.20263613492271       -2.69023666760764
o           -8.92334860771793       -3.41325716962797        1.30566602306436
h           -9.86199498243282       -3.16904152768584        1.37257421965682
h           -8.43560958826868       -2.57913795951513        1.10509421887283
o           -8.89900195147681       -0.16096910296570       -3.50585269583744
h           -8.72064448852397       -0.74967427644762       -2.72458600472073
h           -9.88906461612181       -0.15852742899248       -3.51802370800811
o            7.33260525780219       -3.66162001888544       -3.82589915664428
h            6.59287060673270       -3.38516754053388       -4.43032330996777
h            7.98442858262838       -4.10586022457059       -4.36619640551735
o            0.00131070887825       -4.55240564404110        3.41741541134227
h            0.82411164684131       -4.32632791291601        3.89780375897298
h           -0.72195677591906       -4.43834902252284        4.06392595906113
o           -1.95566664575921       -5.10010516362724       -2.85395404171874
h           -1.85130352614175       -5.78645375185005       -2.16391094493882
h           -1.39844533655627       -5.36667824099536       -3.58910627921349
o           -2.07203830356235        7.00113398875530        0.95342188314451
h           -3.02797472637327        7.12227421221651        1.03931381137543
h           -1.87567835367992        7.11427392925855       -0.00373542435331
o            6.11386863737335        0.69774566706529       -2.62544405331884
h            6.05201531711168        0.92559849972563       -1.67684082312746
h            5.20803389801406        0.50975172960658       -2.95040770247004
o            1.07248357079790       -3.33581378141298       -7.07949192758559
h            1.79738543594364       -2.68636030736763       -7.04772464233304
h            0.29339976817930       -2.81330317629006       -7.29755574605440
o           -1.58637138202136       -7.25696083602032        1.55603095863619
h           -0.68573058307974       -7.40184818467832        1.86133207021123
h           -2.05623341702886       -6.85600628982005        2.30750307311639
o            7.86157395612602        0.54408950232114       -5.71401273057058
h            7.60111277279086        1.39486659878845       -5.32774010390802
h            8.08269914471065       -0.03447460050174       -4.96422626083355
o           10.28736761436828       -3.04642084746185       -0.48159115101919
h            9.37471462364170       -3.43972953297218       -0.44307982729253
h           10.89957321576958       -3.75175771892290       -0.27460865052243
o           -4.53952455703602       -7.04661884793523       -1.17822789798771
h           -4.43204494390806       -6.59012762448757       -0.30904702732747
h           -3.66884079531553       -7.42287345152749       -1.35431826765058
o           -7.02556972638806        5.12188602360623        1.43406794145121
h           -6.61148573010571        4.40378633792952        0.91899881093818
h           -7.01958255504371        4.83426300159124        2.35573998124154
o           -7.78083411141722       -1.80803421075594       -5.34187563259653
h           -7.95740384523567       -2.67559119916625       -4.95742616656455
h           -8.26867028355680       -1.19487671404264       -4.75918904225627
o           -6.24720119390326       -2.91621586714206        5.58116568879598
h           -6.33433354621917       -2.29569660261185        6.33563270529837
h           -7.02775134048562       -2.75832725939054        5.03194693635086
o           -7.76234030153299        1.45686830463593        1.38570263523872
h           -8.22663522505702        1.87473616046747        0.63352129212399
h           -7.84042982478792        0.48457374094245        1.25643388333158
o            4.44428437747235        3.71147614146030       -4.93905173946921
h            4.03508688653630        3.36467037393585       -4.10381273336031
h            4.38627921875391        4.67004767672647       -4.86855587440953
o            9.42788096480882        3.66215697053561        3.60250255987034
h            9.63614446408656        4.24642864152909        4.33135231514990