      -----------------------------------------------------------      
     |                   =====================                   |     
     |                           x T B                           |     
     |                   =====================                   |     
     |                         S. Grimme                         |     
     |          Mulliken Center for Theoretical Chemistry        |     
     |                    University of Bonn                     |     
      -----------------------------------------------------------      

   * xtb version 6.5.1 (579679a) compiled by 'ehlert@majestix' on 2022-07-11

   xtb is free software: you can redistribute it and/or modify it under
   the terms of the GNU Lesser General Public License as published by
   the Free Software Foundation, either version 3 of the License, or
   (at your option) any later version.
   
   xtb is distributed in the hope that it will be useful,
   but WITHOUT ANY WARRANTY; without even the implied warranty of
   MERCHANTABILITY or FITNESS FOR A PARTICULAR PURPOSE.  See the
   GNU Lesser General Public License for more details.
   
   Cite this work as:
   * C. Bannwarth, E. Caldeweyher, S. Ehlert, A. Hansen, P. Pracht,
     J. Seibert, S. Spicher, S. Grimme, WIREs Comput. Mol. Sci., 2020, 11,
     e01493. DOI: 10.1002/wcms.1493
   
   for GFN2-xTB:
   * C. Bannwarth, S. Ehlert and S. Grimme., J. Chem. Theory Comput., 2019,
     15, 1652-1671. DOI: 10.1021/acs.jctc.8b01176
   for GFN1-xTB:
   * S. Grimme, C. Bannwarth, P. Shushkov, J. Chem. Theory Comput., 2017,
     13, 1989-2009. DOI: 10.1021/acs.jctc.7b00118
   for GFN0-xTB:
   * P. Pracht, E. Caldeweyher, S. Ehlert, S. Grimme, ChemRxiv, 2019, preprint.
     DOI: 10.26434/chemrxiv.8326202.v1
   for GFN-FF:
   * S. Spicher and S. Grimme, Angew. Chem. Int. Ed., 2020, 59, 15665-15673.
     DOI: 10.1002/anie.202004239
   
   for ALPB and GBSA implicit solvation:
   * S. Ehlert, M. Stahn, S. Spicher, S. Grimme, J. Chem. Theory Comput.,
     2021, 17, 4250-4261. DOI: 10.1021/acs.jctc.1c00471
   
   for DFT-D4:
   * E. Caldeweyher, C. Bannwarth and S. Grimme, J. Chem. Phys., 2017,
     147, 034112. DOI: 10.1063/1.4993215
   * E. Caldeweyher, S. Ehlert, A. Hansen, H. Neugebauer, S. Spicher,
     C. Bannwarth and S. Grimme, J. Chem. Phys., 2019, 150, 154122.
     DOI: 10.1063/1.5090222
   * E. Caldeweyher, J.-M. Mewes, S. Ehlert and S. Grimme, Phys. Chem. Chem. Phys.
     2020, 22, 8499-8512. DOI: 10.1039/D0CP00502A
   
   for sTDA-xTB:
   * S. Grimme and C. Bannwarth, J. Chem. Phys., 2016, 145, 054103.
     DOI: 10.1063/1.4959605
   
   in the mass-spec context:
   * V. Asgeirsson, C. Bauer and S. Grimme, Chem. Sci., 2017, 8, 4879.
     DOI: 10.1039/c7sc00601b
   * J. Koopman and S. Grimme, ACS Omega 2019, 4, 12, 15120-15133.
     DOI: 10.1021/acsomega.9b02011
   
   for metadynamics refer to:
   * S. Grimme, J. Chem. Theory Comput., 2019, 155, 2847-2862
     DOI: 10.1021/acs.jctc.9b00143
   
   for SPH calculations refer to:
   * S. Spicher and S. Grimme, J. Chem. Theory Comput., 2021, 17, 1701-1714
     DOI: 10.1021/acs.jctc.0c01306
   
   with help from (in alphabetical order)
   P. Atkinson, C. Bannwarth, F. Bohle, G. Brandenburg, E. Caldeweyher
   M. Checinski, S. Dohm, S. Ehlert, S. Ehrlich, I. Gerasimov, C. Hölzer
   A. Katbashev, J. Koopman, C. Lavigne, S. Lehtola, F. März, M. Müller,
   F. Musil, H. Neugebauer, J. Pisarek, C. Plett, P. Pracht, F. Pultar,
   J. Seibert, P. Shushkov, S. Spicher, M. Stahn, M. Steiner, T. Strunk,
   J. Stückrath, T. Rose, and J. Unsleber
   
 * started run on 2022/11/24 at 12:04:44.002     

           -------------------------------------------------
          |                Calculation Setup                |
           -------------------------------------------------

          program call               : xtb solvent_cluster.coord --gfn2 --input xcontrol --opt 1
          hostname                   : cn0430
          coordinate file            : solvent_cluster.coord
          omp threads                :                     2

   ID    Z sym.   atoms
    1    8 o      1, 4, 7, 10, 13, 16, 19, 22, 25, 28, 31, 34, 37, 40, 43,
                  46, 49, 52, 55, 58, 61, 64, 67, 70, 73, 76, 79, 82, 85, 88,
                  91, 94, 97, 100, 103, 106, 109, 112, 115, 118, 121, 124,
                  127, 130, 133, 136, 139, 142, 145, 148, 151, 154, 157, 160,
                  163, 166, 169, 172, 175, 178, 181, 184, 187, 190, 193, 196,
                  199, 202, 205, 208, 211, 214, 217, 220, 223, 226, 229, 232,
                  235, 238, 241, 244, 247, 250, 253, 256, 259, 262, 265, 268,
                  271, 274, 277, 280, 283, 286, 289, 292, 295, 298, 301, 304,
                  307, 310, 313, 316, 319, 322, 325, 328, 331, 334, 337, 340,
                  343, 346, 349, 352, 355, 358, 361, 364, 367, 370, 373, 376,
                  379, 382, 385, 388, 391, 394, 397, 400, 403, 406, 409, 412,
                  415, 418, 421, 424, 427, 430, 433, 436, 439, 442, 445, 448,
                  451, 454, 457, 460, 463, 466, 469, 472, 475, 478, 481, 484,
                  487, 490, 493, 496, 499, 502, 505, 508, 511, 514, 517, 520,
                  523, 526, 529, 532, 535, 538, 541, 544, 547, 550, 553, 556,
                  559, 562, 565, 568, 571, 574, 577, 580, 583, 586, 589, 592,
                  595, 598, 601, 604, 607, 610, 613, 616, 619, 622, 625, 628,
                  631, 634, 637, 640, 643, 646, 649, 652, 655, 658, 661, 664,
                  667, 670, 673, 676, 679, 682, 685, 688, 691, 694, 697, 700,
                  703, 706, 709, 712, 715, 718, 721, 724, 727, 730, 733, 736,
                  739, 742, 745, 748, 751, 754
    2    1 h      2, 3, 5, 6, 8, 9, 11, 12, 14, 15, 17, 18, 20, 21, 23, 24,
                  26, 27, 29, 30, 32, 33, 35, 36, 38, 39, 41, 42, 44, 45, 47,
                  48, 50, 51, 53, 54, 56, 57, 59, 60, 62, 63, 65, 66, 68, 69,
                  71, 72, 74, 75, 77, 78, 80, 81, 83, 84, 86, 87, 89, 90, 92,
                  93, 95, 96, 98, 99, 101, 102, 104, 105, 107, 108, 110, 111,
                  113, 114, 116, 117, 119, 120, 122, 123, 125, 126, 128, 129,
                  131, 132, 134, 135, 137, 138, 140, 141, 143, 144, 146, 147,
                  149, 150, 152, 153, 155, 156, 158, 159, 161, 162, 164, 165,
                  167, 168, 170, 171, 173, 174, 176, 177, 179, 180, 182, 183,
                  185, 186, 188, 189, 191, 192, 194, 195, 197, 198, 200, 201,
                  203, 204, 206, 207, 209, 210, 212, 213, 215, 216, 218, 219,
                  221, 222, 224, 225, 227, 228, 230, 231, 233, 234, 236, 237,
                  239, 240, 242, 243, 245, 246, 248, 249, 251, 252, 254, 255,
                  257, 258, 260, 261, 263, 264, 266, 267, 269, 270, 272, 273,
                  275, 276, 278, 279, 281, 282, 284, 285, 287, 288, 290, 291,
                  293, 294, 296, 297, 299, 300, 302, 303, 305, 306, 308, 309,
                  311, 312, 314, 315, 317, 318, 320, 321, 323, 324, 326, 327,
                  329, 330, 332, 333, 335, 336, 338, 339, 341, 342, 344, 345,
                  347, 348, 350, 351, 353, 354, 356, 357, 359, 360, 362, 363,
                  365, 366, 368, 369, 371, 372, 374, 375, 377, 378, 380, 381,
                  383, 384, 386, 387, 389, 390, 392, 393, 395, 396, 398, 399,
                  401, 402, 404, 405, 407, 408, 410, 411, 413, 414, 416, 417,
                  419, 420, 422, 423, 425, 426, 428, 429, 431, 432, 434, 435,
                  437, 438, 440, 441, 443, 444, 446, 447, 449, 450, 452, 453,
                  455, 456, 458, 459, 461, 462, 464, 465, 467, 468, 470, 471,
                  473, 474, 476, 477, 479, 480, 482, 483, 485, 486, 488, 489,
                  491, 492, 494, 495, 497, 498, 500, 501, 503, 504, 506, 507,
                  509, 510, 512, 513, 515, 516, 518, 519, 521, 522, 524, 525,
                  527, 528, 530, 531, 533, 534, 536, 537, 539, 540, 542, 543,
                  545, 546, 548, 549, 551, 552, 554, 555, 557, 558, 560, 561,
                  563, 564, 566, 567, 569, 570, 572, 573, 575, 576, 578, 579,
                  581, 582, 584, 585, 587, 588, 590, 591, 593, 594, 596, 597,
                  599, 600, 602, 603, 605, 606, 608, 609, 611, 612, 614, 615,
                  617, 618, 620, 621, 623, 624, 626, 627, 629, 630, 632, 633,
                  635, 636, 638, 639, 641, 642, 644, 645, 647, 648, 650, 651,
                  653, 654, 656, 657, 659, 660, 662, 663, 665, 666, 668, 669,
                  671, 672, 674, 675, 677, 678, 680, 681, 683, 684, 686, 687,
                  689, 690, 692, 693, 695, 696, 698, 699, 701, 702, 704, 705,
                  707, 708, 710, 711, 713, 714, 716, 717, 719, 720, 722, 723,
                  725, 726, 728, 729, 731, 732, 734, 735, 737, 738, 740, 741,
                  743, 744, 746, 747, 749, 750, 752, 753, 755, 756

molecular fragmentation (1/2 indicates fragments):
111222222222222222222222222222222222222222222222222222222222222222222222
222222222222222222222222222222222222222222222222222222222222222222222222
222222222222222222222222222222222222222222222222222222222222222222222222
222222222222222222222222222222222222222222222222222222222222222222222222
222222222222222222222222222222222222222222222222222222222222222222222222
222222222222222222222222222222222222222222222222222222222222222222222222
222222222222222222222222222222222222222222222222222222222222222222222222
222222222222222222222222222222222222222222222222222222222222222222222222
222222222222222222222222222222222222222222222222222222222222222222222222
222222222222222222222222222222222222222222222222222222222222222222222222
222222222222222222222222222222222222
# atoms in fragment 1/2:     3   753
 fragment masses (1/2) :       18.02     4521.84
CMA distance (Bohr)    :  18.739
constraining FC (au)   :  0.0500

           -------------------------------------------------
          |                 G F N 2 - x T B                 |
           -------------------------------------------------

        Reference                      10.1021/acs.jctc.8b01176
      * Hamiltonian:
        H0-scaling (s, p, d)           1.850000    2.230000    2.230000
        zeta-weighting                 0.500000
      * Dispersion:
        s8                             2.700000
        a1                             0.520000
        a2                             5.000000
        s9                             5.000000
      * Repulsion:
        kExp                           1.500000    1.000000
        rExp                           1.000000
      * Coulomb:
        alpha                          2.000000
        third order                    shell-resolved
        anisotropic                    true
        a3                             3.000000
        a5                             4.000000
        cn-shift                       1.200000
        cn-exp                         4.000000
        max-rad                        5.000000


          ...................................................
          :                      SETUP                      :
          :.................................................:
          :  # basis functions                1512          :
          :  # atomic orbitals                1512          :
          :  # shells                         1008          :
          :  # electrons                      2016          :
          :  max. iterations                   250          :
          :  Hamiltonian                  GFN2-xTB          :
          :  restarted?                      false          :
          :  GBSA solvation                  false          :
          :  PC potential                    false          :
          :  electronic temp.          300.0000000     K    :
          :  accuracy                    1.0000000          :
          :  -> integral cutoff          0.2500000E+02      :
          :  -> integral neglect         0.1000000E-07      :
          :  -> SCF convergence          0.1000000E-05 Eh   :
          :  -> wf. convergence          0.1000000E-03 e    :
          :  Broyden damping             0.4000000          :
          ...................................................

 iter      E             dE          RMSdq      gap      omega  full diag
   1  -1290.9825993 -0.129098E+04  0.407E+00    8.43       0.0  T
   2  -1291.0628567 -0.802574E-01  0.242E+00    7.11       1.0  T
   3  -1291.0950803 -0.322235E-01  0.214E-01    5.07       1.0  T
   4  -1291.1006343 -0.555407E-02  0.464E-02    5.63       1.0  T
   5  -1291.1007283 -0.939995E-04  0.312E-02    5.53       1.0  T
   6  -1291.1007701 -0.418238E-04  0.436E-03    5.58       1.0  T
   7  -1291.1007727 -0.252161E-05  0.731E-04    5.58       5.0  T
   8  -1291.1007727 -0.264226E-07  0.386E-04    5.57       9.4  T
   9  -1291.1007727 -0.142641E-07  0.646E-05    5.57      56.3  T

   *** convergence criteria satisfied after 9 iterations ***

         #    Occupation            Energy/Eh            Energy/eV
      -------------------------------------------------------------
         1        2.0000           -0.7020510             -19.1038
       ...           ...                  ...                  ...
      1002        2.0000           -0.3508036              -9.5459
      1003        2.0000           -0.3466129              -9.4318
      1004        2.0000           -0.3454007              -9.3988
      1005        2.0000           -0.3438367              -9.3563
      1006        2.0000           -0.3405319              -9.2663
      1007        2.0000           -0.3288987              -8.9498
      1008        2.0000           -0.3040010              -8.2723 (HOMO)
      1009                         -0.0991291              -2.6974 (LUMO)
      1010                         -0.0721783              -1.9641
      1011                         -0.0684500              -1.8626
      1012                         -0.0673921              -1.8338
      1013                         -0.0601734              -1.6374
       ...                                ...                  ...
      1512                          0.4817712              13.1097
      -------------------------------------------------------------
                  HL-Gap            0.2048720 Eh            5.5748 eV
             Fermi-level           -0.2015651 Eh           -5.4849 eV

 SCC (total)                   0 d,  0 h,  0 min, 21.535 sec
 SCC setup                      ...        0 min,  0.042 sec (  0.196%)
 Dispersion                     ...        0 min,  0.119 sec (  0.551%)
 classical contributions        ...        0 min,  0.023 sec (  0.107%)
 integral evaluation            ...        0 min,  0.623 sec (  2.891%)
 iterations                     ...        0 min,  8.062 sec ( 37.434%)
 molecular gradient             ...        0 min, 12.595 sec ( 58.486%)
 printout                       ...        0 min,  0.072 sec (  0.333%)

         :::::::::::::::::::::::::::::::::::::::::::::::::::::
         ::                     SUMMARY                     ::
         :::::::::::::::::::::::::::::::::::::::::::::::::::::
         :: total energy           -1283.279321534476 Eh    ::
         :: gradient norm              0.106539971005 Eh/a0 ::
         :: HOMO-LUMO gap              5.574849941940 eV    ::
         ::.................................................::
         :: SCC energy             -1291.100772704785 Eh    ::
         :: -> isotropic ES            7.154227046108 Eh    ::
         :: -> anisotropic ES         -1.601981632763 Eh    ::
         :: -> anisotropic XC         -0.127628503603 Eh    ::
         :: -> dispersion             -0.799570814057 Eh    ::
         :: repulsion energy           7.662807147061 Eh    ::
         :: add. restraining           0.000000000000 Eh    ::
         :: total charge               0.000000000000 e     ::
         :::::::::::::::::::::::::::::::::::::::::::::::::::::

      ----------------------------------------------------------- 
     |                       L-ANC optimizer                     |
      ----------------------------------------------------------- 
          low memory version by Sebastian Ehlert

          ...................................................
          :                      SETUP                      :
          :.................................................:
          :   energy convergence        0.1000000E-05 Eh    :
          :   grad. convergence         0.8000000E-03 Eh/a0 :
          :   optimization log               true           :
          :   writing optlog all                1     steps :
          :   Hessian reset                    20     steps :
          :   maximium step len.        1.0000000     a0    :
          :   LBFGS images                     20           :
          ...................................................
 * calculating model hessian...
Using Lindh-Hessian (1995)
 Shifting diagonal of input Hessian by   1.000007030450888E-002
 Lowest  eigenvalues of input Hessian
    0.010000    0.010000   -0.000000   -0.000000   -0.000000   -0.000000
   -0.000000   -0.000000   -0.000000   -0.000000   -0.000000   -0.000000
   -0.000000   -0.000000   -0.000000   -0.000000   -0.000000   -0.000000
 Highest eigenvalues
    0.313965    0.316662    1.220036    1.224941    1.429114    1.445078
 

........................................................................
.............................. CYCLE    1 ..............................
........................................................................
   1  -1291.0889734 -0.129109E+04  0.546E-02    5.73       0.0  T
   2  -1291.0890116 -0.381777E-04  0.338E-02    5.76       1.0  T
   3  -1291.0890296 -0.180063E-04  0.304E-03    5.79       1.2  T
   4  -1291.0890302 -0.664337E-06  0.852E-04    5.79       4.3  T
   5  -1291.0890303 -0.156795E-07  0.114E-04    5.79      32.0  T
     SCC iter.                  ...        0 min,  4.062 sec
     gradient                   ...        0 min, 12.415 sec
 * total energy  : -1283.2799284 Eh     change       -0.6068287E-03 Eh
   gradient norm :     0.0550841 Eh/a0  converged?    E=F G=F D=F
   step length   :     0.5242922 a0

........................................................................
.............................. CYCLE    2 ..............................
........................................................................
   1  -1291.1012063 -0.129110E+04  0.398E-02    5.66       0.0  T
   2  -1291.1012328 -0.264411E-04  0.243E-02    5.67       1.0  T
   3  -1291.1012436 -0.108959E-04  0.286E-03    5.67       1.3  T
   4  -1291.1012443 -0.640287E-06  0.783E-04    5.66       4.6  T
   5  -1291.1012443 -0.131345E-07  0.991E-05    5.67      36.7  T
     SCC iter.                  ...        0 min,  3.732 sec
     gradient                   ...        0 min, 12.674 sec
 * total energy  : -1283.2822944 Eh     change       -0.2366013E-02 Eh
   gradient norm :     0.0313670 Eh/a0  converged?    E=F G=F D=F
   step length   :     0.4250661 a0

........................................................................
.............................. CYCLE    3 ..............................
........................................................................
   1  -1291.1087993 -0.129111E+04  0.515E-02    5.70       0.0  T
   2  -1291.1088326 -0.333336E-04  0.318E-02    5.70       1.0  T
   3  -1291.1088485 -0.158636E-04  0.296E-03    5.70       1.2  T
   4  -1291.1088491 -0.606677E-06  0.830E-04    5.71       4.4  T
   5  -1291.1088491 -0.122909E-07  0.103E-04    5.71      35.2  T
     SCC iter.                  ...        0 min,  3.601 sec
     gradient                   ...        0 min, 12.727 sec
 * total energy  : -1283.2818588 Eh     change        0.4355436E-03 Eh
   gradient norm :     0.0224990 Eh/a0  converged?    E=F G=F D=F
   step length   :     0.5193328 a0

........................................................................
.............................. CYCLE    4 ..............................
........................................................................
   1  -1291.1078768 -0.129111E+04  0.182E-02    5.77       0.0  T
   2  -1291.1078807 -0.398822E-05  0.113E-02    5.77       1.0  T
   3  -1291.1078827 -0.192527E-05  0.963E-04    5.78       3.8  T
   4  -1291.1078828 -0.758007E-07  0.269E-04    5.78      13.5  T
   5  -1291.1078828 -0.155410E-08  0.345E-05    5.78     105.4  T
     SCC iter.                  ...        0 min,  3.396 sec
     gradient                   ...        0 min, 12.759 sec
 * total energy  : -1283.2833638 Eh     change       -0.1504986E-02 Eh
   gradient norm :     0.0144984 Eh/a0  converged?    E=F G=F D=F
   step length   :     0.2702295 a0

........................................................................
.............................. CYCLE    5 ..............................
........................................................................
   1  -1291.0750291 -0.129108E+04  0.745E-02    5.73       0.0  T
   2  -1291.0752018 -0.172724E-03  0.439E-02    5.88       1.0  T
   3  -1291.0752376 -0.358020E-04  0.813E-03    5.98       1.0  T
   4  -1291.0752424 -0.481797E-05  0.159E-03    5.95       2.3  T
   5  -1291.0752425 -0.494861E-07  0.245E-04    5.95      14.9  T
   6  -1291.0752425 -0.605064E-08  0.826E-05    5.95      44.0  T
     SCC iter.                  ...        0 min,  4.021 sec
     gradient                   ...        0 min, 12.980 sec
 * total energy  : -1283.2768670 Eh     change        0.6496835E-02 Eh
   gradient norm :     0.1016264 Eh/a0  converged?    E=F G=F D=F
   step length   :     1.6035877 a0

........................................................................
.............................. CYCLE    6 ..............................
........................................................................
   1  -1291.1056765 -0.129111E+04  0.657E-02    5.99       0.0  T
   2  -1291.1057980 -0.121491E-03  0.392E-02    5.90       1.0  T
   3  -1291.1058304 -0.323977E-04  0.676E-03    5.83       1.0  T
   4  -1291.1058343 -0.387545E-05  0.144E-03    5.87       2.5  T
   5  -1291.1058343 -0.383520E-07  0.256E-04    5.86      14.2  T
   6  -1291.1058343 -0.430600E-08  0.560E-05    5.86      65.0  T
     SCC iter.                  ...        0 min,  3.924 sec
     gradient                   ...        0 min, 13.214 sec
 * total energy  : -1283.2845827 Eh     change       -0.7715698E-02 Eh
   gradient norm :     0.0107939 Eh/a0  converged?    E=F G=F D=F
   step length   :     0.6226144 a0

........................................................................
.............................. CYCLE    7 ..............................
........................................................................
   1  -1291.1058671 -0.129111E+04  0.876E-03    5.89       0.0  T
   2  -1291.1058696 -0.242623E-05  0.539E-03    5.89       1.0  T
   3  -1291.1058702 -0.619452E-06  0.847E-04    5.90       4.3  T
   4  -1291.1058703 -0.818807E-07  0.172E-04    5.90      21.2  T
     SCC iter.                  ...        0 min,  2.573 sec
     gradient                   ...        0 min, 12.636 sec
 * total energy  : -1283.2853287 Eh     change       -0.7460516E-03 Eh
   gradient norm :     0.0126595 Eh/a0  converged?    E=F G=F D=F
   step length   :     0.3178868 a0

........................................................................
.............................. CYCLE    8 ..............................
........................................................................
   1  -1291.1015637 -0.129110E+04  0.303E-02    5.93       0.0  T
   2  -1291.1015933 -0.295757E-04  0.187E-02    5.95       1.0  T
   3  -1291.1016007 -0.746520E-05  0.296E-03    5.96       1.2  T
   4  -1291.1016017 -0.100559E-05  0.625E-04    5.96       5.8  T
   5  -1291.1016018 -0.115708E-07  0.108E-04    5.96      33.8  T
   6  -1291.1016018 -0.591854E-09  0.391E-05    5.96      93.1  T
     SCC iter.                  ...        0 min,  3.833 sec
     gradient                   ...        0 min, 13.410 sec
 * total energy  : -1283.2870918 Eh     change       -0.1763107E-02 Eh
   gradient norm :     0.0261331 Eh/a0  converged?    E=F G=F D=F
   step length   :    10.0853638 a0

........................................................................
.............................. CYCLE    9 ..............................
........................................................................
   1  -1291.1009224 -0.129110E+04  0.129E-02    5.97       0.0  T
   2  -1291.1009342 -0.117428E-04  0.755E-03    5.96       1.0  T
   3  -1291.1009359 -0.172712E-05  0.200E-03    5.96       1.8  T
   4  -1291.1009361 -0.229312E-06  0.234E-04    5.96      15.5  T
   5  -1291.1009361 -0.196519E-08  0.533E-05    5.96      68.2  T
     SCC iter.                  ...        0 min,  3.140 sec
     gradient                   ...        0 min, 13.483 sec
 * total energy  : -1283.2876152 Eh     change       -0.5233255E-03 Eh
   gradient norm :     0.0258212 Eh/a0  converged?    E=F G=F D=F
   step length   :     0.6023015 a0

........................................................................
.............................. CYCLE   10 ..............................
........................................................................
   1  -1291.1081519 -0.129111E+04  0.143E-02    5.98       0.0  T
   2  -1291.1081621 -0.102509E-04  0.818E-03    5.95       1.0  T
   3  -1291.1081639 -0.176416E-05  0.186E-03    5.94       2.0  T
   4  -1291.1081641 -0.217716E-06  0.272E-04    5.94      13.3  T
   5  -1291.1081641 -0.163845E-08  0.552E-05    5.94      65.9  T
     SCC iter.                  ...        0 min,  3.124 sec
     gradient                   ...        0 min, 13.148 sec
 * total energy  : -1283.2880287 Eh     change       -0.4134913E-03 Eh
   gradient norm :     0.0067656 Eh/a0  converged?    E=F G=F D=F
   step length   :     0.3267094 a0

........................................................................
.............................. CYCLE   11 ..............................
........................................................................
   1  -1291.1063468 -0.129111E+04  0.122E-02    5.96       0.0  T
   2  -1291.1063501 -0.323487E-05  0.743E-03    5.96       1.0  T
   3  -1291.1063510 -0.982648E-06  0.965E-04    5.97       3.8  T
   4  -1291.1063511 -0.114128E-06  0.281E-04    5.97      12.9  T
     SCC iter.                  ...        0 min,  2.522 sec
     gradient                   ...        0 min, 13.394 sec
 * total energy  : -1283.2883169 Eh     change       -0.2882790E-03 Eh
   gradient norm :     0.0138173 Eh/a0  converged?    E=F G=F D=F
   step length   :     0.1568349 a0

........................................................................
.............................. CYCLE   12 ..............................
........................................................................
   1  -1291.1044830 -0.129110E+04  0.106E-02    5.95       0.0  T
   2  -1291.1044855 -0.253362E-05  0.637E-03    5.93       1.0  T
   3  -1291.1044860 -0.534767E-06  0.863E-04    5.92       4.2  T
   4  -1291.1044861 -0.909481E-07  0.186E-04    5.92      19.6  T
     SCC iter.                  ...        0 min,  2.547 sec
     gradient                   ...        0 min, 13.346 sec
 * total energy  : -1283.2885169 Eh     change       -0.1999683E-03 Eh
   gradient norm :     0.0161005 Eh/a0  converged?    E=F G=F D=F
   step length   :     0.1544946 a0

........................................................................
.............................. CYCLE   13 ..............................
........................................................................
   1  -1291.1054952 -0.129111E+04  0.582E-03    5.93       0.0  T
   2  -1291.1054959 -0.628126E-06  0.345E-03    5.92       1.1  T
   3  -1291.1054960 -0.101440E-06  0.419E-04    5.91       8.7  T
   4  -1291.1054960 -0.217883E-07  0.719E-05    5.92      50.6  T
     SCC iter.                  ...        0 min,  2.548 sec
     gradient                   ...        0 min, 13.361 sec
 * total energy  : -1283.2887002 Eh     change       -0.1833322E-03 Eh
   gradient norm :     0.0099007 Eh/a0  converged?    E=F G=F D=F
   step length   :     0.1398825 a0

........................................................................
.............................. CYCLE   14 ..............................
........................................................................
   1  -1291.1052593 -0.129111E+04  0.159E-02    5.92       0.0  T
   2  -1291.1052680 -0.870826E-05  0.942E-03    5.88       1.0  T
   3  -1291.1052694 -0.134540E-05  0.163E-03    5.85       2.2  T
   4  -1291.1052696 -0.265254E-06  0.247E-04    5.85      14.7  T
   5  -1291.1052696 -0.261389E-08  0.525E-05    5.85      69.3  T
     SCC iter.                  ...        0 min,  3.208 sec
     gradient                   ...        0 min, 13.143 sec
 * total energy  : -1283.2888859 Eh     change       -0.1856673E-03 Eh
   gradient norm :     0.0137944 Eh/a0  converged?    E=F G=F D=F
   step length   :     0.2826013 a0

........................................................................
.............................. CYCLE   15 ..............................
........................................................................
   1  -1291.1084769 -0.129111E+04  0.744E-03    5.90       0.0  T
   2  -1291.1084784 -0.155388E-05  0.448E-03    5.91       1.0  T
   3  -1291.1084789 -0.474473E-06  0.664E-04    5.92       5.5  T
   4  -1291.1084789 -0.450025E-07  0.200E-04    5.92      18.2  T
     SCC iter.                  ...        0 min,  2.552 sec
     gradient                   ...        0 min, 13.101 sec
 * total energy  : -1283.2889741 Eh     change       -0.8818942E-04 Eh
   gradient norm :     0.0134201 Eh/a0  converged?    E=F G=F D=F
   step length   :     0.0889522 a0

........................................................................
.............................. CYCLE   16 ..............................
........................................................................
   1  -1291.1081043 -0.129111E+04  0.104E-02    5.93       0.0  T
   2  -1291.1081087 -0.437655E-05  0.614E-03    5.95       1.0  T
   3  -1291.1081096 -0.976776E-06  0.125E-03    5.96       2.9  T
   4  -1291.1081098 -0.124392E-06  0.229E-04    5.95      15.9  T
   5  -1291.1081098 -0.108435E-08  0.307E-05    5.95     118.5  T
     SCC iter.                  ...        0 min,  3.151 sec
     gradient                   ...        0 min, 13.230 sec
 * total energy  : -1283.2892677 Eh     change       -0.2935677E-03 Eh
   gradient norm :     0.0066644 Eh/a0  converged?    E=F G=F D=F
   step length   :     0.0998513 a0

........................................................................
.............................. CYCLE   17 ..............................
........................................................................
   1  -1291.1051849 -0.129111E+04  0.127E-02    5.93       0.0  T
   2  -1291.1051864 -0.146733E-05  0.785E-03    5.93       1.0  T
   3  -1291.1051872 -0.833636E-06  0.637E-04    5.93       5.7  T
   4  -1291.1051872 -0.228376E-07  0.195E-04    5.93      18.6  T
     SCC iter.                  ...        0 min,  2.514 sec
     gradient                   ...        0 min, 13.114 sec
 * total energy  : -1283.2893771 Eh     change       -0.1094140E-03 Eh
   gradient norm :     0.0165527 Eh/a0  converged?    E=F G=F D=F
   step length   :     0.1747721 a0

........................................................................
.............................. CYCLE   18 ..............................
........................................................................
   1  -1291.1074514 -0.129111E+04  0.446E-03    5.92       0.0  T
   2  -1291.1074533 -0.191930E-05  0.258E-03    5.91       1.4  T
   3  -1291.1074536 -0.290127E-06  0.797E-04    5.91       4.6  T
   4  -1291.1074536 -0.285086E-07  0.111E-04    5.91      32.8  T
     SCC iter.                  ...        0 min,  2.511 sec
     gradient                   ...        0 min, 12.670 sec
 * total energy  : -1283.2895180 Eh     change       -0.1409534E-03 Eh
   gradient norm :     0.0093984 Eh/a0  converged?    E=F G=F D=F
   step length   :     0.0728363 a0

........................................................................
.............................. CYCLE   19 ..............................
........................................................................
   1  -1291.1076047 -0.129111E+04  0.787E-03    5.92       0.0  T
   2  -1291.1076054 -0.749222E-06  0.481E-03    5.92       1.0  T
   3  -1291.1076057 -0.224323E-06  0.416E-04    5.92       8.7  T
   4  -1291.1076057 -0.252239E-07  0.119E-04    5.92      30.6  T
     SCC iter.                  ...        0 min,  2.467 sec
     gradient                   ...        0 min, 12.667 sec
 * total energy  : -1283.2896767 Eh     change       -0.1586782E-03 Eh
   gradient norm :     0.0035897 Eh/a0  converged?    E=F G=F D=F
   step length   :     0.1121915 a0

........................................................................
.............................. CYCLE   20 ..............................
........................................................................
   1  -1291.1038413 -0.129110E+04  0.235E-02    5.88       0.0  T
   2  -1291.1038469 -0.560776E-05  0.145E-02    5.88       1.0  T
   3  -1291.1038500 -0.306856E-05  0.124E-03    5.88       2.9  T
   4  -1291.1038501 -0.927485E-07  0.385E-04    5.88       9.4  T
   5  -1291.1038501 -0.603904E-08  0.534E-05    5.88      68.1  T
     SCC iter.                  ...        0 min,  3.150 sec
     gradient                   ...        0 min, 12.973 sec
 * total energy  : -1283.2895561 Eh     change        0.1205637E-03 Eh
   gradient norm :     0.0241044 Eh/a0  converged?    E=F G=F D=F
   step length   :     0.3323482 a0
 * RMSD in coord.:     0.1418160 a0     energy gain  -0.1023461E-01 Eh
 * calculating model hessian...
Using Lindh-Hessian (1995)
 Shifting diagonal of input Hessian by   1.000006206346370E-002
 Lowest  eigenvalues of input Hessian
    0.010000    0.010000   -0.000000   -0.000000   -0.000000   -0.000000
   -0.000000   -0.000000   -0.000000   -0.000000   -0.000000   -0.000000
   -0.000000   -0.000000   -0.000000   -0.000000   -0.000000   -0.000000
 Highest eigenvalues
    0.298499    0.320388    1.211499    1.244340    1.361601    1.401548
 

........................................................................
.............................. CYCLE   21 ..............................
........................................................................
   1  -1291.1060862 -0.129111E+04  0.145E-02    5.88       0.0  T
   2  -1291.1060892 -0.298117E-05  0.883E-03    5.89       1.0  T
   3  -1291.1060901 -0.928120E-06  0.875E-04    5.89       4.2  T
   4  -1291.1060902 -0.942798E-07  0.257E-04    5.89      14.2  T
     SCC iter.                  ...        0 min,  2.539 sec
     gradient                   ...        0 min, 12.910 sec
 * total energy  : -1283.2906581 Eh     change       -0.1101944E-02 Eh
   gradient norm :     0.0126287 Eh/a0  converged?    E=F G=F D=F
   step length   :     0.2563688 a0

........................................................................
.............................. CYCLE   22 ..............................
........................................................................
   1  -1291.1027069 -0.129110E+04  0.363E-02    5.84       0.0  T
   2  -1291.1027251 -0.181927E-04  0.224E-02    5.82       1.0  T
   3  -1291.1027308 -0.572204E-05  0.199E-03    5.79       1.8  T
   4  -1291.1027314 -0.577891E-06  0.549E-04    5.79       6.6  T
   5  -1291.1027314 -0.867703E-08  0.915E-05    5.79      39.7  T
     SCC iter.                  ...        0 min,  3.187 sec
     gradient                   ...        0 min, 13.129 sec
 * total energy  : -1283.2917054 Eh     change       -0.1047280E-02 Eh
   gradient norm :     0.0307968 Eh/a0  converged?    E=F G=F D=F
   step length   :     0.6358800 a0

........................................................................
.............................. CYCLE   23 ..............................
........................................................................
   1  -1291.1095081 -0.129111E+04  0.187E-02    5.85       0.0  T
   2  -1291.1095154 -0.726497E-05  0.113E-02    5.84       1.0  T
   3  -1291.1095185 -0.314706E-05  0.161E-03    5.84       2.3  T
   4  -1291.1095187 -0.189166E-06  0.458E-04    5.85       7.9  T
   5  -1291.1095187 -0.569071E-08  0.498E-05    5.85      73.1  T
     SCC iter.                  ...        0 min,  3.191 sec
     gradient                   ...        0 min, 13.060 sec
 * total energy  : -1283.2919792 Eh     change       -0.2738321E-03 Eh
   gradient norm :     0.0208002 Eh/a0  converged?    E=F G=F D=F
   step length   :     0.1461965 a0

........................................................................
.............................. CYCLE   24 ..............................
........................................................................
   1  -1291.1094007 -0.129111E+04  0.136E-02    5.84       0.0  T
   2  -1291.1094056 -0.487239E-05  0.820E-03    5.85       1.0  T
   3  -1291.1094073 -0.172041E-05  0.127E-03    5.86       2.9  T
   4  -1291.1094074 -0.144873E-06  0.351E-04    5.86      10.4  T
   5  -1291.1094074 -0.334899E-08  0.416E-05    5.86      87.4  T
     SCC iter.                  ...        0 min,  3.166 sec
     gradient                   ...        0 min, 12.946 sec
 * total energy  : -1283.2925199 Eh     change       -0.5407476E-03 Eh
   gradient norm :     0.0130008 Eh/a0  converged?    E=F G=F D=F
   step length   :     0.1617887 a0

........................................................................
.............................. CYCLE   25 ..............................
........................................................................
   1  -1291.1076864 -0.129111E+04  0.116E-02    5.86       0.0  T
   2  -1291.1076883 -0.192047E-05  0.714E-03    5.85       1.0  T
   3  -1291.1076889 -0.639582E-06  0.668E-04    5.84       5.4  T
   4  -1291.1076890 -0.596860E-07  0.194E-04    5.84      18.8  T
     SCC iter.                  ...        0 min,  2.550 sec
     gradient                   ...        0 min, 12.942 sec
 * total energy  : -1283.2928171 Eh     change       -0.2971953E-03 Eh
   gradient norm :     0.0161383 Eh/a0  converged?    E=F G=F D=F
   step length   :     0.1994306 a0

........................................................................
.............................. CYCLE   26 ..............................
........................................................................
   1  -1291.1087931 -0.129111E+04  0.555E-03    5.87       0.0  T
   2  -1291.1087936 -0.490047E-06  0.336E-03    5.87       1.1  T
   3  -1291.1087938 -0.193351E-06  0.377E-04    5.87       9.6  T
   4  -1291.1087938 -0.134210E-07  0.126E-04    5.87      28.9  T
     SCC iter.                  ...        0 min,  2.458 sec
     gradient                   ...        0 min, 12.396 sec
 * total energy  : -1283.2930221 Eh     change       -0.2049714E-03 Eh
   gradient norm :     0.0069572 Eh/a0  converged?    E=F G=F D=F
   step length   :     0.1032945 a0

........................................................................
.............................. CYCLE   27 ..............................
........................................................................
   1  -1291.1080831 -0.129111E+04  0.112E-02    5.88       0.0  T
   2  -1291.1080867 -0.352591E-05  0.670E-03    5.86       1.0  T
   3  -1291.1080872 -0.502653E-06  0.104E-03    5.84       3.5  T
   4  -1291.1080873 -0.113644E-06  0.139E-04    5.85      26.3  T
   5  -1291.1080873 -0.771479E-09  0.320E-05    5.85     113.8  T
     SCC iter.                  ...        0 min,  3.172 sec
     gradient                   ...        0 min, 12.310 sec
 * total energy  : -1283.2930848 Eh     change       -0.6264364E-04 Eh
   gradient norm :     0.0087524 Eh/a0  converged?    E=F G=F D=F
   step length   :     0.2713766 a0

........................................................................
.............................. CYCLE   28 ..............................
........................................................................
   1  -1291.1099913 -0.129111E+04  0.615E-03    5.86       0.0  T
   2  -1291.1099932 -0.184212E-05  0.356E-03    5.88       1.0  T
   3  -1291.1099935 -0.274401E-06  0.757E-04    5.90       4.8  T
   4  -1291.1099935 -0.385728E-07  0.948E-05    5.89      38.4  T
     SCC iter.                  ...        0 min,  2.392 sec
     gradient                   ...        0 min, 12.214 sec
 * total energy  : -1283.2931621 Eh     change       -0.7737364E-04 Eh
   gradient norm :     0.0048796 Eh/a0  converged?    E=F G=F D=F
   step length   :     0.0995363 a0

........................................................................
.............................. CYCLE   29 ..............................
........................................................................
   1  -1291.1093410 -0.129111E+04  0.146E-03    5.89       0.0  T
   2  -1291.1093412 -0.143993E-06  0.841E-04    5.88       4.3  T
   3  -1291.1093412 -0.250382E-07  0.212E-04    5.88      17.2  T
     SCC iter.                  ...        0 min,  1.797 sec
     gradient                   ...        0 min, 12.151 sec
 * total energy  : -1283.2931783 Eh     change       -0.1616027E-04 Eh
   gradient norm :     0.0015946 Eh/a0  converged?    E=F G=F D=F
   step length   :     0.0232479 a0

........................................................................
.............................. CYCLE   30 ..............................
........................................................................
   1  -1291.1092334 -0.129111E+04  0.149E-03    5.88       0.0  T
   2  -1291.1092334 -0.328112E-07  0.900E-04    5.87       4.0  T
   3  -1291.1092334 -0.615478E-08  0.919E-05    5.87      39.6  T
     SCC iter.                  ...        0 min,  1.763 sec
     gradient                   ...        0 min, 12.153 sec
 * total energy  : -1283.2931852 Eh     change       -0.6907748E-05 Eh
   gradient norm :     0.0011967 Eh/a0  converged?    E=F G=F D=F
   step length   :     0.0212019 a0

........................................................................
.............................. CYCLE   31 ..............................
........................................................................
   1  -1291.1093028 -0.129111E+04  0.150E-03    5.87       0.0  T
   2  -1291.1093028 -0.342961E-07  0.905E-04    5.87       4.0  T
   3  -1291.1093028 -0.795785E-08  0.993E-05    5.87      36.6  T
     SCC iter.                  ...        0 min,  1.817 sec
     gradient                   ...        0 min, 12.131 sec
 * total energy  : -1283.2931900 Eh     change       -0.4764182E-05 Eh
   gradient norm :     0.0006426 Eh/a0  converged?    E=F G=T D=F
   step length   :     0.0219426 a0

........................................................................
.............................. CYCLE   32 ..............................
........................................................................
   1  -1291.1093296 -0.129111E+04  0.662E-04    5.87       0.0  T
   2  -1291.1093297 -0.621844E-08  0.398E-04    5.87       9.1  T
   3  -1291.1093297 -0.147043E-08  0.428E-05    5.87      85.1  T
     SCC iter.                  ...        0 min,  1.788 sec
     gradient                   ...        0 min, 12.746 sec
 * total energy  : -1283.2931916 Eh     change       -0.1588238E-05 Eh
   gradient norm :     0.0004613 Eh/a0  converged?    E=F G=T D=F
   step length   :     0.0162972 a0

........................................................................
.............................. CYCLE   33 ..............................
........................................................................
   1  -1291.1093548 -0.129111E+04  0.525E-04    5.87       0.0  T
   2  -1291.1093548 -0.114694E-07  0.307E-04    5.87      11.9  T
   3  -1291.1093548 -0.229647E-08  0.608E-05    5.87      59.8  T
     SCC iter.                  ...        0 min,  1.869 sec
     gradient                   ...        0 min, 12.774 sec
 * total energy  : -1283.2931926 Eh     change       -0.1053087E-05 Eh
   gradient norm :     0.0003137 Eh/a0  converged?    E=F G=T D=F
   step length   :     0.0208685 a0

........................................................................
.............................. CYCLE   34 ..............................
........................................................................
   1  -1291.1093182 -0.129111E+04  0.470E-04    5.87       0.0  T
   2  -1291.1093182 -0.819159E-08  0.279E-04    5.87      13.1  T
   3  -1291.1093182 -0.187447E-08  0.521E-05    5.87      69.8  T
     SCC iter.                  ...        0 min,  1.870 sec
     gradient                   ...        0 min, 12.639 sec
 * total energy  : -1283.2931928 Eh     change       -0.1817109E-06 Eh
   gradient norm :     0.0005210 Eh/a0  converged?    E=T G=T D=F
   step length   :     0.0087894 a0

   *** GEOMETRY OPTIMIZATION CONVERGED AFTER 34 CYCLES ***

------------------------------------------------------------------------
 total energy gain   :        -0.0138713 Eh       -8.7043 kcal/mol
 total RMSD          :         0.1677161 a0        0.0888 Å
 total power (kW/mol):        -1.0711460 (step)   -0.0625 (real)
------------------------------------------------------------------------

 L-ANCopt (total)              0 d,  0 h,  9 min, 43.032 sec
 setup                          ...        0 min,  0.030 sec (  0.005%)
 model hessian                  ...        0 min, 15.387 sec (  2.639%)
 ANC generation                 ...        0 min,  5.145 sec (  0.882%)
 coordinate transformation      ...        0 min,  0.003 sec (  0.001%)
 Rational function              ...        0 min,  0.000 sec (  0.000%)
 singlepoint calculation        ...        9 min, 22.228 sec ( 96.432%)
 optimization log               ...        0 min,  0.231 sec (  0.040%)
 hessian update                 ...        0 min,  0.001 sec (  0.000%)

================
 final structure:
================
$coord
       12.56371550036000      -13.76592160895200       -0.74019796504500      o
       11.61310886374800      -12.90028493287900       -2.04314865514100      h
       14.27633251530900      -13.90030519376400       -1.35397712460300      h
       -1.40011279037200        6.08538889898600        8.80414474348300      o
        0.12789138161400        5.40434789280200        9.57852146027600      h
       -0.91038581608700        6.78138184036900        7.16979583759900      h
       -2.83662220689500       -5.15071750702200       -3.66123141591500      o
       -1.47986051781600       -5.75120544881300       -4.73194243361900      h
       -3.44805228270800       -6.71355429388600       -2.84867956684300      h
       -8.86761738250100        5.30977790069800       -1.66180790383900      o
       -7.07922729238200        5.13364595901200       -2.08515796181400      h
       -9.83441990742400        4.83659557857800       -3.14088857351900      h
       -4.26479525934300        4.67214539245300        2.85008598442000      o
       -4.68932952693400        6.44138643958400        2.66890832421600      h
       -5.80585811397100        3.82602296686000        3.41517834647700      h
       -8.10256593357800       -5.46153354889100        6.33897588097400      o
       -8.63241433957300       -3.70026542051300        6.60403748263900      h
       -9.53839483257500       -6.44721021326600        6.90068473936300      h
        0.03063750037200       -8.59881624146100       -6.05411721168800      o
       -0.45249920263000      -10.34777498621200       -6.24305619519600      h
        1.49720131946000       -8.63486135402000       -4.91019234424400      h
        0.48035837273100      -11.44296583946200       -0.64524684318400      o
        0.83194676657100      -13.00375214006700        0.26846563833800      h
        1.46295804188600      -10.16193305264100        0.23477114738500      h
       -2.06044132225200       -6.56476864916700        2.24314843385400      o
       -1.80068608636000       -8.12472516751800        3.16644850479800      h
       -3.83224468224500       -6.56076198380100        1.80226847710700      h
        1.02531787458100        4.51238570361100      -10.28626058364600      o
       -0.72164995771000        4.03481981822100       -9.95263927818800      h
        1.61856151906500        5.17951062693100       -8.65376478327900      h
       -5.09503022522200       -1.90950966335900       -6.82458110463800      o
       -4.28742461325700       -3.03122829749000       -5.60538472288100      h
       -6.61602737162200       -2.76881071439100       -7.41233617011400      h
       -2.76908593615700        8.54868696323000       -7.70296454273200      o
       -2.43628976101500        9.41999632618400       -9.27473143498300      h
       -3.33149407251600        6.85587380795600       -8.14066234233100      h
       -7.17596850458000       -6.88200385349100        1.63489845652100      o
       -8.85996349918700       -7.13881345997400        0.93548024172500      h
       -7.49894665711800       -6.35170498369500        3.38366012364200      h
       -4.09027727741000        5.49516172388100       -3.18077319649000      o
       -3.98470525112900        4.90414519947400       -4.90272580439300      h
       -3.82253989466600        7.32052459907300       -3.22389819471800      h
       -0.03487062237000        5.19759582734100       -0.03449052251400      o
       -1.56528569802900        5.06354175253100       -1.05024830488700      h
        0.96765173601800        6.55980905887800       -0.76925029374800      h
       -0.44037124611100        1.47394039853500       -4.93517752255600      o
        0.71380476515600        2.87792562042400       -4.81902843028400      h
        0.53363963164300       -0.05837771109100       -5.27144397795900      h
       -3.81656807040400       -1.56268051541000        4.78525957974800      o
       -4.45161054350700       -0.02957205266200        5.56437579876400      h
       -4.39457795767700       -2.94270698555700        5.80825243529900      h
       -9.90586405413600       -2.02845468019500       13.09506109427300      o
      -11.15151496797100       -0.76053854014800       12.62532791356200      h
      -10.37878171201100       -3.46126578001500       12.04830536765700      h
       -0.78378199263500      -11.17489069485000        4.62246836664900      o
       -0.58066326149400      -11.53271811056300        6.41827351141300      h
        0.90371190421100      -10.76522817911700        4.02803014664700      h
       -6.56136361585200        1.83775502352500       12.64940168857600      o
       -7.51546238872800        0.29972441937500       13.00364125491700      h
       -4.90050328655500        1.74672629848100       13.44072762461500      h
        1.57302653160100       -1.81561171336000        4.03098297515700      o
        0.84795311650400       -3.43263448433100        4.44723280456200      h
        0.30592250883900       -0.52197756853700        4.45615793146500      h
        4.16980770810100        4.17461856108500        4.17425942471500      o
        4.88258601796300        2.86855697125000        5.25202964352600      h
        4.22419847217200        5.70345581743300        5.18764735071900      h
        1.59798854943200       -5.06144286869000       -0.86186981220600      o
        0.36479891464000       -5.69362947096400        0.36337217268200      h
        2.47694195268300       -6.53849716879400       -1.52385808018300      h
        1.74852705027400        9.86612177061400       -1.11737611344100      o
        3.15275084080500        9.86234806537200       -2.30714725742400      h
        2.41910756350300       10.55828018365700        0.43086974712400      h
       -2.69463515061100       -3.06808544021700       14.53843072640700      o
       -2.38114408790000       -1.39130535805700       15.18525885541600      h
       -3.72751382155000       -2.81502087088900       13.02858240185900      h
       -9.20880640279200       -0.71385784793500        7.44633011422300      o
       -8.99712074778100        0.54154669703700        6.11500149193900      h
      -10.62532185717900       -0.15744467628900        8.48086920061500      h
      -13.10599563556500        2.62120687423300        0.62138191671400      o
      -11.90519152164600        3.81621695781100       -0.05999420912400      h
      -13.15688150318500        2.95635900378600        2.44709311564100      h
        5.14376044522400        5.80888514408200       -0.50955320529100      o
        6.24636367159800        7.23866610538000       -0.20375731243600      h
        4.74487158745300        5.13284128573500        1.14637078755000      h
       -7.86307569395600       -7.13856615361700       -4.27564676248600      o
       -9.50703707374000       -6.42573111078100       -3.87643964122700      h
       -7.17018180316400       -7.83602927363100       -2.73762210039000      h
        1.97297946211800       -2.92817904269000       -5.52808302269100      o
        3.77119213248100       -2.45684984328300       -5.25944942097500      h
        1.53513293144900       -3.66396880262800       -3.90473943003500      h
       -9.42322869675100      -11.13206521346000       -6.85788692923000      o
       -8.91448907914100       -9.59550873293400       -5.93472474138400      h
       -9.40458947876900      -10.65564741141700       -8.65068238249700      h
      -13.78118019187000       -0.70081762432500       -3.08668054368000      o
      -13.36369072189500        0.46555852948000       -1.72337957228200      h
      -13.54726527288800        0.17671898921000       -4.67966757793000      h
        2.87352069342500        4.07785177730400       10.90325096830500      o
        3.27652753238100        2.80826881941200        9.60799330058100      h
        4.37684007529000        5.10348260826600       11.11907747774300      h
        6.07868339920700       -3.99167987717400        1.01259392419800      o
        4.33107821129700       -4.30173420131500        0.45378451050600      h
        6.45378081533600       -2.26660546146700        0.50099004197600      h
        5.99899832487100       -4.26663477168300        5.99045016012200      o
        6.12198542734100       -4.39355652414100        4.13573955048600      h
        4.23212384882100       -4.52778886681600        6.37559959568200      h
        4.67162654419400        8.14812267688900        7.25657410448800      o
        4.09355770540900        8.91501762131700        8.84205677016400      h
        6.41157664805900        7.61808486763000        7.45163609014500      h
       -8.21444944251800        6.33253874590200       -7.73568763612400      o
       -7.21376499738500        6.06749575633700       -9.24334210449600      h
       -8.23085121836100        4.72620877662100       -6.85120727485500      h
      -13.09212436244900       11.64452181788800       -5.63401628142500      o
      -12.24608792467800       11.77173716327100       -7.24896552811100      h
      -11.80153430402500       11.00394713087300       -4.46197371784300      h
        3.11804758125800       -8.05353335969100       10.91550250647600      o
        4.90091161759300       -8.07919804301500       10.46195692101400      h
        2.76666204156200       -6.46258541419600       11.78151863630700      h
       -3.56798515132700       -7.49868451811400        7.51650258327400      o
       -3.15569905422600       -7.38099189201700        9.31438820575900      h
       -5.21858463211400       -6.72741093749900        7.25883308156500      h
        1.25894071959900       -6.25226898601000        6.66077608890500      o
       -0.55613484959700       -6.59010971843300        6.63915901242600      h
        1.84790877899800       -7.05698459132600        8.23134006570900      h
       -0.49043529478200        2.46096937253100        5.09845994648400      o
        1.05879806475400        3.33452972242200        4.62450849210700      h
       -1.89686476134700        3.31219597758200        4.23575753198500      h
       -0.70284382836100       -5.00348935288700      -13.37728251474800      o
        0.42403368561200       -5.62814760142900      -12.03711908312200      h
        0.42201178769500       -4.14905947149000      -14.54562171001100      h
        7.80266869498500       -7.79557882362500        8.97187463365300      o
        7.34672709046500       -6.49992429417700        7.69935665735100      h
        8.96779604777400       -7.00889603778500       10.13975912249100      h
      -13.52586579797500        4.08066352737800        5.42793339721400      o
      -11.96448100698800        4.69344822508100        6.16930230165200      h
      -14.58400580724100        5.56147111461300        5.15923879741200      h
      -16.06302675251000        8.50022991917700        4.73925407811400      o
      -14.80572622300500        9.79044213351100        5.03994133421400      h
      -17.14881451803100        9.09530387341300        3.36321492915200      h
      -16.07861517197500       -5.64502982138700       -0.15298373044200      o
      -14.66457914990500       -4.82211921105600        0.71057859440100      h
      -17.63073257116200       -4.96756899814600        0.56253749924900      h
        4.19476076145100      -13.05893235302700        5.97622599334700      o
        5.90900759567800      -12.95563778647600        6.58373921264100      h
        3.07640969360600      -12.97900361818300        7.42374231840600      h
       10.91122890239100       -5.56294296376200       12.45731529336700      o
       11.65151884909000       -3.90260515824100       12.91730261066000      h
       11.01005880430300       -6.55827984955400       13.96297792596000      h
        5.95576152308600        3.29225990455400       -4.79355018902400      o
        5.25053618932900        4.16850672041300       -3.32804954260500      h
        5.60364438411400        4.32880813604900       -6.26793221783600      h
       10.58202794466300      -10.85310494105500       -4.71186171151800      o
        9.48964291814100       -9.71831955307400       -5.66169735543800      h
       12.26208202502900      -10.06875855077400       -4.71784322988500      h
      -16.64823468510300        8.57517525488500       -7.75615167987400      o
      -15.53179020750100        7.50672401002300       -8.73953844974400      h
      -15.55981857875000        9.81378201625700       -6.94098078439700      h
       10.28208990972100        5.04104433588100        1.30055316001300      o
        9.06881197143700        3.70521052964400        0.94138907518400      h
       11.93365865362400        4.38713921134900        0.85911163435100      h
       -3.21590676742200        2.21973294185000      -14.10008270310000      o
       -2.75233921030500        1.10726697874400      -12.69022679073500      h
       -4.61864164193300        1.43034338550400      -14.99202997422800      h
      -18.59147589788700       -0.64619527887500       -1.38095508714800      o
      -19.92551409956700       -1.57559237862900       -2.24481719603700      h
      -16.97888282085300       -1.33944333454500       -1.91626191269100      h
       -5.21617742209900        2.72858347768000        7.87023400060700      o
       -5.76078939181900        2.29562788733600        9.58331150038500      h
       -3.77912296911600        3.86157521923800        8.05542930850800      h
        8.05081361810600      -10.30435101519700        2.10056907169400      o
        8.34813730960400      -11.36421137352000        3.54823947007900      h
        7.50907227211500      -11.43628660271600        0.74658253682300      h
       -7.17937072995200      -11.89171212856000        1.16915313311100      o
       -6.83373254266400      -10.07411312175400        1.25114941522600      h
       -8.57746316744600      -12.19137200075500        2.34050598961900      h
        3.63704177500000       -0.47753594438300      -10.65172348278900      o
        1.96814892990700       -0.19218429265100       -9.94391554013500      h
        3.32718519839600       -1.24401528818500      -12.31723427250100      h
        2.95605634697900       -2.07690466366600      -15.35083023087600      o
        4.65262489321600       -2.71118407828000      -15.77008995001000      h
        2.77181200756800       -0.36948311970200      -15.98914654250300      h
       -0.70449103255100       -0.25885397664300        9.40430189951900      o
       -0.69544796123700        0.87139443520300        7.94555389228200      h
       -2.30179789660700       -1.15828010504500        9.35711989116800      h
       -0.89579749685400      -10.60565833044300      -10.89560772641700      o
       -1.75135225746500       -9.63650060492000      -12.16376922942600      h
       -2.17068813350000      -11.36968177033900       -9.82817299518900      h
        2.40923254166300        0.89336573986600       -0.23504607000700      o
        2.39258894439300        0.08934001113400        1.41492962207000      h
        1.65574154188000        2.59510875788600       -0.07405946865500      h
       -3.99739127943600       -9.69930216578100       -2.16990087291400      o
       -4.03847067294600      -10.53175520183900       -3.80580220113800      h
       -2.48586273416200      -10.33829357312100       -1.32947719030900      h
       10.42941914151800       -6.18146403664400        4.41440762798500      o
       11.49510648775800       -7.08512549613300        5.60477945065100      h
        9.53608435593000       -7.44642116953400        3.45104389859800      h
       -5.59485842645600       -3.73268661166600      -12.51593352632000      o
       -4.05592587859900       -4.13407611392800      -13.41639961210700      h
       -5.46714679935400       -4.69846545824700      -10.95376288108100      h
      -11.44016553923700       -8.60046996331600       -0.33255792454100      o
      -12.01192746377700      -10.32531151546500       -0.58349387178900      h
      -12.43120411258800       -7.49940692973100       -1.39986338056200      h
       -3.55535998939200        3.50549740780600       -8.17023309278300      o
       -4.86358101158800        2.50472044962800       -8.98140309619500      h
       -2.52907283241900        2.40161383087400       -7.07465180552200      h
      -17.69892419281200        4.68380038798300        0.54545212146900      o
      -16.26454153472100        3.52956864548600        0.57150213540900      h
      -16.95674323023600        6.27042095157300       -0.01557465659000      h
        9.39632619153000      -12.04873750073800        6.93445666958600      o
        8.93264860908800      -10.39345485631800        7.68528391356000      h
       10.29463712839800      -12.94756547305200        8.21971494958000      h
        4.37104739005600        0.62009078545800       14.44939268837800      o
        3.31253231365200       -0.86572691936900       14.16938879119600      h
        3.58026564803600        1.96635146472500       13.46097137904200      h
        6.59117239391600       -1.73854775562400       -4.64743085294300      o
        6.37280676724500        0.08150797995400       -4.82016938898700      h
        7.41760725470300       -2.29557652439600       -6.19282425420200      h
        8.24468437948400        9.79115726892700        0.62647584554200      o
        8.92582974332600       10.79444731733200       -0.76566137120100      h
        9.67724013121800        9.42378282676000        1.70710860667000      h
       -8.38138058332300        1.70540231641900       -5.36194246083100      o
       -9.91222939965300        1.35134661190800       -6.29783632973900      h
       -7.07382493873600        0.60209939652400       -6.05285208400700      h
       13.48262543689000      -11.31071275001500        3.47315692930600      o
       12.23674180689500      -11.52759504423900        4.79340021262400      h
       13.01553156365800      -12.43615588319100        2.06141018021100      h
       -7.29045747846400        0.28228541831100      -16.52272213019900      o
       -7.32973595482900       -1.40556949631600      -17.16954240588500      h
       -8.88202257122700        0.54073750032300      -15.62947286888300      h
        7.57035662038800       -3.35224531284700       -9.32597082119500      o
        6.09645241010500       -2.35083823481000       -9.78330369846200      h
        8.93506803183500       -2.78183680474100      -10.41826978581800      h
      -20.00000071601700       -6.19013108518700        6.56884366270800      o
      -19.35044010167800       -7.88853775311500        6.36289114861100      h
      -18.62728509970400       -5.29612836859200        7.43901145752200      h
      -19.07031796415400        0.00087355681200        3.59093578832200      o
      -19.05957205171700       -0.22028382682200        1.75287528039300      h
      -19.59093747225600        1.74742766138500        3.92858289904600      h
      -14.44735424780000      -11.34851936778200       -5.42821202067500      o
      -15.26780986148200       -9.72809208638300       -5.41998114261400      h
      -12.76269895119800      -11.14618854389200       -6.14666582271500      h
      -14.95011810503700       13.14322062270800       -1.01925412460100      o
      -13.45195406639400       13.75220481488600       -0.16363346508900      h
      -14.60361032407200       13.23933152588600       -2.81239700020400      h
      -10.16174512128500       13.56352764024700        1.14344686901300      o
       -8.58558035694900       14.39081194532100        1.54537534681700      h
       -9.74810445974200       12.30513105948700       -0.16202465370500      h
       -3.10376532260700       10.34096133420400       -2.29722927587600      o
       -3.34879234077400       11.95872268472000       -3.11588292758500      h
       -1.30033044673900       10.25791453000100       -1.89989849979600      h
        0.15082376026500        6.97458470947900       14.75301161901800      o
        0.83641472708000        7.38560795734100       16.37386492439200      h
        1.22404084483900        7.75753499744100       13.50109574606400      h
        4.17207277028500       11.05185609430800        3.25634326879400      o
        5.75219725409200       10.86781860864500        2.30146970034200      h
        4.54612342110100       10.28239931568500        4.90042910876400      h
       -5.58856869737800        6.24742989957700      -12.26051599042600      o
       -4.64910933342100        4.79616466758200      -12.94665903368600      h
       -4.62088127615300        7.76362197744500      -12.57739560747600      h
        1.64833138219100        2.92681098806100      -15.23583304845700      o
       -0.13700779829400        2.69574365157000      -15.59285004896100      h
        1.64888420621100        3.06809929190800      -13.39975223122800      h
        7.35453316701500        0.89527477843600        0.09592113670900      o
        8.27432520985500        0.83691146554600       -1.51886114418400      h
        5.56444767789200        1.21907968834500       -0.30683358729400      h
        1.66579988527900        8.08173088862500      -13.69562526326200      o
        1.47958762664900        6.81378174734900      -12.31779393449400      h
        1.78985491534500        7.09394743171700      -15.21450677472400      h
       -2.53820629707300       10.46265324534200      -12.52933127304100      o
       -2.56579353617700       12.21496547111600      -12.96381369108700      h
       -0.93595872392600        9.74040397011800      -13.14498803444400      h
      -12.08628845351400       -3.59247789200200        2.12058684286600      o
      -11.13229872632799       -2.48692344432900        1.02555573570900      h
      -12.85737212101700       -2.48966485918200        3.40156696000100      h
        1.12792188330200      -13.64477262004800       -5.14923363127900      o
        0.11446531508200      -15.13947898535900       -5.00611991358100      h
        1.06262547090600      -12.82724452502000       -3.49037951422900      h
       15.63891425512100       -4.25116871065100        4.14786319956400      o
       14.92449910772800       -5.31186047223600        2.79992691711700      h
       16.81907698736000       -5.28937749819400        5.10330607592600      h
        3.22839669074200       -8.64455625663100        2.60221488126700      o
        2.77550593859600       -7.63820616271400        4.07617330079500      h
        5.01228823664900       -9.06476188678300        2.66257874497500      h
        0.95451447857000       12.31724073252900       -6.27377796336100      o
        2.01852066867000       11.94877901348200       -7.72390630485500      h
        2.06900427580700       12.77825630470200       -4.90626224396000      h
      -11.76592443484800       -5.92239819243200       10.20009281691400      o
      -13.44201097851400       -5.26788708872300        9.80066326848600      h
      -11.85232357320100       -7.73405883295100       10.08668017045900      h
      -15.69215131202000       -2.22227590562000      -10.73918263419000      o
      -15.04681090510200       -3.94305816466900      -10.72267577881200      h
      -17.03995757621900       -2.15210676985600       -9.46447174298500      h
       -9.29529350335300       10.25494499971500       -2.57546049201000      o
       -9.08442937400600        8.45553647108700       -2.15570975442100      h
       -8.04558200157700       10.70514444895100       -3.85772766161600      h
       -6.53718704031200       11.72332757911800       -6.56140598312900      o
       -7.75674140948500       11.58624097320400       -7.91502307657700      h
       -5.24314645266500       10.43047051341500       -6.87325554182000      h
        4.32269354072400        0.59090109597700        7.66172516974700      o
        5.46401746288200       -0.44357363428700        8.65075318580400      h
        3.34689088378400       -0.51336430121700        6.55884010699900      h
      -12.58999614760500       -5.30854156412500       -4.15884974932600      o
      -14.32305931645700       -5.80994712150000       -4.56453241603800      h
      -12.81115018699000       -3.58505643685400       -3.49322779308400      h
        6.39207670639500       -7.91073878212400      -12.30848999615000      o
        5.81442388435200       -9.58240456345400      -12.68776781205600      h
        5.01325526365200       -7.06678112642300      -11.40158876460400      h
        4.13141698568100       -8.68016567983300       -3.17132044279500      o
        5.36860419266700       -8.15180368011300       -4.44547709438600      h
        4.66073819026200      -10.33230860808300       -2.53977572278900      h
       -5.82248300767900        9.43522246572000        1.82314390361400      o
       -5.87995470383600       11.16388546798100        2.43208181545800      h
       -4.93250621634800        9.58117767286500        0.20807103445800      h
      -12.64607247106600        0.65656565268900       -7.99699170519900      o
      -12.80704554009000        2.38471682040900       -8.64900589152300      h
      -13.81136196423100       -0.35827128474900       -9.03458684430200      h
      -18.92950396111100       10.10926758984300        0.80827711341900      o
      -17.98721820586200       11.57336065480200        0.26694651391500      h
      -19.42331962431600        9.24188434230900       -0.74279305974000      h
        8.89188851501300       12.67714099052600        5.39501759127000      o
        9.01709132059100       11.69017662437000        6.94824899599800      h
       10.43982980088800       12.28472868467600        4.51745123987400      h
      -12.96103488611700        5.03438867006500       -4.70866336603400      o
      -13.45141878583400        6.33427199800700       -3.46563481393700      h
      -12.77743735586800        5.84838856718800       -6.32299747612000      h
        6.98135260668600        7.05857504780200       12.34926736061900      o
        8.32259361012600        7.89437482650000       11.38715762294900      h
        5.81509791539400        8.40648442962200       12.74761761550400      h
        6.31137610070400        3.31268604588200      -12.64638038981500      o
        5.30428796997100        3.54097454868000      -14.13847738525300      h
        5.52333482772900        1.91722158941600      -11.69800920470400      h
       -4.78310939551700      -12.19238582644300        9.22860516682100      o
       -4.38890465720300      -10.71275591547500        8.19181481154300      h
       -5.21456657888100      -13.57127345929400        8.06969884476900      h
       10.77758725667800        0.70342786744100       -3.45094860009700      o
       12.24171783043000        1.43584174157400       -2.58467734460100      h
       11.13374777555600       -1.03724698619900       -3.83342795720300      h
      -14.59737824731900       -0.82555641506600        5.36343165426300      o
      -16.29670173979100       -0.55612754505000        4.62381165301800      h
      -14.04670437293500        0.85520669746800        5.86881063199900      h
       20.04587470463100        8.62665266663200        4.86419623946000      o
       19.29738339190900        8.72962683128100        6.51524968136400      h
       21.21539797420600        7.21345043001300        4.93074570570200      h
      -25.13915413296500        1.78685409837900        5.00060681235600      o
      -23.91581932810200        3.13811451232800        4.86267891991400      h
      -24.47725438636600        0.68546701572200        6.30685780054100      h
       -9.10477508462900        5.97757316744900        7.49049877691300      o
       -7.75134142120900        4.71120220056300        7.52378545801500      h
       -8.29741379608800        7.62131246437200        7.46420292512200      h
      -10.43429869170900        7.33407770621100        2.54956279716200      o
      -11.00754062825800        8.50671579935200        3.85220918941200      h
       -8.79469699907400        7.98161443067300        2.01140006998800      h
      -12.97157878496100        1.10842726310700       10.46169996231500      o
      -12.77978071884600        2.92344028124000       10.79836067048700      h
      -14.78092861189800        0.86052697408000       10.32927159568400      h
       -2.08801438878900       -7.99694826663600       12.37957417992600      o
       -2.32061197641000       -6.54167961941500       13.45034204247600      h
       -3.48275936819400       -9.10030662863300       12.74610650881000      h
        0.38644773095500      -12.24535122956700        9.50130740311900      o
        0.96844268175800      -10.76214400029200       10.41293911457900      h
       -1.36829627807500      -12.49314457408800        9.98622817824800      h
      -10.29829820295000        6.63719156752900      -13.85109012261800      o
       -8.51786674865800        6.44562661592800      -13.33976900443500      h
      -10.56520331769400        5.51674613247700      -15.24551403569400      h
        9.68860728444800        6.58588083339000       -3.63885204080800      o
        8.77965671578600        5.05001546495000       -4.08929051958900      h
       10.03753012062500        6.45242497684000       -1.84238895545100      h
       14.18954573747200       -0.77909408389900       -8.48907336532200      o
       13.63556148028700       -2.10407895494200       -7.35898065007600      h
       12.74314477704500        0.41163784400000       -8.50577359408800      h
        7.66637060235700       15.24761237548300        0.83331524582100      o
        7.84644161580200       14.53153560415700        2.50486775678900      h
        9.12938305814600       14.74134565703000       -0.12602999853000      h
       10.11512153394500        9.47061086676300        9.22526230397700      o
       11.76312282069700       10.31464185176800        9.17410013971500      h
       10.20605627422500        8.04408925848400        8.04201161024900      h
        9.18488206371500        5.61253277361200        6.27287196052200      o
        9.68055894692100        4.04871429377000        7.10029055727000      h
        9.59712858353000        5.44847998608300        4.48448683906000      h
       13.84716389060300       -7.24185534011800        0.53424499968100      o
       13.62909967238600       -8.74664112286300        1.57971537590300      h
       12.15889061805100       -6.79452361917400       -0.09771491163500      h
       12.70478695947700       -2.71927555125900        7.88110827664800      o
       13.70177378502600       -3.23677313231500        6.39313664158600      h
       11.04824826429600       -3.40809208241500        7.60449129805800      h
       21.22779394602100        5.45981286327400       -1.52168294627800      o
       21.71333146004800        3.66371070480200       -1.72538109649700      h
       22.76002740405000        6.42060417335400       -1.51538880695700      h
       -2.29186529632800       12.21238745198500        6.22136482527600      o
       -1.80081945131200       10.61137277025100        5.42677227891500      h
       -0.93015952915300       13.39853993877200        5.74445250897600      h
       10.65609442250000        8.64711462828200       -8.21754159409600      o
       10.94292046430700        8.11174611169000       -6.47903275964700      h
       11.95821394177100        7.85577089952800       -9.24512919054800      h
      -18.68477053057800       -1.55212817818400       -6.85335416113700      o
      -20.49881598918300       -1.48821102875800       -6.64250532779900      h
      -18.14922600604600        0.15174396534000       -6.32503355737500      h
        9.08770022430700        2.92706350873800       14.73111218157800      o
        8.42900520309600        4.42660946806400       13.89838019948200      h
        7.59839212629800        2.03578895037900       15.29138431137400      h
      -16.65321860372500        2.45790167532900      -12.76584488173200      o
      -18.11526807142100        3.24588882787600      -11.92106811713700      h
      -16.72436088920400        0.69439298941200      -12.28831996881300      h
       -5.21021957047100       -2.77672598667600       10.00114797298700      o
       -5.97408796213200       -4.33009114091600       10.64409625406100      h
       -6.61920856614300       -1.76882677177000        9.36431004631600      h
      -14.10788428153500        8.04451482250000       -0.91556789363900      o
      -14.46615172107000        9.84679945185100       -0.98086154098900      h
      -12.75378626455000        7.81020145253400        0.32492912620600      h
       -4.85425539770900       -6.98633595309800       -8.56454573879500      o
       -3.23695647825100       -7.67584422524100       -8.09063895942900      h
       -5.85365078480500       -6.90129075312100       -7.02390089173500      h
        9.38089457774500       -6.55151740949700       -1.72264073138700      o
        8.85285446808500       -8.28123717277600       -1.87981952134500      h
        8.07615445399100       -5.64355399757700       -0.75602132449900      h
      -19.78991542758300        7.64481098148500       -3.71662356957700      o
      -19.04142883445100        8.59930774160600       -5.07689824540100      h
      -19.22706399798800        5.92162266231900       -4.04848368408700      h
       16.27801130097700       -4.40555654564600       11.11485418421000      o
       17.00799030461000       -2.99428491201600       11.99391461870500      h
       14.89439291514500       -3.69626368638700       10.10758779770700      h
[...]
   385   8 o      387   1 h                                       0.9570502
   388   8 o      389   1 h                                       0.9808713
   388   8 o      390   1 h                                       0.9883929
   391   8 o      392   1 h                                       0.9745057
   391   8 o      393   1 h                                       0.9725461
   394   8 o      395   1 h                                       0.9670059
   394   8 o      396   1 h                                       0.9856217
   397   8 o      398   1 h                                       0.9722989
   397   8 o      399   1 h                                       0.9651233
   400   8 o      401   1 h                                       0.9860548
   400   8 o      402   1 h                                       0.9675488
   403   8 o      404   1 h                                       0.9771628
   403   8 o      405   1 h                                       0.9767118
   406   8 o      407   1 h                                       0.9730027
   406   8 o      408   1 h                                       0.9796666
   409   8 o      410   1 h                                       0.9635772
   409   8 o      411   1 h                                       0.9728245
   412   8 o      413   1 h                                       0.9606370
   412   8 o      414   1 h                                       0.9844827
   415   8 o      416   1 h                                       0.9644455
   415   8 o      417   1 h                                       0.9752251
   418   8 o      419   1 h                                       0.9609055
   418   8 o      420   1 h                                       0.9803474
   421   8 o      422   1 h                                       0.9729113
   421   8 o      423   1 h                                       0.9748525
   424   8 o      425   1 h                                       0.9665273
   424   8 o      426   1 h                                       0.9795992
   427   8 o      428   1 h                                       0.9857175
   427   8 o      429   1 h                                       0.9700567
   430   8 o      431   1 h                                       0.9585693
   430   8 o      432   1 h                                       0.9968571 (max)
   433   8 o      434   1 h                                       0.9571086
   433   8 o      435   1 h                                       0.9833222
   436   8 o      437   1 h                                       0.9778956
   436   8 o      438   1 h                                       0.9767085
   439   8 o      440   1 h                                       0.9760663
   439   8 o      441   1 h                                       0.9651176
   442   8 o      443   1 h                                       0.9742976
   442   8 o      444   1 h                                       0.9778368
   445   8 o      446   1 h                                       0.9605309
   445   8 o      447   1 h                                       0.9821993
   448   8 o      449   1 h                                       0.9637001
   448   8 o      450   1 h                                       0.9634759
   451   8 o      452   1 h                                       0.9661799
   451   8 o      453   1 h                                       0.9801701
   454   8 o      455   1 h                                       0.9804595
   454   8 o      456   1 h                                       0.9644547
   457   8 o      458   1 h                                       0.9771762
   457   8 o      459   1 h                                       0.9699118
   460   8 o      461   1 h                                       0.9669897
   460   8 o      462   1 h                                       0.9800761
   463   8 o      464   1 h                                       0.9772947
   463   8 o      465   1 h                                       0.9926645
   466   8 o      467   1 h                                       0.9721850
   466   8 o      468   1 h                                       0.9696611
   469   8 o      470   1 h                                       0.9757080
   469   8 o      471   1 h                                       0.9651699
   472   8 o      473   1 h                                       0.9814061
   472   8 o      474   1 h                                       0.9644627
   475   8 o      476   1 h                                       0.9785498
   475   8 o      477   1 h                                       0.9742780
   478   8 o      479   1 h                                       0.9715959
   478   8 o      480   1 h                                       0.9745947
   481   8 o      482   1 h                                       0.9717872
   481   8 o      483   1 h                                       0.9787552
   484   8 o      485   1 h                                       0.9619245
   484   8 o      486   1 h                                       0.9805598
   487   8 o      488   1 h                                       0.9826201
   487   8 o      489   1 h                                       0.9759445
   490   8 o      491   1 h                                       0.9711546
   490   8 o      492   1 h                                       0.9749145
   493   8 o      494   1 h                                       0.9605189
   493   8 o      495   1 h                                       0.9792724
   496   8 o      497   1 h                                       0.9642226
   496   8 o      498   1 h                                       0.9713302
   499   8 o      500   1 h                                       0.9767323
   499   8 o      501   1 h                                       0.9608107
   502   8 o      503   1 h                                       0.9584542
   502   8 o      504   1 h                                       0.9804371
   505   8 o      506   1 h                                       0.9719068
   505   8 o      507   1 h                                       0.9676685
   508   8 o      509   1 h                                       0.9578005
   508   8 o      510   1 h                                       0.9703022
   511   8 o      512   1 h                                       0.9595179
   511   8 o      513   1 h                                       0.9796555
   514   8 o      515   1 h                                       0.9731351
   514   8 o      516   1 h                                       0.9653736
   517   8 o      518   1 h                                       0.9686301
   517   8 o      519   1 h                                       0.9748213
   520   8 o      521   1 h                                       0.9842284
   520   8 o      522   1 h                                       0.9610274
   523   8 o      524   1 h                                       0.9663325
   523   8 o      525   1 h                                       0.9682350
   526   8 o      527   1 h                                       0.9767636
   526   8 o      528   1 h                                       0.9698388
   529   8 o      530   1 h                                       0.9919847
   529   8 o      531   1 h                                       0.9721509
   532   8 o      533   1 h                                       0.9783343
   532   8 o      534   1 h                                       0.9853186
   535   8 o      536   1 h                                       0.9710955
   535   8 o      537   1 h                                       0.9691576
   538   8 o      539   1 h                                       0.9675171
   538   8 o      540   1 h                                       0.9740277
   541   8 o      542   1 h                                       0.9640137
   541   8 o      543   1 h                                       0.9794827
   544   8 o      545   1 h                                       0.9717773
   544   8 o      546   1 h                                       0.9560552
   547   8 o      548   1 h                                       0.9761598
   547   8 o      549   1 h                                       0.9792873
   550   8 o      551   1 h                                       0.9736512
   550   8 o      552   1 h                                       0.9827324
   553   8 o      554   1 h                                       0.9709569
   553   8 o      555   1 h                                       0.9797819
   556   8 o      557   1 h                                       0.9745373
   556   8 o      558   1 h                                       0.9678286
   559   8 o      560   1 h                                       0.9741710
   559   8 o      561   1 h                                       0.9724113
   562   8 o      563   1 h                                       0.9723442
   562   8 o      564   1 h                                       0.9769177
   565   8 o      566   1 h                                       0.9781065
   565   8 o      567   1 h                                       0.9840424
   568   8 o      569   1 h                                       0.9628170
   568   8 o      570   1 h                                       0.9932477
   571   8 o      572   1 h                                       0.9562731
   571   8 o      573   1 h                                       0.9746923
   574   8 o      575   1 h                                       0.9590467
   574   8 o      576   1 h                                       0.9913476
   577   8 o      578   1 h                                       0.9702966
   577   8 o      579   1 h                                       0.9774310
   580   8 o      581   1 h                                       0.9740723
   580   8 o      582   1 h                                       0.9806773
   583   8 o      584   1 h                                       0.9620323
   583   8 o      585   1 h                                       0.9719280
   586   8 o      587   1 h                                       0.9621944
   586   8 o      588   1 h                                       0.9748859
   589   8 o      590   1 h                                       0.9654670
   589   8 o      591   1 h                                       0.9818526
   592   8 o      593   1 h                                       0.9675791
   592   8 o      594   1 h                                       0.9744501
   595   8 o      596   1 h                                       0.9622464
   595   8 o      597   1 h                                       0.9670323
   598   8 o      599   1 h                                       0.9926850
   598   8 o      600   1 h                                       0.9628171
   601   8 o      602   1 h                                       0.9682109
   601   8 o      603   1 h                                       0.9652166
   604   8 o      605   1 h                                       0.9789931
   604   8 o      606   1 h                                       0.9626995
   607   8 o      608   1 h                                       0.9726017
   607   8 o      609   1 h                                       0.9639004
   610   8 o      611   1 h                                       0.9817412
   610   8 o      612   1 h                                       0.9809945
   613   8 o      614   1 h                                       0.9685568
   613   8 o      615   1 h                                       0.9694348
   616   8 o      617   1 h                                       0.9937845
   616   8 o      618   1 h                                       0.9614133
   619   8 o      620   1 h                                       0.9847881
   619   8 o      621   1 h                                       0.9650612
   622   8 o      623   1 h                                       0.9697737
   622   8 o      624   1 h                                       0.9659942
   625   8 o      626   1 h                                       0.9726016
   625   8 o      627   1 h                                       0.9712381
   628   8 o      629   1 h                                       0.9674602
   628   8 o      630   1 h                                       0.9652915
   631   8 o      632   1 h                                       0.9725869
   631   8 o      633   1 h                                       0.9638195
   634   8 o      635   1 h                                       0.9779164
   634   8 o      636   1 h                                       0.9786605
   637   8 o      638   1 h                                       0.9779153
   637   8 o      639   1 h                                       0.9773168
   640   8 o      641   1 h                                       0.9735888
   640   8 o      642   1 h                                       0.9787543
   643   8 o      644   1 h                                       0.9580403
   643   8 o      645   1 h                                       0.9844748
   646   8 o      647   1 h                                       0.9781258
   646   8 o      648   1 h                                       0.9554410 (min)
   649   8 o      650   1 h                                       0.9834807
   649   8 o      651   1 h                                       0.9643137
   652   8 o      653   1 h                                       0.9747072
   652   8 o      654   1 h                                       0.9643188
   655   8 o      656   1 h                                       0.9723065
   655   8 o      657   1 h                                       0.9709603
   658   8 o      659   1 h                                       0.9927739
   658   8 o      660   1 h                                       0.9572092
   661   8 o      662   1 h                                       0.9769971
   661   8 o      663   1 h                                       0.9727277
   664   8 o      665   1 h                                       0.9722770
   664   8 o      666   1 h                                       0.9725710
   667   8 o      668   1 h                                       0.9554642
   667   8 o      669   1 h                                       0.9923258
   670   8 o      671   1 h                                       0.9709283
   670   8 o      672   1 h                                       0.9668536
   673   8 o      674   1 h                                       0.9774662
   673   8 o      675   1 h                                       0.9625011
   676   8 o      677   1 h                                       0.9749981
   676   8 o      678   1 h                                       0.9642935
   679   8 o      680   1 h                                       0.9814482
   679   8 o      681   1 h                                       0.9766641
   682   8 o      683   1 h                                       0.9690728
   682   8 o      684   1 h                                       0.9738427
   685   8 o      686   1 h                                       0.9680942
   685   8 o      687   1 h                                       0.9704375
   688   8 o      689   1 h                                       0.9736622
   688   8 o      690   1 h                                       0.9899577
   691   8 o      692   1 h                                       0.9811170
   691   8 o      693   1 h                                       0.9786378
   694   8 o      695   1 h                                       0.9731295
   694   8 o      696   1 h                                       0.9693940
   697   8 o      698   1 h                                       0.9853954
   697   8 o      699   1 h                                       0.9629639
   700   8 o      701   1 h                                       0.9837563
   700   8 o      702   1 h                                       0.9679546
   703   8 o      704   1 h                                       0.9741586
   703   8 o      705   1 h                                       0.9777813
   706   8 o      707   1 h                                       0.9633262
   706   8 o      708   1 h                                       0.9761089
   709   8 o      710   1 h                                       0.9666548
   709   8 o      711   1 h                                       0.9590343
   712   8 o      713   1 h                                       0.9848810
   712   8 o      714   1 h                                       0.9654854
   715   8 o      716   1 h                                       0.9681015
   715   8 o      717   1 h                                       0.9628933
   718   8 o      719   1 h                                       0.9577288
   718   8 o      720   1 h                                       0.9705406
   721   8 o      722   1 h                                       0.9757040
   721   8 o      723   1 h                                       0.9666686
   724   8 o      725   1 h                                       0.9801951
   724   8 o      726   1 h                                       0.9748819
   727   8 o      728   1 h                                       0.9691671
   727   8 o      729   1 h                                       0.9747992
   730   8 o      731   1 h                                       0.9857148
   730   8 o      732   1 h                                       0.9573560
   733   8 o      734   1 h                                       0.9561824
   733   8 o      735   1 h                                       0.9816900
   736   8 o      737   1 h                                       0.9656281
   736   8 o      738   1 h                                       0.9799372
   739   8 o      740   1 h                                       0.9666029
   739   8 o      741   1 h                                       0.9596000
   742   8 o      743   1 h                                       0.9677383
   742   8 o      744   1 h                                       0.9743622
   745   8 o      746   1 h                                       0.9736596
   745   8 o      747   1 h                                       0.9882036
   748   8 o      749   1 h                                       0.9777707
   748   8 o      750   1 h                                       0.9798449
   751   8 o      752   1 h                                       0.9884718
   751   8 o      753   1 h                                       0.9682014
   754   8 o      755   1 h                                       0.9644138
   754   8 o      756   1 h                                       0.9620411

 * 1 distinct bonds (by element types)

   Z      Z             #   av. dist./Å        max./Å        min./Å
   1 H    8 O         504     0.9733163     0.9968571     0.9554410


optimized geometry written to: xtbopt.coord


           -------------------------------------------------
          | TOTAL ENERGY            -1283.293192785799 Eh   |
          | GRADIENT NORM               0.005524004078 Eh/α |
          | HOMO-LUMO GAP               5.871599770884 eV   |
           -------------------------------------------------

------------------------------------------------------------------------
 * finished run on 2022/11/24 at 12:15:04.373     
------------------------------------------------------------------------
 total:
 * wall-time:     0 d,  0 h, 10 min, 20.371 sec
 *  cpu-time:     0 d,  0 h, 15 min, 16.877 sec
 * ratio c/w:     1.478 speedup
 SCF:
 * wall-time:     0 d,  0 h,  0 min, 21.544 sec
 *  cpu-time:     0 d,  0 h,  0 min, 34.689 sec
 * ratio c/w:     1.610 speedup
 ANC optimizer:
 * wall-time:     0 d,  0 h,  9 min, 57.742 sec
 *  cpu-time:     0 d,  0 h, 14 min, 40.424 sec
 * ratio c/w:     1.473 speedup

