      -----------------------------------------------------------      
     |                   =====================                   |     
     |                           x T B                           |     
     |                   =====================                   |     
     |                         S. Grimme                         |     
     |          Mulliken Center for Theoretical Chemistry        |     
     |                    University of Bonn                     |     
      -----------------------------------------------------------      

   * xtb version 6.5.1 (579679a) compiled by 'ehlert@majestix' on 2022-07-11

   xtb is free software: you can redistribute it and/or modify it under
   the terms of the GNU Lesser General Public License as published by
   the Free Software Foundation, either version 3 of the License, or
   (at your option) any later version.
   
   xtb is distributed in the hope that it will be useful,
   but WITHOUT ANY WARRANTY; without even the implied warranty of
   MERCHANTABILITY or FITNESS FOR A PARTICULAR PURPOSE.  See the
   GNU Lesser General Public License for more details.
   
   Cite this work as:
   * C. Bannwarth, E. Caldeweyher, S. Ehlert, A. Hansen, P. Pracht,
     J. Seibert, S. Spicher, S. Grimme, WIREs Comput. Mol. Sci., 2020, 11,
     e01493. DOI: 10.1002/wcms.1493
   
   for GFN2-xTB:
   * C. Bannwarth, S. Ehlert and S. Grimme., J. Chem. Theory Comput., 2019,
     15, 1652-1671. DOI: 10.1021/acs.jctc.8b01176
   for GFN1-xTB:
   * S. Grimme, C. Bannwarth, P. Shushkov, J. Chem. Theory Comput., 2017,
     13, 1989-2009. DOI: 10.1021/acs.jctc.7b00118
   for GFN0-xTB:
   * P. Pracht, E. Caldeweyher, S. Ehlert, S. Grimme, ChemRxiv, 2019, preprint.
     DOI: 10.26434/chemrxiv.8326202.v1
   for GFN-FF:
   * S. Spicher and S. Grimme, Angew. Chem. Int. Ed., 2020, 59, 15665-15673.
     DOI: 10.1002/anie.202004239
   
   for ALPB and GBSA implicit solvation:
   * S. Ehlert, M. Stahn, S. Spicher, S. Grimme, J. Chem. Theory Comput.,
     2021, 17, 4250-4261. DOI: 10.1021/acs.jctc.1c00471
   
   for DFT-D4:
   * E. Caldeweyher, C. Bannwarth and S. Grimme, J. Chem. Phys., 2017,
     147, 034112. DOI: 10.1063/1.4993215
   * E. Caldeweyher, S. Ehlert, A. Hansen, H. Neugebauer, S. Spicher,
     C. Bannwarth and S. Grimme, J. Chem. Phys., 2019, 150, 154122.
     DOI: 10.1063/1.5090222
   * E. Caldeweyher, J.-M. Mewes, S. Ehlert and S. Grimme, Phys. Chem. Chem. Phys.
     2020, 22, 8499-8512. DOI: 10.1039/D0CP00502A
   
   for sTDA-xTB:
   * S. Grimme and C. Bannwarth, J. Chem. Phys., 2016, 145, 054103.
     DOI: 10.1063/1.4959605
   
   in the mass-spec context:
   * V. Asgeirsson, C. Bauer and S. Grimme, Chem. Sci., 2017, 8, 4879.
     DOI: 10.1039/c7sc00601b
   * J. Koopman and S. Grimme, ACS Omega 2019, 4, 12, 15120-15133.
     DOI: 10.1021/acsomega.9b02011
   
   for metadynamics refer to:
   * S. Grimme, J. Chem. Theory Comput., 2019, 155, 2847-2862
     DOI: 10.1021/acs.jctc.9b00143
   
   for SPH calculations refer to:
   * S. Spicher and S. Grimme, J. Chem. Theory Comput., 2021, 17, 1701-1714
     DOI: 10.1021/acs.jctc.0c01306
   
   with help from (in alphabetical order)
   P. Atkinson, C. Bannwarth, F. Bohle, G. Brandenburg, E. Caldeweyher
   M. Checinski, S. Dohm, S. Ehlert, S. Ehrlich, I. Gerasimov, C. Hölzer
   A. Katbashev, J. Koopman, C. Lavigne, S. Lehtola, F. März, M. Müller,
   F. Musil, H. Neugebauer, J. Pisarek, C. Plett, P. Pracht, F. Pultar,
   J. Seibert, P. Shushkov, S. Spicher, M. Stahn, M. Steiner, T. Strunk,
   J. Stückrath, T. Rose, and J. Unsleber
   
 * started run on 2022/11/24 at 12:21:16.687     

           -------------------------------------------------
          |                Calculation Setup                |
           -------------------------------------------------

          program call               : xtb xtbopt.coord --gfn2 --sp --gbsa water
          hostname                   : cn0430
          coordinate file            : xtbopt.coord
          omp threads                :                     2

   ID    Z sym.   atoms
    1    8 o      1, 4, 7, 10, 13, 16, 19, 22, 25, 28, 31, 34, 37, 40, 43,
                  46, 49, 52, 55, 58, 61, 64, 67, 70, 73, 76, 79, 82, 85, 88,
                  91, 94, 97, 100, 103, 106, 109, 112, 115, 118, 121, 124,
                  127, 130, 133, 136, 139, 142, 145, 148, 151, 154, 157, 160,
                  163, 166, 169, 172, 175, 178, 181, 184, 187, 190, 193, 196,
                  199, 202, 205, 208, 211, 214, 217, 220, 223, 226, 229, 232,
                  235, 238, 241, 244, 247, 250, 253, 256, 259, 262, 265, 268,
                  271, 274, 277, 280, 283, 286, 289, 292, 295, 298, 301, 304,
                  307, 310, 313, 316, 319, 322, 325, 328, 331, 334, 337, 340,
                  343, 346, 349, 352, 355, 358, 361, 364, 367, 370, 373, 376,
                  379, 382, 385, 388, 391, 394, 397, 400, 403, 406, 409, 412,
                  415, 418, 421, 424, 427, 430, 433, 436, 439, 442, 445, 448,
                  451, 454, 457, 460, 463, 466, 469, 472, 475, 478, 481, 484,
                  487, 490, 493, 496, 499, 502, 505, 508, 511, 514, 517, 520,
                  523, 526, 529, 532, 535, 538, 541, 544, 547, 550, 553, 556,
                  559, 562, 565, 568, 571, 574, 577, 580, 583, 586, 589, 592,
                  595, 598, 601, 604, 607, 610, 613, 616, 619, 622, 625, 628,
                  631, 634, 637, 640, 643, 646, 649, 652, 655, 658, 661, 664,
                  667, 670, 673, 676, 679, 682, 685, 688, 691, 694, 697, 700,
                  703, 706, 709, 712, 715, 718, 721, 724, 727, 730, 733, 736,
                  739, 742, 745, 748, 751, 754
    2    1 h      2, 3, 5, 6, 8, 9, 11, 12, 14, 15, 17, 18, 20, 21, 23, 24,
                  26, 27, 29, 30, 32, 33, 35, 36, 38, 39, 41, 42, 44, 45, 47,
                  48, 50, 51, 53, 54, 56, 57, 59, 60, 62, 63, 65, 66, 68, 69,
                  71, 72, 74, 75, 77, 78, 80, 81, 83, 84, 86, 87, 89, 90, 92,
                  93, 95, 96, 98, 99, 101, 102, 104, 105, 107, 108, 110, 111,
                  113, 114, 116, 117, 119, 120, 122, 123, 125, 126, 128, 129,
                  131, 132, 134, 135, 137, 138, 140, 141, 143, 144, 146, 147,
                  149, 150, 152, 153, 155, 156, 158, 159, 161, 162, 164, 165,
                  167, 168, 170, 171, 173, 174, 176, 177, 179, 180, 182, 183,
                  185, 186, 188, 189, 191, 192, 194, 195, 197, 198, 200, 201,
                  203, 204, 206, 207, 209, 210, 212, 213, 215, 216, 218, 219,
                  221, 222, 224, 225, 227, 228, 230, 231, 233, 234, 236, 237,
                  239, 240, 242, 243, 245, 246, 248, 249, 251, 252, 254, 255,
                  257, 258, 260, 261, 263, 264, 266, 267, 269, 270, 272, 273,
                  275, 276, 278, 279, 281, 282, 284, 285, 287, 288, 290, 291,
                  293, 294, 296, 297, 299, 300, 302, 303, 305, 306, 308, 309,
                  311, 312, 314, 315, 317, 318, 320, 321, 323, 324, 326, 327,
                  329, 330, 332, 333, 335, 336, 338, 339, 341, 342, 344, 345,
                  347, 348, 350, 351, 353, 354, 356, 357, 359, 360, 362, 363,
                  365, 366, 368, 369, 371, 372, 374, 375, 377, 378, 380, 381,
                  383, 384, 386, 387, 389, 390, 392, 393, 395, 396, 398, 399,
                  401, 402, 404, 405, 407, 408, 410, 411, 413, 414, 416, 417,
                  419, 420, 422, 423, 425, 426, 428, 429, 431, 432, 434, 435,
                  437, 438, 440, 441, 443, 444, 446, 447, 449, 450, 452, 453,
                  455, 456, 458, 459, 461, 462, 464, 465, 467, 468, 470, 471,
                  473, 474, 476, 477, 479, 480, 482, 483, 485, 486, 488, 489,
                  491, 492, 494, 495, 497, 498, 500, 501, 503, 504, 506, 507,
                  509, 510, 512, 513, 515, 516, 518, 519, 521, 522, 524, 525,
                  527, 528, 530, 531, 533, 534, 536, 537, 539, 540, 542, 543,
                  545, 546, 548, 549, 551, 552, 554, 555, 557, 558, 560, 561,
                  563, 564, 566, 567, 569, 570, 572, 573, 575, 576, 578, 579,
                  581, 582, 584, 585, 587, 588, 590, 591, 593, 594, 596, 597,
                  599, 600, 602, 603, 605, 606, 608, 609, 611, 612, 614, 615,
                  617, 618, 620, 621, 623, 624, 626, 627, 629, 630, 632, 633,
                  635, 636, 638, 639, 641, 642, 644, 645, 647, 648, 650, 651,
                  653, 654, 656, 657, 659, 660, 662, 663, 665, 666, 668, 669,
                  671, 672, 674, 675, 677, 678, 680, 681, 683, 684, 686, 687,
                  689, 690, 692, 693, 695, 696, 698, 699, 701, 702, 704, 705,
                  707, 708, 710, 711, 713, 714, 716, 717, 719, 720, 722, 723,
                  725, 726, 728, 729, 731, 732, 734, 735, 737, 738, 740, 741,
                  743, 744, 746, 747, 749, 750, 752, 753, 755, 756

molecular fragmentation (1/2 indicates fragments):
111222222222222222222222222222222222222222222222222222222222222222222222
222222222222222222222222222222222222222222222222222222222222222222222222
222222222222222222222222222222222222222222222222222222222222222222222222
222222222222222222222222222222222222222222222222222222222222222222222222
222222222222222222222222222222222222222222222222222222222222222222222222
222222222222222222222222222222222222222222222222222222222222222222222222
222222222222222222222222222222222222222222222222222222222222222222222222
222222222222222222222222222222222222222222222222222222222222222222222222
222222222222222222222222222222222222222222222222222222222222222222222222
222222222222222222222222222222222222222222222222222222222222222222222222
222222222222222222222222222222222222
# atoms in fragment 1/2:     3   753
 fragment masses (1/2) :       18.02     4521.84
CMA distance (Bohr)    :  18.739
constraining FC (au)   :  0.0500

           -------------------------------------------------
          |                 G F N 2 - x T B                 |
           -------------------------------------------------

        Reference                      10.1021/acs.jctc.8b01176
      * Hamiltonian:
        H0-scaling (s, p, d)           1.850000    2.230000    2.230000
        zeta-weighting                 0.500000
      * Dispersion:
        s8                             2.700000
        a1                             0.520000
        a2                             5.000000
        s9                             5.000000
      * Repulsion:
        kExp                           1.500000    1.000000
        rExp                           1.000000
      * Coulomb:
        alpha                          2.000000
        third order                    shell-resolved
        anisotropic                    true
        a3                             3.000000
        a5                             4.000000
        cn-shift                       1.200000
        cn-exp                         4.000000
        max-rad                        5.000000

      * Solvation model:               GBSA
        Solvent                        water
        Parameter file                 internal GFN2-xTB/GBSA
        Dielectric constant                8.0200E+01
        Reference state                gsolv [1 M gas/solution]
        Free energy shift                  1.8574E-03 Eh       1.1656E+00 kcal/mol
        Temperature                        2.9815E+02 K
        Density                            1.0000E+00 kg/L
        Solvent mass                       1.8000E+01 g/mol
        Interaction kernel             Still
        Born radius scaling (c1)           1.5524E+00
        Born radii integrator          GBOBC
        Born offset                        2.4628E-02 a0       4.6540E-02 AA
        H-bond correction              true
        Ion screening                  false
        Surface tension                    1.0000E-05 Eh       1.5569E+01 dyn/cm
        Grid points                               230 per atom

          ...................................................
          :                      SETUP                      :
          :.................................................:
          :  # basis functions                1512          :
          :  # atomic orbitals                1512          :
          :  # shells                         1008          :
          :  # electrons                      2016          :
          :  max. iterations                   250          :
          :  Hamiltonian                  GFN2-xTB          :
          :  restarted?                      false          :
          :  GBSA solvation                   true          :
          :  PC potential                    false          :
          :  electronic temp.          300.0000000     K    :
          :  accuracy                    1.0000000          :
          :  -> integral cutoff          0.2500000E+02      :
          :  -> integral neglect         0.1000000E-07      :
          :  -> SCF convergence          0.1000000E-05 Eh   :
          :  -> wf. convergence          0.1000000E-03 e    :
          :  Broyden damping             0.4000000          :
          ...................................................

 iter      E             dE          RMSdq      gap      omega  full diag
   1  -1291.2298235 -0.129123E+04  0.409E+00    8.34       0.0  T
   2  -1291.3146600 -0.848366E-01  0.242E+00    7.95       1.0  T
   3  -1291.3508106 -0.361506E-01  0.225E-01    6.91       1.0  T
   4  -1291.3562952 -0.548463E-02  0.486E-02    7.15       1.0  T
   5  -1291.3564604 -0.165194E-03  0.312E-02    7.09       1.0  T
   6  -1291.3565097 -0.493223E-04  0.375E-03    7.09       1.0  T
   7  -1291.3565114 -0.167226E-05  0.964E-04    7.09       3.8  T
   8  -1291.3565115 -0.107660E-06  0.475E-04    7.09       7.7  T
   9  -1291.3565116 -0.369214E-07  0.139E-04    7.09      26.2  T

   *** convergence criteria satisfied after 9 iterations ***

         #    Occupation            Energy/Eh            Energy/eV
      -------------------------------------------------------------
         1        2.0000           -0.6544145             -17.8075
       ...           ...                  ...                  ...
      1002        2.0000           -0.3313865              -9.0175
      1003        2.0000           -0.3306979              -8.9987
      1004        2.0000           -0.3280741              -8.9274
      1005        2.0000           -0.3279076              -8.9228
      1006        2.0000           -0.3262606              -8.8780
      1007        2.0000           -0.3166132              -8.6155
      1008        2.0000           -0.3135176              -8.5312 (HOMO)
      1009                         -0.0529283              -1.4403 (LUMO)
      1010                         -0.0457125              -1.2439
      1011                         -0.0339730              -0.9245
      1012                         -0.0317157              -0.8630
      1013                         -0.0276789              -0.7532
       ...                                ...                  ...
      1512                          0.4989746              13.5778
      -------------------------------------------------------------
                  HL-Gap            0.2605893 Eh            7.0910 eV
             Fermi-level           -0.1832229 Eh           -4.9858 eV

 SCC (total)                   0 d,  0 h,  0 min, 20.207 sec
 SCC setup                      ...        0 min,  0.118 sec (  0.583%)
 Dispersion                     ...        0 min,  0.110 sec (  0.544%)
 classical contributions        ...        0 min,  0.023 sec (  0.115%)
 integral evaluation            ...        0 min,  0.614 sec (  3.040%)
 iterations                     ...        0 min,  6.766 sec ( 33.483%)
 molecular gradient             ...        0 min, 12.511 sec ( 61.911%)
 printout                       ...        0 min,  0.065 sec (  0.323%)

         :::::::::::::::::::::::::::::::::::::::::::::::::::::
         ::                     SUMMARY                     ::
         :::::::::::::::::::::::::::::::::::::::::::::::::::::
         :: total energy           -1283.540386136726 Eh    ::
         :: total w/o Gsasa/hb     -1283.313618108676 Eh    ::
         :: gradient norm              0.127234712110 Eh/a0 ::
         :: HOMO-LUMO gap              7.090996045280 eV    ::
         ::.................................................::
         :: SCC energy             -1291.356511566001 Eh    ::
         :: -> isotropic ES            7.343452341270 Eh    ::
         :: -> anisotropic ES         -1.628883512504 Eh    ::
         :: -> anisotropic XC         -0.120226263835 Eh    ::
         :: -> dispersion             -0.800279316130 Eh    ::
         :: -> Gsolv                  -0.263863528314 Eh    ::
         ::    -> Gelec               -0.037095500264 Eh    ::
         ::    -> Gsasa                0.005738625159 Eh    ::
         ::    -> Ghb                 -0.234364096337 Eh    ::
         ::    -> Gshift               0.001857443127 Eh    ::
         :: repulsion energy           7.657518387860 Eh    ::
         :: add. restraining           0.000000000000 Eh    ::
         :: total charge              -0.000000000000 e     ::
         :::::::::::::::::::::::::::::::::::::::::::::::::::::

           -------------------------------------------------
          |                Property Printout                |
           -------------------------------------------------

    * Orbital Energies and Occupations

         #    Occupation            Energy/Eh            Energy/eV
      -------------------------------------------------------------
         1        2.0000           -0.6544145             -17.8075
       ...           ...                  ...                  ...
       996        2.0000           -0.3411952              -9.2844
       997        2.0000           -0.3390165              -9.2251
       998        2.0000           -0.3383873              -9.2080
       999        2.0000           -0.3374576              -9.1827
      1000        2.0000           -0.3365974              -9.1593
      1001        2.0000           -0.3328802              -9.0581
      1002        2.0000           -0.3313865              -9.0175
      1003        2.0000           -0.3306979              -8.9987
      1004        2.0000           -0.3280741              -8.9274
      1005        2.0000           -0.3279076              -8.9228
      1006        2.0000           -0.3262606              -8.8780
      1007        2.0000           -0.3166132              -8.6155
      1008        2.0000           -0.3135176              -8.5312 (HOMO)
      1009                         -0.0529283              -1.4403 (LUMO)
      1010                         -0.0457125              -1.2439
      1011                         -0.0339730              -0.9245
      1012                         -0.0317157              -0.8630
      1013                         -0.0276789              -0.7532
      1014                         -0.0216776              -0.5899
      1015                         -0.0192938              -0.5250
      1016                         -0.0084968              -0.2312
      1017                         -0.0063011              -0.1715
      1018                         -0.0047375              -0.1289
      1019                         -0.0026536              -0.0722
       ...                                ...                  ...
      1512                          0.4989746              13.5778
      -------------------------------------------------------------
                  HL-Gap            0.2605893 Eh            7.0910 eV
             Fermi-level           -0.1832229 Eh           -4.9858 eV

     #   Z          covCN         q      C6AA      α(0)
     1   8 o        1.610    -0.656    26.571     6.957
     2   1 h        0.804     0.349     0.591     1.208
     3   1 h        0.805     0.327     0.646     1.262
     4   8 o        1.607    -0.687    27.367     7.061
     5   1 h        0.804     0.345     0.600     1.217
     6   1 h        0.804     0.351     0.586     1.202
     7   8 o        1.606    -0.694    27.564     7.086
     8   1 h        0.804     0.336     0.623     1.240
     9   1 h        0.802     0.349     0.591     1.208
    10   8 o        1.608    -0.685    27.315     7.054
    11   1 h        0.803     0.346     0.597     1.213
    12   1 h        0.804     0.338     0.617     1.233
    13   8 o        1.609    -0.690    27.445     7.071
    14   1 h        0.805     0.331     0.635     1.252
    15   1 h        0.804     0.339     0.614     1.231
    16   8 o        1.607    -0.672    26.983     7.011
    17   1 h        0.803     0.361     0.564     1.180
    18   1 h        0.804     0.333     0.630     1.247
    19   8 o        1.607    -0.681    27.209     7.040
    20   1 h        0.805     0.326     0.648     1.264
    21   1 h        0.802     0.356     0.574     1.191
    22   8 o        1.608    -0.678    27.127     7.029
    23   1 h        0.804     0.329     0.639     1.256
    24   1 h        0.804     0.365     0.554     1.169
    25   8 o        1.609    -0.668    26.869     6.996
    26   1 h        0.804     0.331     0.634     1.251
    27   1 h        0.805     0.338     0.618     1.235
    28   8 o        1.606    -0.695    27.579     7.088
    29   1 h        0.804     0.344     0.603     1.219
    30   1 h        0.802     0.354     0.579     1.195
    31   8 o        1.607    -0.687    27.362     7.060
    32   1 h        0.804     0.350     0.589     1.205
    33   1 h        0.804     0.342     0.607     1.224
    34   8 o        1.609    -0.662    26.711     6.975
    35   1 h        0.805     0.321     0.662     1.278
    36   1 h        0.804     0.357     0.572     1.188
    37   8 o        1.606    -0.697    27.641     7.096
    38   1 h        0.804     0.348     0.594     1.210
    39   1 h        0.803     0.342     0.608     1.224
    40   8 o        1.608    -0.669    26.896     6.999
    41   1 h        0.805     0.345     0.601     1.217
    42   1 h        0.803     0.344     0.602     1.218
    43   8 o        1.608    -0.669    26.893     6.999
    44   1 h        0.804     0.346     0.599     1.216
    45   1 h        0.803     0.347     0.596     1.212
    46   8 o        1.609    -0.671    26.957     7.007
    47   1 h        0.805     0.330     0.637     1.253
    48   1 h        0.803     0.339     0.614     1.231
    49   8 o        1.610    -0.657    26.581     6.958
    50   1 h        0.804     0.342     0.607     1.223
    51   1 h        0.805     0.322     0.659     1.275
    52   8 o        1.608    -0.694    27.539     7.083
    53   1 h        0.804     0.330     0.636     1.253
    54   1 h        0.804     0.341     0.609     1.225
    55   8 o        1.608    -0.684    27.296     7.051
    56   1 h        0.804     0.330     0.639     1.255
    57   1 h        0.804     0.353     0.582     1.198
    58   8 o        1.607    -0.667    26.842     6.992
    59   1 h        0.803     0.338     0.618     1.235
    60   1 h        0.804     0.336     0.622     1.238
    61   8 o        1.607    -0.686    27.349     7.058
    62   1 h        0.805     0.330     0.638     1.255
    63   1 h        0.803     0.356     0.575     1.191
    64   8 o        1.608    -0.681    27.201     7.039
    65   1 h        0.804     0.354     0.580     1.196
    66   1 h        0.804     0.343     0.605     1.222
    67   8 o        1.607    -0.690    27.438     7.070
    68   1 h        0.803     0.349     0.590     1.207
    69   1 h        0.804     0.345     0.599     1.216
    70   8 o        1.609    -0.678    27.125     7.029
    71   1 h        0.804     0.352     0.584     1.201
    72   1 h        0.805     0.335     0.624     1.241
    73   8 o        1.608    -0.687    27.365     7.060
    74   1 h        0.805     0.332     0.633     1.250
    75   1 h        0.803     0.358     0.570     1.186
    76   8 o        1.608    -0.678    27.128     7.030
    77   1 h        0.804     0.354     0.579     1.195
    78   1 h        0.804     0.335     0.625     1.242
    79   8 o        1.607    -0.686    27.354     7.059
    80   1 h        0.805     0.350     0.588     1.204
    81   1 h        0.803     0.354     0.580     1.196
    82   8 o        1.609    -0.698    27.666     7.099
    83   1 h        0.804     0.336     0.621     1.238
    84   1 h        0.804     0.346     0.597     1.214
    85   8 o        1.609    -0.663    26.751     6.981
    86   1 h        0.804     0.354     0.578     1.194
    87   1 h        0.805     0.350     0.588     1.205
    88   8 o        1.605    -0.712    28.044     7.147
    89   1 h        0.805     0.348     0.593     1.210
    90   1 h        0.804     0.347     0.595     1.212
    91   8 o        1.605    -0.713    28.065     7.150
    92   1 h        0.802     0.358     0.570     1.186
    93   1 h        0.803     0.331     0.636     1.253
    94   8 o        1.609    -0.677    27.104     7.026
    95   1 h        0.804     0.357     0.572     1.188
    96   1 h        0.804     0.340     0.611     1.228
    97   8 o        1.607    -0.687    27.372     7.061
    98   1 h        0.803     0.363     0.560     1.175
    99   1 h        0.804     0.326     0.647     1.263
   100   8 o        1.607    -0.692    27.511     7.079
   101   1 h        0.803     0.356     0.574     1.190
   102   1 h        0.804     0.348     0.592     1.209
   103   8 o        1.607    -0.690    27.450     7.071
   104   1 h        0.802     0.363     0.559     1.174
   105   1 h        0.805     0.341     0.611     1.228
   106   8 o        1.607    -0.671    26.941     7.005
   107   1 h        0.803     0.338     0.617     1.234
   108   1 h        0.804     0.346     0.599     1.215
   109   8 o        1.609    -0.697    27.629     7.094
   110   1 h        0.805     0.329     0.640     1.256
   111   1 h        0.804     0.348     0.592     1.208
   112   8 o        1.607    -0.697    27.633     7.095
   113   1 h        0.805     0.322     0.659     1.275
   114   1 h        0.803     0.356     0.575     1.191
   115   8 o        1.608    -0.688    27.385     7.063
   116   1 h        0.804     0.340     0.612     1.229
   117   1 h        0.803     0.341     0.611     1.228
   118   8 o        1.607    -0.679    27.146     7.032
   119   1 h        0.803     0.338     0.616     1.233
   120   1 h        0.804     0.342     0.608     1.225
   121   8 o        1.605    -0.698    27.647     7.096
   122   1 h        0.803     0.346     0.598     1.214
   123   1 h        0.803     0.335     0.625     1.242
   124   8 o        1.607    -0.704    27.814     7.118
   125   1 h        0.804     0.345     0.600     1.217
   126   1 h        0.804     0.356     0.573     1.190
   127   8 o        1.607    -0.698    27.663     7.099
   128   1 h        0.802     0.350     0.589     1.205
   129   1 h        0.804     0.327     0.646     1.263
   130   8 o        1.606    -0.686    27.350     7.058
   131   1 h        0.802     0.369     0.545     1.160
   132   1 h        0.805     0.330     0.637     1.254
   133   8 o        1.608    -0.669    26.897     7.000
   134   1 h        0.804     0.348     0.592     1.209
   135   1 h        0.804     0.339     0.616     1.232
   136   8 o        1.608    -0.663    26.747     6.980
   137   1 h        0.805     0.330     0.637     1.254
   138   1 h        0.803     0.340     0.611     1.228
   139   8 o        1.607    -0.690    27.455     7.072
   140   1 h        0.803     0.347     0.596     1.213
   141   1 h        0.804     0.329     0.640     1.256
   142   8 o        1.609    -0.658    26.611     6.962
   143   1 h        0.805     0.325     0.651     1.268
   144   1 h        0.804     0.333     0.629     1.246
   145   8 o        1.606    -0.667    26.855     6.994
   146   1 h        0.802     0.358     0.570     1.186
   147   1 h        0.806     0.310     0.693     1.307
   148   8 o        1.607    -0.690    27.458     7.072
   149   1 h        0.803     0.360     0.565     1.181
   150   1 h        0.804     0.337     0.619     1.236
   151   8 o        1.607    -0.713    28.068     7.150
   152   1 h        0.804     0.345     0.601     1.218
   153   1 h        0.803     0.337     0.620     1.237
   154   8 o        1.608    -0.698    27.652     7.097
   155   1 h        0.804     0.332     0.633     1.250
   156   1 h        0.804     0.327     0.645     1.262
   157   8 o        1.608    -0.687    27.375     7.062
   158   1 h        0.804     0.354     0.579     1.195
   159   1 h        0.804     0.347     0.595     1.212
   160   8 o        1.607    -0.682    27.250     7.045
   161   1 h        0.803     0.358     0.569     1.185
   162   1 h        0.804     0.326     0.647     1.264
   163   8 o        1.608    -0.670    26.923     7.003
   164   1 h        0.804     0.334     0.628     1.245
   165   1 h        0.804     0.352     0.583     1.199
   166   8 o        1.607    -0.683    27.258     7.046
   167   1 h        0.803     0.335     0.625     1.242
   168   1 h        0.804     0.343     0.606     1.223
   169   8 o        1.608    -0.653    26.480     6.945
   170   1 h        0.805     0.323     0.657     1.273
   171   1 h        0.803     0.338     0.617     1.234
   172   8 o        1.607    -0.694    27.547     7.084
   173   1 h        0.803     0.361     0.563     1.179
   174   1 h        0.803     0.329     0.641     1.257
   175   8 o        1.607    -0.674    27.017     7.015
   176   1 h        0.804     0.353     0.581     1.198
   177   1 h        0.802     0.336     0.623     1.240
   178   8 o        1.607    -0.670    26.917     7.002
   179   1 h        0.803     0.340     0.612     1.229
   180   1 h        0.804     0.329     0.640     1.257
   181   8 o        1.608    -0.690    27.459     7.072
   182   1 h        0.803     0.363     0.559     1.174
   183   1 h        0.804     0.340     0.613     1.230
   184   8 o        1.610    -0.654    26.511     6.949
   185   1 h        0.806     0.320     0.664     1.280
   186   1 h        0.804     0.336     0.621     1.238
   187   8 o        1.606    -0.700    27.702     7.103
   188   1 h        0.804     0.334     0.626     1.243
   189   1 h        0.802     0.345     0.600     1.217
   190   8 o        1.608    -0.677    27.101     7.026
   191   1 h        0.804     0.331     0.634     1.251
   192   1 h        0.804     0.345     0.601     1.218
   193   8 o        1.609    -0.669    26.911     7.001
   194   1 h        0.804     0.331     0.634     1.251
   195   1 h        0.805     0.333     0.629     1.245
   196   8 o        1.608    -0.675    27.061     7.021
   197   1 h        0.805     0.325     0.651     1.267
   198   1 h        0.804     0.352     0.583     1.199
   199   8 o        1.609    -0.680    27.174     7.036
   200   1 h        0.804     0.319     0.666     1.282
   201   1 h        0.805     0.336     0.622     1.239
   202   8 o        1.606    -0.702    27.772     7.113
   203   1 h        0.804     0.346     0.597     1.214
   204   1 h        0.802     0.363     0.560     1.175
   205   8 o        1.608    -0.689    27.427     7.068
   206   1 h        0.804     0.356     0.575     1.191
   207   1 h        0.804     0.340     0.613     1.230
   208   8 o        1.606    -0.674    27.028     7.017
   209   1 h        0.801     0.363     0.559     1.175
   210   1 h        0.806     0.309     0.693     1.307
   211   8 o        1.607    -0.702    27.753     7.110
   212   1 h        0.803     0.337     0.619     1.236
   213   1 h        0.803     0.346     0.597     1.213
   214   8 o        1.612    -0.680    27.169     7.035
   215   1 h        0.804     0.350     0.589     1.206
   216   1 h        0.804     0.340     0.612     1.228
   217   8 o        1.608    -0.665    26.792     6.986
   218   1 h        0.803     0.337     0.619     1.236
   219   1 h        0.804     0.340     0.611     1.228
   220   8 o        1.608    -0.683    27.254     7.046
   221   1 h        0.805     0.338     0.616     1.233
   222   1 h        0.803     0.353     0.582     1.198
   223   8 o        1.607    -0.675    27.053     7.020
   224   1 h        0.805     0.334     0.628     1.245
   225   1 h        0.802     0.341     0.611     1.228
   226   8 o        1.609    -0.663    26.756     6.981
   227   1 h        0.806     0.316     0.674     1.290
   228   1 h        0.804     0.345     0.601     1.217
   229   8 o        1.608    -0.676    27.085     7.024
   230   1 h        0.804     0.344     0.602     1.219
   231   1 h        0.804     0.331     0.636     1.253
   232   8 o        1.607    -0.690    27.446     7.071
   233   1 h        0.804     0.323     0.657     1.273
   234   1 h        0.803     0.342     0.608     1.225
   235   8 o        1.608    -0.685    27.312     7.053
   236   1 h        0.803     0.359     0.568     1.184
   237   1 h        0.803     0.341     0.611     1.228
   238   8 o        1.609    -0.677    27.110     7.027
   239   1 h        0.805     0.334     0.628     1.245
   240   1 h        0.804     0.342     0.607     1.224
   241   8 o        1.609    -0.665    26.789     6.986
   242   1 h        0.804     0.341     0.609     1.226
   243   1 h        0.805     0.337     0.620     1.237
   244   8 o        1.607    -0.690    27.450     7.071
   245   1 h        0.805     0.328     0.643     1.260
   246   1 h        0.802     0.360     0.566     1.182
   247   8 o        1.608    -0.673    26.994     7.012
   248   1 h        0.804     0.324     0.653     1.269
   249   1 h        0.803     0.358     0.570     1.185
   250   8 o        1.610    -0.639    26.150     6.902
   251   1 h        0.806     0.318     0.668     1.283
   252   1 h        0.805     0.346     0.597     1.213
   253   8 o        1.605    -0.705    27.854     7.123
   254   1 h        0.803     0.354     0.580     1.197
   255   1 h        0.803     0.347     0.596     1.213
   256   8 o        1.607    -0.673    27.016     7.015
   257   1 h        0.802     0.350     0.588     1.205
   258   1 h        0.805     0.329     0.641     1.257
   259   8 o        1.608    -0.698    27.649     7.097
   260   1 h        0.804     0.327     0.646     1.263
   261   1 h        0.804     0.362     0.562     1.177
   262   8 o        1.604    -0.721    28.265     7.175
   263   1 h        0.803     0.360     0.567     1.183
   264   1 h        0.802     0.359     0.567     1.183
   265   8 o        1.606    -0.686    27.336     7.056
   266   1 h        0.801     0.368     0.549     1.164
   267   1 h        0.805     0.315     0.678     1.293
   268   8 o        1.608    -0.668    26.865     6.995
   269   1 h        0.806     0.316     0.673     1.289
   270   1 h        0.802     0.344     0.602     1.219
   271   8 o        1.607    -0.694    27.546     7.084
   272   1 h        0.805     0.351     0.586     1.203
   273   1 h        0.803     0.339     0.614     1.231
   274   8 o        1.608    -0.675    27.058     7.021
   275   1 h        0.805     0.306     0.704     1.318
   276   1 h        0.803     0.360     0.566     1.182
   277   8 o        1.607    -0.676    27.075     7.023
   278   1 h        0.803     0.358     0.569     1.186
   279   1 h        0.804     0.325     0.650     1.267
   280   8 o        1.608    -0.692    27.497     7.077
   281   1 h        0.804     0.345     0.599     1.216
   282   1 h        0.804     0.335     0.624     1.241
   283   8 o        1.609    -0.672    26.969     7.009
   284   1 h        0.804     0.328     0.643     1.260
   285   1 h        0.805     0.330     0.636     1.253
   286   8 o        1.609    -0.665    26.785     6.985
   287   1 h        0.804     0.332     0.631     1.248
   288   1 h        0.805     0.315     0.678     1.294
   289   8 o        1.607    -0.687    27.360     7.060
   290   1 h        0.804     0.338     0.617     1.234
   291   1 h        0.803     0.343     0.606     1.223
   292   8 o        1.606    -0.699    27.689     7.102
   293   1 h        0.802     0.363     0.559     1.175
   294   1 h        0.803     0.333     0.629     1.246
   295   8 o        1.607    -0.684    27.287     7.050
   296   1 h        0.805     0.325     0.650     1.266
   297   1 h        0.803     0.357     0.572     1.188
   298   8 o        1.609    -0.684    27.299     7.052
   299   1 h        0.804     0.342     0.608     1.225
   300   1 h        0.804     0.353     0.580     1.197
   301   8 o        1.605    -0.696    27.619     7.093
   302   1 h        0.803     0.331     0.634     1.251
   303   1 h        0.803     0.362     0.561     1.177
   304   8 o        1.608    -0.663    26.748     6.980
   305   1 h        0.806     0.311     0.689     1.303
   306   1 h        0.803     0.364     0.558     1.173
   307   8 o        1.607    -0.693    27.521     7.080
   308   1 h        0.803     0.352     0.584     1.201
   309   1 h        0.803     0.342     0.608     1.225
   310   8 o        1.607    -0.680    27.190     7.038
   311   1 h        0.804     0.322     0.660     1.276
   312   1 h        0.803     0.347     0.595     1.212
   313   8 o        1.605    -0.698    27.665     7.099
   314   1 h        0.803     0.343     0.605     1.222
   315   1 h        0.802     0.340     0.611     1.228
   316   8 o        1.608    -0.670    26.926     7.003
   317   1 h        0.805     0.324     0.654     1.270
   318   1 h        0.803     0.341     0.610     1.227
   319   8 o        1.608    -0.685    27.326     7.055
   320   1 h        0.803     0.335     0.624     1.241
   321   1 h        0.805     0.328     0.644     1.260
   322   8 o        1.607    -0.659    26.656     6.968
   323   1 h        0.802     0.354     0.579     1.196
   324   1 h        0.805     0.322     0.659     1.275
   325   8 o        1.608    -0.670    26.925     7.003
   326   1 h        0.803     0.343     0.604     1.221
   327   1 h        0.805     0.323     0.655     1.271
   328   8 o        1.608    -0.662    26.724     6.977
   329   1 h        0.805     0.320     0.665     1.281
   330   1 h        0.802     0.368     0.547     1.162
   331   8 o        1.606    -0.695    27.588     7.089
   332   1 h        0.803     0.357     0.572     1.188
   333   1 h        0.803     0.328     0.642     1.259
   334   8 o        1.608    -0.670    26.916     7.002
   335   1 h        0.803     0.359     0.568     1.184
   336   1 h        0.805     0.340     0.611     1.228
   337   8 o        1.607    -0.682    27.249     7.045
   338   1 h        0.804     0.350     0.588     1.205
   339   1 h        0.804     0.352     0.583     1.199
   340   8 o        1.609    -0.663    26.745     6.980
   341   1 h        0.805     0.324     0.653     1.270
   342   1 h        0.804     0.336     0.621     1.238
   343   8 o        1.609    -0.674    27.022     7.016
   344   1 h        0.805     0.341     0.611     1.228
   345   1 h        0.804     0.334     0.628     1.244
   346   8 o        1.607    -0.691    27.468     7.073
   347   1 h        0.803     0.356     0.575     1.191
   348   1 h        0.804     0.328     0.643     1.260
   349   8 o        1.607    -0.675    27.045     7.019
   350   1 h        0.804     0.330     0.639     1.255
   351   1 h        0.804     0.349     0.591     1.208
   352   8 o        1.607    -0.674    27.042     7.018
   353   1 h        0.803     0.332     0.632     1.249
   354   1 h        0.804     0.329     0.640     1.257
   355   8 o        1.610    -0.630    25.922     6.872
   356   1 h        0.805     0.333     0.630     1.247
   357   1 h        0.805     0.318     0.669     1.285
   358   8 o        1.608    -0.674    27.017     7.015
   359   1 h        0.804     0.347     0.595     1.212
   360   1 h        0.804     0.329     0.640     1.256
   361   8 o        1.608    -0.675    27.051     7.020
   362   1 h        0.802     0.354     0.579     1.195
   363   1 h        0.806     0.312     0.687     1.301
   364   8 o        1.608    -0.693    27.526     7.081
   365   1 h        0.804     0.351     0.587     1.203
   366   1 h        0.804     0.346     0.597     1.214
   367   8 o        1.606    -0.708    27.929     7.133
   368   1 h        0.805     0.349     0.591     1.208
   369   1 h        0.801     0.364     0.556     1.172
   370   8 o        1.610    -0.661    26.699     6.974
   371   1 h        0.805     0.345     0.601     1.217
   372   1 h        0.805     0.335     0.626     1.242
   373   8 o        1.606    -0.702    27.768     7.112
   374   1 h        0.803     0.327     0.646     1.263
   375   1 h        0.803     0.358     0.571     1.187
   376   8 o        1.608    -0.695    27.578     7.088
   377   1 h        0.804     0.344     0.604     1.220
   378   1 h        0.804     0.351     0.585     1.202
   379   8 o        1.606    -0.687    27.372     7.061
   380   1 h        0.804     0.336     0.621     1.238
   381   1 h        0.803     0.364     0.556     1.172
   382   8 o        1.607    -0.680    27.185     7.037
   383   1 h        0.802     0.363     0.559     1.175
   384   1 h        0.805     0.339     0.614     1.231
   385   8 o        1.607    -0.666    26.817     6.989
   386   1 h        0.802     0.350     0.588     1.204
   387   1 h        0.806     0.311     0.688     1.303
   388   8 o        1.604    -0.705    27.848     7.122
   389   1 h        0.803     0.362     0.560     1.176
   390   1 h        0.802     0.333     0.629     1.246
   391   8 o        1.608    -0.683    27.267     7.048
   392   1 h        0.804     0.364     0.557     1.172
   393   1 h        0.804     0.333     0.629     1.245
   394   8 o        1.607    -0.667    26.853     6.994
   395   1 h        0.805     0.325     0.650     1.266
   396   1 h        0.802     0.362     0.561     1.176
   397   8 o        1.609    -0.677    27.101     7.026
   398   1 h        0.804     0.340     0.613     1.230
   399   1 h        0.805     0.324     0.654     1.270
   400   8 o        1.607    -0.689    27.424     7.068
   401   1 h        0.802     0.341     0.610     1.227
   402   1 h        0.805     0.340     0.612     1.229
   403   8 o        1.607    -0.690    27.441     7.070
   404   1 h        0.803     0.333     0.629     1.246
   405   1 h        0.803     0.352     0.583     1.200
   406   8 o        1.607    -0.678    27.146     7.032
   407   1 h        0.804     0.320     0.664     1.280
   408   1 h        0.803     0.355     0.578     1.194
   409   8 o        1.609    -0.675    27.062     7.021
   410   1 h        0.805     0.341     0.609     1.225
   411   1 h        0.804     0.358     0.569     1.185
   412   8 o        1.608    -0.669    26.900     7.000
   413   1 h        0.805     0.324     0.654     1.270
   414   1 h        0.803     0.363     0.559     1.174
   415   8 o        1.608    -0.683    27.275     7.049
   416   1 h        0.805     0.313     0.682     1.297
   417   1 h        0.804     0.350     0.589     1.205
   418   8 o        1.608    -0.680    27.182     7.037
   419   1 h        0.805     0.315     0.677     1.292
   420   1 h        0.803     0.365     0.555     1.171
   421   8 o        1.608    -0.671    26.959     7.008
   422   1 h        0.804     0.352     0.584     1.200
   423   1 h        0.804     0.343     0.604     1.221
   424   8 o        1.608    -0.674    27.030     7.017
   425   1 h        0.805     0.321     0.662     1.278
   426   1 h        0.803     0.361     0.563     1.179
   427   8 o        1.606    -0.689    27.430     7.069
   428   1 h        0.802     0.342     0.609     1.226
   429   1 h        0.804     0.329     0.639     1.255
   430   8 o        1.605    -0.686    27.332     7.056
   431   1 h        0.806     0.304     0.710     1.323
   432   1 h        0.801     0.370     0.543     1.158
   433   8 o        1.608    -0.647    26.347     6.928
   434   1 h        0.806     0.305     0.706     1.320
   435   1 h        0.803     0.347     0.595     1.212
   436   8 o        1.607    -0.679    27.166     7.034
   437   1 h        0.803     0.323     0.655     1.271
   438   1 h        0.803     0.363     0.558     1.174
   439   8 o        1.608    -0.677    27.095     7.025
   440   1 h        0.803     0.348     0.592     1.209
   441   1 h        0.805     0.326     0.648     1.265
   442   8 o        1.607    -0.688    27.390     7.063
   443   1 h        0.804     0.330     0.637     1.254
   444   1 h        0.803     0.359     0.568     1.184
   445   8 o        1.608    -0.656    26.560     6.956
   446   1 h        0.805     0.321     0.660     1.276
   447   1 h        0.803     0.333     0.629     1.246
   448   8 o        1.610    -0.663    26.749     6.980
   449   1 h        0.805     0.338     0.617     1.234
   450   1 h        0.805     0.332     0.633     1.250
   451   8 o        1.608    -0.682    27.249     7.045
   452   1 h        0.805     0.332     0.632     1.249
   453   1 h        0.803     0.356     0.574     1.190
   454   8 o        1.608    -0.686    27.350     7.058
   455   1 h        0.803     0.366     0.552     1.167
   456   1 h        0.805     0.337     0.620     1.237
   457   8 o        1.608    -0.683    27.263     7.047
   458   1 h        0.803     0.356     0.575     1.191
   459   1 h        0.804     0.318     0.670     1.286
   460   8 o        1.609    -0.681    27.222     7.042
   461   1 h        0.805     0.340     0.613     1.230
   462   1 h        0.803     0.367     0.551     1.166
   463   8 o        1.604    -0.691    27.471     7.074
   464   1 h        0.803     0.330     0.638     1.255
   465   1 h        0.802     0.339     0.615     1.232
   466   8 o        1.608    -0.689    27.409     7.066
   467   1 h        0.804     0.338     0.617     1.234
   468   1 h        0.804     0.333     0.630     1.247
   469   8 o        1.608    -0.694    27.540     7.083
   470   1 h        0.804     0.344     0.601     1.218
   471   1 h        0.805     0.328     0.644     1.260
   472   8 o        1.608    -0.673    27.014     7.015
   473   1 h        0.803     0.340     0.612     1.229
   474   1 h        0.805     0.332     0.632     1.249
   475   8 o        1.607    -0.695    27.575     7.087
   476   1 h        0.803     0.370     0.543     1.158
   477   1 h        0.804     0.340     0.613     1.230
   478   8 o        1.608    -0.680    27.181     7.036
   479   1 h        0.804     0.344     0.602     1.218
   480   1 h        0.804     0.342     0.607     1.224
   481   8 o        1.607    -0.703    27.797     7.116
   482   1 h        0.804     0.331     0.634     1.250
   483   1 h        0.803     0.352     0.583     1.199
   484   8 o        1.608    -0.679    27.169     7.035
   485   1 h        0.805     0.324     0.654     1.270
   486   1 h        0.803     0.360     0.565     1.181
   487   8 o        1.606    -0.693    27.517     7.080
   488   1 h        0.803     0.338     0.618     1.235
   489   1 h        0.803     0.334     0.627     1.244
   490   8 o        1.608    -0.687    27.375     7.062
   491   1 h        0.804     0.324     0.654     1.270
   492   1 h        0.804     0.339     0.615     1.232
   493   8 o        1.608    -0.679    27.153     7.033
   494   1 h        0.805     0.321     0.661     1.277
   495   1 h        0.803     0.336     0.623     1.240
   496   8 o        1.609    -0.658    26.618     6.963
   497   1 h        0.805     0.331     0.634     1.251
   498   1 h        0.804     0.350     0.588     1.205
   499   8 o        1.609    -0.676    27.080     7.023
   500   1 h        0.803     0.349     0.590     1.207
   501   1 h        0.805     0.320     0.663     1.279
   502   8 o        1.608    -0.662    26.713     6.976
   503   1 h        0.806     0.317     0.673     1.288
   504   1 h        0.803     0.356     0.575     1.191
   505   8 o        1.609    -0.684    27.297     7.051
   506   1 h        0.804     0.348     0.593     1.209
   507   1 h        0.805     0.328     0.642     1.259
   508   8 o        1.610    -0.684    27.280     7.049
   509   1 h        0.806     0.340     0.612     1.229
   510   1 h        0.804     0.347     0.595     1.212
   511   8 o        1.608    -0.683    27.261     7.047
   512   1 h        0.805     0.317     0.672     1.288
   513   1 h        0.803     0.366     0.553     1.168
   514   8 o        1.609    -0.664    26.777     6.984
   515   1 h        0.804     0.344     0.602     1.219
   516   1 h        0.805     0.329     0.641     1.257
   517   8 o        1.609    -0.676    27.079     7.023
   518   1 h        0.804     0.338     0.618     1.235
   519   1 h        0.804     0.336     0.622     1.239
   520   8 o        1.607    -0.674    27.030     7.017
   521   1 h        0.802     0.362     0.562     1.177
   522   1 h        0.805     0.316     0.675     1.291
   523   8 o        1.609    -0.659    26.647     6.967
   524   1 h        0.805     0.329     0.639     1.255
   525   1 h        0.804     0.338     0.616     1.233
   526   8 o        1.608    -0.661    26.706     6.975
   527   1 h        0.803     0.331     0.634     1.251
   528   1 h        0.804     0.326     0.647     1.263
   529   8 o        1.605    -0.705    27.855     7.123
   530   1 h        0.802     0.364     0.557     1.173
   531   1 h        0.804     0.333     0.630     1.246
   532   8 o        1.605    -0.688    27.407     7.066
   533   1 h        0.803     0.346     0.597     1.214
   534   1 h        0.802     0.337     0.619     1.236
   535   8 o        1.609    -0.675    27.044     7.019
   536   1 h        0.804     0.340     0.612     1.229
   537   1 h        0.804     0.331     0.634     1.251
   538   8 o        1.608    -0.680    27.179     7.036
   539   1 h        0.805     0.332     0.631     1.248
   540   1 h        0.804     0.345     0.601     1.218
   541   8 o        1.608    -0.659    26.640     6.966
   542   1 h        0.805     0.323     0.656     1.272
   543   1 h        0.803     0.341     0.609     1.226
   544   8 o        1.610    -0.637    26.077     6.892
   545   1 h        0.804     0.340     0.613     1.230
   546   1 h        0.806     0.304     0.708     1.322
   547   8 o        1.607    -0.675    27.065     7.021
   548   1 h        0.804     0.336     0.622     1.238
   549   1 h        0.803     0.335     0.624     1.241
   550   8 o        1.606    -0.686    27.336     7.056
   551   1 h        0.804     0.321     0.661     1.277
   552   1 h        0.803     0.364     0.556     1.172
   553   8 o        1.607    -0.693    27.531     7.082
   554   1 h        0.804     0.329     0.639     1.255
   555   1 h        0.803     0.362     0.560     1.176
   556   8 o        1.608    -0.656    26.557     6.955
   557   1 h        0.804     0.333     0.631     1.248
   558   1 h        0.805     0.344     0.601     1.218
   559   8 o        1.609    -0.694    27.551     7.084
   560   1 h        0.804     0.341     0.609     1.226
   561   1 h        0.804     0.333     0.629     1.246
   562   8 o        1.607    -0.684    27.299     7.052
   563   1 h        0.804     0.326     0.648     1.264
   564   1 h        0.803     0.352     0.584     1.201
   565   8 o        1.606    -0.676    27.073     7.022
   566   1 h        0.803     0.334     0.627     1.244
   567   1 h        0.802     0.332     0.632     1.248
   568   8 o        1.607    -0.690    27.440     7.070
   569   1 h        0.805     0.324     0.652     1.268
   570   1 h        0.801     0.365     0.555     1.170
   571   8 o        1.610    -0.655    26.529     6.952
   572   1 h        0.806     0.311     0.689     1.304
   573   1 h        0.804     0.363     0.558     1.174
   574   8 o        1.606    -0.680    27.178     7.036
   575   1 h        0.805     0.313     0.682     1.297
   576   1 h        0.802     0.369     0.546     1.160
   577   8 o        1.607    -0.701    27.735     7.108
   578   1 h        0.804     0.334     0.626     1.243
   579   1 h        0.803     0.349     0.591     1.208
   580   8 o        1.607    -0.687    27.375     7.061
   581   1 h        0.804     0.343     0.605     1.222
   582   1 h        0.803     0.325     0.650     1.267
   583   8 o        1.609    -0.673    27.008     7.014
   584   1 h        0.805     0.335     0.626     1.242
   585   1 h        0.804     0.349     0.591     1.208
   586   8 o        1.609    -0.676    27.078     7.023
   587   1 h        0.805     0.329     0.641     1.257
   588   1 h        0.804     0.345     0.601     1.218
   589   8 o        1.607    -0.695    27.568     7.086
   590   1 h        0.805     0.321     0.660     1.276
   591   1 h        0.803     0.360     0.565     1.181
   592   8 o        1.608    -0.676    27.089     7.024
   593   1 h        0.805     0.327     0.646     1.262
   594   1 h        0.804     0.341     0.609     1.226
   595   8 o        1.610    -0.645    26.280     6.919
   596   1 h        0.805     0.327     0.644     1.261
   597   1 h        0.805     0.331     0.635     1.252
   598   8 o        1.606    -0.674    27.036     7.018
   599   1 h        0.802     0.368     0.548     1.163
   600   1 h        0.805     0.321     0.660     1.276
   601   8 o        1.609    -0.660    26.677     6.971
   602   1 h        0.804     0.333     0.630     1.246
   603   1 h        0.805     0.319     0.666     1.282
   604   8 o        1.608    -0.663    26.751     6.981
   605   1 h        0.803     0.334     0.627     1.244
   606   1 h        0.805     0.333     0.630     1.247
   607   8 o        1.609    -0.679    27.155     7.033
   608   1 h        0.804     0.345     0.601     1.218
   609   1 h        0.805     0.335     0.625     1.242
   610   8 o        1.605    -0.722    28.310     7.181
   611   1 h        0.803     0.343     0.605     1.222
   612   1 h        0.803     0.345     0.600     1.217
   613   8 o        1.609    -0.673    27.002     7.013
   614   1 h        0.804     0.334     0.627     1.244
   615   1 h        0.804     0.338     0.618     1.235
   616   8 o        1.606    -0.683    27.271     7.048
   617   1 h        0.801     0.362     0.561     1.177
   618   1 h        0.805     0.315     0.676     1.292
   619   8 o        1.607    -0.654    26.525     6.951
   620   1 h        0.802     0.337     0.620     1.237
   621   1 h        0.805     0.329     0.639     1.256
   622   8 o        1.609    -0.676    27.082     7.024
   623   1 h        0.804     0.333     0.629     1.245
   624   1 h        0.805     0.324     0.654     1.270
   625   8 o        1.609    -0.691    27.474     7.074
   626   1 h        0.804     0.344     0.603     1.220
   627   1 h        0.804     0.335     0.624     1.241
   628   8 o        1.610    -0.683    27.249     7.045
   629   1 h        0.805     0.341     0.609     1.226
   630   1 h        0.805     0.343     0.604     1.221
   631   8 o        1.609    -0.670    26.929     7.004
   632   1 h        0.804     0.343     0.604     1.221
   633   1 h        0.805     0.332     0.631     1.248
   634   8 o        1.606    -0.675    27.054     7.020
   635   1 h        0.803     0.330     0.637     1.253
   636   1 h        0.803     0.337     0.619     1.236
   637   8 o        1.607    -0.692    27.502     7.078
   638   1 h        0.803     0.327     0.647     1.263
   639   1 h        0.803     0.352     0.584     1.201
   640   8 o        1.607    -0.696    27.603     7.091
   641   1 h        0.804     0.347     0.596     1.212
   642   1 h        0.803     0.348     0.593     1.209
   643   8 o        1.608    -0.660    26.674     6.971
   644   1 h        0.806     0.312     0.686     1.301
   645   1 h        0.802     0.367     0.550     1.165
   646   8 o        1.609    -0.651    26.434     6.939
   647   1 h        0.803     0.346     0.597     1.213
   648   1 h        0.806     0.304     0.708     1.322
   649   8 o        1.607    -0.682    27.235     7.043
   650   1 h        0.802     0.354     0.580     1.196
   651   1 h        0.805     0.326     0.649     1.265
   652   8 o        1.609    -0.688    27.404     7.065
   653   1 h        0.804     0.349     0.591     1.208
   654   1 h        0.805     0.326     0.648     1.264
   655   8 o        1.608    -0.670    26.927     7.004
   656   1 h        0.804     0.335     0.624     1.241
   657   1 h        0.804     0.343     0.606     1.223
   658   8 o        1.606    -0.656    26.577     6.958
   659   1 h        0.802     0.350     0.588     1.205
   660   1 h        0.806     0.309     0.695     1.310
   661   8 o        1.608    -0.662    26.724     6.977
   662   1 h        0.803     0.361     0.564     1.180
   663   1 h        0.804     0.340     0.612     1.229
   664   8 o        1.608    -0.679    27.153     7.033
   665   1 h        0.804     0.326     0.648     1.265
   666   1 h        0.804     0.339     0.614     1.231
   667   8 o        1.607    -0.670    26.932     7.004
   668   1 h        0.806     0.308     0.696     1.310
   669   1 h        0.802     0.347     0.595     1.212
   670   8 o        1.610    -0.653    26.482     6.945
   671   1 h        0.804     0.362     0.561     1.176
   672   1 h        0.805     0.320     0.663     1.279
   673   8 o        1.608    -0.673    27.013     7.015
   674   1 h        0.803     0.349     0.590     1.207
   675   1 h        0.805     0.308     0.698     1.312
   676   8 o        1.609    -0.670    26.934     7.004
   677   1 h        0.804     0.332     0.631     1.248
   678   1 h        0.805     0.322     0.658     1.274
   679   8 o        1.606    -0.715    28.117     7.157
   680   1 h        0.803     0.354     0.578     1.195
   681   1 h        0.803     0.329     0.639     1.256
   682   8 o        1.610    -0.666    26.822     6.990
   683   1 h        0.804     0.336     0.623     1.239
   684   1 h        0.804     0.343     0.604     1.221
   685   8 o        1.609    -0.683    27.264     7.047
   686   1 h        0.804     0.340     0.612     1.229
   687   1 h        0.804     0.331     0.636     1.252
   688   8 o        1.605    -0.705    27.856     7.123
   689   1 h        0.804     0.336     0.623     1.240
   690   1 h        0.802     0.333     0.629     1.246
   691   8 o        1.606    -0.699    27.694     7.102
   692   1 h        0.803     0.326     0.649     1.266
   693   1 h        0.803     0.339     0.614     1.231
   694   8 o        1.608    -0.679    27.162     7.034
   695   1 h        0.804     0.330     0.638     1.255
   696   1 h        0.804     0.328     0.642     1.259
   697   8 o        1.607    -0.692    27.492     7.077
   698   1 h        0.802     0.359     0.568     1.184
   699   1 h        0.805     0.319     0.668     1.283
   700   8 o        1.607    -0.701    27.738     7.108
   701   1 h        0.802     0.357     0.572     1.189
   702   1 h        0.804     0.335     0.626     1.242
   703   8 o        1.608    -0.673    26.991     7.012
   704   1 h        0.804     0.334     0.628     1.245
   705   1 h        0.803     0.363     0.558     1.173
   706   8 o        1.609    -0.676    27.093     7.025
   707   1 h        0.805     0.331     0.635     1.252
   708   1 h        0.803     0.360     0.566     1.181
   709   8 o        1.610    -0.636    26.051     6.889
   710   1 h        0.805     0.341     0.609     1.225
   711   1 h        0.805     0.319     0.666     1.282
   712   8 o        1.607    -0.682    27.227     7.042
   713   1 h        0.802     0.368     0.547     1.162
   714   1 h        0.805     0.320     0.664     1.280
   715   8 o        1.610    -0.656    26.567     6.957
   716   1 h        0.804     0.344     0.603     1.220
   717   1 h        0.805     0.326     0.647     1.264
   718   8 o        1.610    -0.659    26.634     6.965
   719   1 h        0.806     0.306     0.703     1.317
   720   1 h        0.804     0.357     0.572     1.188
   721   8 o        1.608    -0.689    27.416     7.067
   722   1 h        0.804     0.334     0.626     1.243
   723   1 h        0.805     0.342     0.608     1.225
   724   8 o        1.606    -0.692    27.488     7.076
   725   1 h        0.803     0.353     0.581     1.198
   726   1 h        0.804     0.315     0.679     1.294
   727   8 o        1.608    -0.666    26.832     6.991
   728   1 h        0.804     0.336     0.622     1.239
   729   1 h        0.804     0.368     0.549     1.164
   730   8 o        1.608    -0.650    26.410     6.936
   731   1 h        0.802     0.352     0.585     1.201
   732   1 h        0.806     0.314     0.680     1.295
   733   8 o        1.608    -0.644    26.253     6.915
   734   1 h        0.806     0.309     0.694     1.308
   735   1 h        0.803     0.348     0.592     1.209
   736   8 o        1.608    -0.684    27.283     7.050
   737   1 h        0.805     0.328     0.642     1.259
   738   1 h        0.803     0.338     0.617     1.234
   739   8 o        1.610    -0.642    26.207     6.909
   740   1 h        0.805     0.331     0.635     1.252
   741   1 h        0.805     0.319     0.667     1.283
   742   8 o        1.608    -0.660    26.679     6.971
   743   1 h        0.805     0.335     0.626     1.242
   744   1 h        0.804     0.330     0.637     1.253
   745   8 o        1.606    -0.689    27.423     7.068
   746   1 h        0.804     0.342     0.607     1.224
   747   1 h        0.803     0.368     0.547     1.162
   748   8 o        1.606    -0.693    27.514     7.079
   749   1 h        0.803     0.342     0.608     1.225
   750   1 h        0.803     0.360     0.565     1.181
   751   8 o        1.606    -0.712    28.030     7.145
   752   1 h        0.803     0.338     0.616     1.233
   753   1 h        0.804     0.326     0.647     1.264
   754   8 o        1.611    -0.664    26.770     6.983
   755   1 h        0.805     0.337     0.621     1.237
   756   1 h        0.805     0.335     0.624     1.241

 Mol. C6AA /au·bohr⁶  :    2899264.823402
 Mol. C8AA /au·bohr⁸  :   52602956.994136
 Mol. α(0) /au        :       2393.058104


Wiberg/Mayer (AO) data.
largest (>0.10) Wiberg bond orders for each atom

 ---------------------------------------------------------------------------
     #   Z sym  total        # sym  WBO       # sym  WBO       # sym  WBO
 ---------------------------------------------------------------------------
     1   8 o    1.847 --     3 h    0.875     2 h    0.842
     2   1 h    0.878 --     1 o    0.842
     3   1 h    0.893 --     1 o    0.875
     4   8 o    1.858 --     5 h    0.822     6 h    0.816
     5   1 h    0.881 --     4 o    0.822
     6   1 h    0.877 --     4 o    0.816
     7   8 o    1.833 --     8 h    0.841     9 h    0.791
     8   1 h    0.887 --     7 o    0.841
     9   1 h    0.878 --     7 o    0.791
    10   8 o    1.856 --    12 h    0.837    11 h    0.808
    11   1 h    0.880 --    10 o    0.808
    12   1 h    0.886 --    10 o    0.837
    13   8 o    1.821 --    14 h    0.839    15 h    0.810
    14   1 h    0.890 --    13 o    0.839
    15   1 h    0.885 --    13 o    0.810
    16   8 o    1.876 --    18 h    0.851    17 h    0.792
    17   1 h    0.870 --    16 o    0.792
    18   1 h    0.889 --    16 o    0.851
    19   8 o    1.851 --    20 h    0.854    21 h    0.790
    20   1 h    0.894 --    19 o    0.854
    21   1 h    0.873 --    19 o    0.790
    22   8 o    1.870 --    23 h    0.827    24 h    0.805
    23   1 h    0.891 --    22 o    0.827
    24   1 h    0.866 --    22 o    0.805
    25   8 o    1.829 --    26 h    0.848    27 h    0.842
    26   1 h    0.890 --    25 o    0.848
    27   1 h    0.886 --    25 o    0.842
    28   8 o    1.856 --    29 h    0.823    30 h    0.793
    29   1 h    0.882 --    28 o    0.823
    30   1 h    0.874 --    28 o    0.793
    31   8 o    1.860 --    33 h    0.826    32 h    0.810
    32   1 h    0.878 --    31 o    0.810
    33   1 h    0.883 --    31 o    0.826
    34   8 o    1.877 --    35 h    0.854    36 h    0.815
    35   1 h    0.897 --    34 o    0.854
    36   1 h    0.872 --    34 o    0.815
    37   8 o    1.835 --    38 h    0.814    39 h    0.809
    38   1 h    0.879 --    37 o    0.814
    39   1 h    0.883 --    37 o    0.809
    40   8 o    1.875 --    41 h    0.838    42 h    0.824
    41   1 h    0.881 --    40 o    0.838
    42   1 h    0.881 --    40 o    0.824
    43   8 o    1.892 --    44 h    0.825    45 h    0.824
    44   1 h    0.881 --    43 o    0.825
    45   1 h    0.880 --    43 o    0.824
    46   8 o    1.844 --    47 h    0.868    48 h    0.814
    47   1 h    0.891 --    46 o    0.868
    48   1 h    0.885 --    46 o    0.814
    49   8 o    1.827 --    51 h    0.875    50 h    0.847
    50   1 h    0.883 --    49 o    0.847
    51   1 h    0.897 --    49 o    0.875
    52   8 o    1.799 --    53 h    0.843    54 h    0.831
    53   1 h    0.891 --    52 o    0.843
    54   1 h    0.883 --    52 o    0.831
    55   8 o    1.850 --    56 h    0.828    57 h    0.817
    56   1 h    0.891 --    55 o    0.828
    57   1 h    0.876 --    55 o    0.817
    58   8 o    1.879 --    59 h    0.830    60 h    0.828
    59   1 h    0.886 --    58 o    0.830
    60   1 h    0.887 --    58 o    0.828
    61   8 o    1.845 --    62 h    0.854    63 h    0.791
    62   1 h    0.891 --    61 o    0.854
    63   1 h    0.873 --    61 o    0.791
    64   8 o    1.863 --    66 h    0.829    65 h    0.819
    65   1 h    0.875 --    64 o    0.819
    66   1 h    0.882 --    64 o    0.829
    67   8 o    1.862 --    69 h    0.818    68 h    0.806
    68   1 h    0.878 --    67 o    0.806
    69   1 h    0.881 --    67 o    0.818
    70   8 o    1.857 --    72 h    0.837    71 h    0.809
    71   1 h    0.876 --    70 o    0.809
    72   1 h    0.888 --    70 o    0.837
    73   8 o    1.828 --    74 h    0.859    75 h    0.814
    74   1 h    0.890 --    73 o    0.859
    75   1 h    0.872 --    73 o    0.814
    76   8 o    1.858 --    78 h    0.833    77 h    0.813
    77   1 h    0.875 --    76 o    0.813
    78   1 h    0.888 --    76 o    0.833
    79   8 o    1.853 --    80 h    0.843    81 h    0.792
    80   1 h    0.877 --    79 o    0.843
    81   1 h    0.875 --    79 o    0.792
    82   8 o    1.810 --    83 h    0.832    84 h    0.817
    83   1 h    0.887 --    82 o    0.832
    84   1 h    0.880 --    82 o    0.817
    85   8 o    1.884 --    87 h    0.845    86 h    0.817
    86   1 h    0.874 --    85 o    0.817
    87   1 h    0.877 --    85 o    0.845
    88   8 o    1.846 --    90 h    0.824    89 h    0.772
    89   1 h    0.879 --    88 o    0.772   214 o    0.103
    90   1 h    0.880 --    88 o    0.824
    91   8 o    1.838 --    93 h    0.820    92 h    0.783
    92   1 h    0.872 --    91 o    0.783
    93   1 h    0.891 --    91 o    0.820
    94   8 o    1.870 --    96 h    0.835    95 h    0.808
    95   1 h    0.872 --    94 o    0.808
    96   1 h    0.884 --    94 o    0.835
    97   8 o    1.858 --    99 h    0.850    98 h    0.791
    98   1 h    0.868 --    97 o    0.791
    99   1 h    0.893 --    97 o    0.850
   100   8 o    1.890 --   102 h    0.814   101 h    0.788
   101   1 h    0.873 --   100 o    0.788
   102   1 h    0.879 --   100 o    0.814
   103   8 o    1.864 --   105 h    0.839   104 h    0.784
   104   1 h    0.868 --   103 o    0.784
   105   1 h    0.884 --   103 o    0.839
   106   8 o    1.870 --   108 h    0.842   107 h    0.808
   107   1 h    0.886 --   106 o    0.808
   108   1 h    0.881 --   106 o    0.842
   109   8 o    1.802 --   110 h    0.848   111 h    0.809
   110   1 h    0.892 --   109 o    0.848
   111   1 h    0.879 --   109 o    0.809
   112   8 o    1.815 --   113 h    0.857   114 h    0.795
   113   1 h    0.896 --   112 o    0.857
   114   1 h    0.873 --   112 o    0.795
   115   8 o    1.853 --   117 h    0.823   116 h    0.821
   116   1 h    0.884 --   115 o    0.821
   117   1 h    0.884 --   115 o    0.823
   118   8 o    1.862 --   119 h    0.827   120 h    0.818
   119   1 h    0.885 --   118 o    0.827
   120   1 h    0.883 --   118 o    0.818
   121   8 o    1.834 --   122 h    0.813   123 h    0.805
   122   1 h    0.880 --   121 o    0.813
   123   1 h    0.888 --   121 o    0.805
   124   8 o    1.853 --   125 h    0.810   126 h    0.785
   125   1 h    0.881 --   124 o    0.810
   126   1 h    0.873 --   124 o    0.785
   127   8 o    1.823 --   129 h    0.852   128 h    0.795
   128   1 h    0.877 --   127 o    0.795
   129   1 h    0.893 --   127 o    0.852
   130   8 o    1.883 --   132 h    0.846   131 h    0.770
   131   1 h    0.864 --   130 o    0.770
   132   1 h    0.891 --   130 o    0.846
   133   8 o    1.867 --   135 h    0.829   134 h    0.827
   134   1 h    0.879 --   133 o    0.827
   135   1 h    0.885 --   133 o    0.829
   136   8 o    1.853 --   137 h    0.858   138 h    0.820
   137   1 h    0.891 --   136 o    0.858
   138   1 h    0.884 --   136 o    0.820
   139   8 o    1.843 --   141 h    0.839   140 h    0.799
   140   1 h    0.880 --   139 o    0.799
   141   1 h    0.892 --   139 o    0.839
   142   8 o    1.830 --   143 h    0.856   144 h    0.853
   143   1 h    0.895 --   142 o    0.856
   144   1 h    0.889 --   142 o    0.853
   145   8 o    1.830 --   147 h    0.899   146 h    0.784
   146   1 h    0.872 --   145 o    0.784
   147   1 h    0.904 --   145 o    0.899
   148   8 o    1.847 --   150 h    0.832   149 h    0.806
   149   1 h    0.870 --   148 o    0.806
   150   1 h    0.886 --   148 o    0.832
   151   8 o    1.802 --   152 h    0.816   153 h    0.806
   152   1 h    0.881 --   151 o    0.816
   153   1 h    0.886 --   151 o    0.806
   154   8 o    1.782 --   155 h    0.839   156 h    0.837
   155   1 h    0.890 --   154 o    0.839
   156   1 h    0.893 --   154 o    0.837
   157   8 o    1.858 --   159 h    0.830   158 h    0.818
   158   1 h    0.875 --   157 o    0.818
   159   1 h    0.879 --   157 o    0.830
   160   8 o    1.867 --   162 h    0.841   161 h    0.801
   161   1 h    0.872 --   160 o    0.801
   162   1 h    0.894 --   160 o    0.841
   163   8 o    1.874 --   164 h    0.834   165 h    0.822
   164   1 h    0.889 --   163 o    0.834
   165   1 h    0.876 --   163 o    0.822
   166   8 o    1.858 --   168 h    0.824   167 h    0.822
   167   1 h    0.888 --   166 o    0.822
   168   1 h    0.883 --   166 o    0.824
   169   8 o    1.855 --   170 h    0.868   171 h    0.824
   170   1 h    0.896 --   169 o    0.868
   171   1 h    0.886 --   169 o    0.824
   172   8 o    1.870 --   174 h    0.815   173 h    0.787
   173   1 h    0.870 --   172 o    0.787
   174   1 h    0.892 --   172 o    0.815
   175   8 o    1.878 --   176 h    0.826   177 h    0.815
   176   1 h    0.875 --   175 o    0.826
   177   1 h    0.887 --   175 o    0.815
   178   8 o    1.865 --   180 h    0.848   179 h    0.814
   179   1 h    0.884 --   178 o    0.814
   180   1 h    0.892 --   178 o    0.848
   181   8 o    1.852 --   183 h    0.840   182 h    0.796
   182   1 h    0.868 --   181 o    0.796
   183   1 h    0.885 --   181 o    0.840
   184   8 o    1.810 --   185 h    0.888   186 h    0.855
   185   1 h    0.898 --   184 o    0.888
   186   1 h    0.887 --   184 o    0.855
   187   8 o    1.829 --   188 h    0.842   189 h    0.801
   188   1 h    0.888 --   187 o    0.842
   189   1 h    0.881 --   187 o    0.801
   190   8 o    1.855 --   191 h    0.839   192 h    0.816
   191   1 h    0.890 --   190 o    0.839
   192   1 h    0.881 --   190 o    0.816
   193   8 o    1.825 --   195 h    0.852   194 h    0.838
   194   1 h    0.890 --   193 o    0.838
   195   1 h    0.889 --   193 o    0.852
   196   8 o    1.838 --   197 h    0.851   198 h    0.823
   197   1 h    0.894 --   196 o    0.851
   198   1 h    0.876 --   196 o    0.823
   199   8 o    1.814 --   201 h    0.838   200 h    0.836
   200   1 h    0.898 --   199 o    0.836
   201   1 h    0.887 --   199 o    0.838
   202   8 o    1.852 --   203 h    0.822   204 h    0.778
   203   1 h    0.880 --   202 o    0.822
   204   1 h    0.868 --   202 o    0.778
   205   8 o    1.852 --   207 h    0.828   206 h    0.804
   206   1 h    0.873 --   205 o    0.804
   207   1 h    0.885 --   205 o    0.828
   208   8 o    1.837 --   210 h    0.896   209 h    0.782
   209   1 h    0.868 --   208 o    0.782
   210   1 h    0.904 --   208 o    0.896
   211   8 o    1.829 --   212 h    0.821   213 h    0.821
   212   1 h    0.886 --   211 o    0.821
   213   1 h    0.880 --   211 o    0.821
   214   8 o    1.871 --   216 h    0.828   215 h    0.819    89 h    0.103
   215   1 h    0.878 --   214 o    0.819
   216   1 h    0.884 --   214 o    0.828
   217   8 o    1.873 --   219 h    0.839   218 h    0.818
   218   1 h    0.886 --   217 o    0.818
   219   1 h    0.884 --   217 o    0.839
   220   8 o    1.862 --   221 h    0.839   222 h    0.810
   221   1 h    0.886 --   220 o    0.839
   222   1 h    0.875 --   220 o    0.810
   223   8 o    1.857 --   224 h    0.840   225 h    0.809
   224   1 h    0.889 --   223 o    0.840
   225   1 h    0.884 --   223 o    0.809
   226   8 o    1.817 --   227 h    0.895   228 h    0.825
   227   1 h    0.900 --   226 o    0.895
   228   1 h    0.881 --   226 o    0.825
   229   8 o    1.851 --   231 h    0.833   230 h    0.817
   230   1 h    0.881 --   229 o    0.817
   231   1 h    0.891 --   229 o    0.833
   232   8 o    1.821 --   233 h    0.848   234 h    0.811
   233   1 h    0.896 --   232 o    0.848
   234   1 h    0.883 --   232 o    0.811
   235   8 o    1.889 --   237 h    0.813   236 h    0.793
   236   1 h    0.871 --   235 o    0.793
   237   1 h    0.884 --   235 o    0.813
   238   8 o    1.823 --   239 h    0.867   240 h    0.830
   239   1 h    0.889 --   238 o    0.867
   240   1 h    0.883 --   238 o    0.830
   241   8 o    1.841 --   243 h    0.856   242 h    0.850
   242   1 h    0.884 --   241 o    0.850
   243   1 h    0.887 --   241 o    0.856
   244   8 o    1.833 --   245 h    0.858   246 h    0.797
   245   1 h    0.893 --   244 o    0.858
   246   1 h    0.871 --   244 o    0.797
   247   8 o    1.865 --   248 h    0.844   249 h    0.803
   248   1 h    0.895 --   247 o    0.844
   249   1 h    0.872 --   247 o    0.803
   250   8 o    1.837 --   251 h    0.894   252 h    0.860
   251   1 h    0.898 --   250 o    0.894
   252   1 h    0.880 --   250 o    0.860
   253   8 o    1.848 --   255 h    0.799   254 h    0.795
   254   1 h    0.875 --   253 o    0.795
   255   1 h    0.880 --   253 o    0.799
   256   8 o    1.869 --   258 h    0.851   257 h    0.795
   257   1 h    0.877 --   256 o    0.795
   258   1 h    0.892 --   256 o    0.851
   259   8 o    1.807 --   260 h    0.848   261 h    0.823
   260   1 h    0.893 --   259 o    0.848
   261   1 h    0.869 --   259 o    0.823
   262   8 o    1.858 --   263 h    0.785   264 h    0.775
   263   1 h    0.871 --   262 o    0.785
   264   1 h    0.871 --   262 o    0.775
   265   8 o    1.843 --   267 h    0.880   266 h    0.768
   266   1 h    0.865 --   265 o    0.768
   267   1 h    0.901 --   265 o    0.880
   268   8 o    1.831 --   269 h    0.891   270 h    0.802
   269   1 h    0.900 --   268 o    0.891
   270   1 h    0.881 --   268 o    0.802
   271   8 o    1.846 --   272 h    0.820   273 h    0.812
   272   1 h    0.877 --   271 o    0.820
   273   1 h    0.885 --   271 o    0.812
   274   8 o    1.814 --   275 h    0.888   276 h    0.796
   275   1 h    0.907 --   274 o    0.888
   276   1 h    0.870 --   274 o    0.796
   277   8 o    1.886 --   279 h    0.837   278 h    0.791
   278   1 h    0.872 --   277 o    0.791
   279   1 h    0.894 --   277 o    0.837
   280   8 o    1.832 --   282 h    0.828   281 h    0.813
   281   1 h    0.881 --   280 o    0.813
   282   1 h    0.888 --   280 o    0.828
   283   8 o    1.821 --   285 h    0.859   284 h    0.832
   284   1 h    0.893 --   283 o    0.832
   285   1 h    0.891 --   283 o    0.859
   286   8 o    1.820 --   288 h    0.872   287 h    0.826
   287   1 h    0.889 --   286 o    0.826
   288   1 h    0.901 --   286 o    0.872
   289   8 o    1.850 --   290 h    0.829   291 h    0.811
   290   1 h    0.886 --   289 o    0.829
   291   1 h    0.883 --   289 o    0.811
   292   8 o    1.866 --   294 h    0.825   293 h    0.778
   293   1 h    0.868 --   292 o    0.778
   294   1 h    0.889 --   292 o    0.825
   295   8 o    1.853 --   296 h    0.852   297 h    0.797
   296   1 h    0.894 --   295 o    0.852
   297   1 h    0.872 --   295 o    0.797
   298   8 o    1.859 --   299 h    0.828   300 h    0.805
   299   1 h    0.883 --   298 o    0.828
   300   1 h    0.875 --   298 o    0.805
   301   8 o    1.861 --   302 h    0.817   303 h    0.786
   302   1 h    0.890 --   301 o    0.817
   303   1 h    0.869 --   301 o    0.786
   304   8 o    1.842 --   305 h    0.895   306 h    0.804
   305   1 h    0.903 --   304 o    0.895
   306   1 h    0.868 --   304 o    0.804
   307   8 o    1.863 --   309 h    0.813   308 h    0.795
   308   1 h    0.876 --   307 o    0.795
   309   1 h    0.883 --   307 o    0.813
   310   8 o    1.840 --   311 h    0.841   312 h    0.810
   311   1 h    0.896 --   310 o    0.841
   312   1 h    0.879 --   310 o    0.810
   313   8 o    1.840 --   314 h    0.808   315 h    0.798
   314   1 h    0.882 --   313 o    0.808
   315   1 h    0.884 --   313 o    0.798
   316   8 o    1.823 --   317 h    0.870   318 h    0.829
   317   1 h    0.895 --   316 o    0.870
   318   1 h    0.884 --   316 o    0.829
   319   8 o    1.790 --   321 h    0.858   320 h    0.823
   320   1 h    0.888 --   319 o    0.823
   321   1 h    0.893 --   319 o    0.858
   322   8 o    1.880 --   324 h    0.871   323 h    0.799
   323   1 h    0.875 --   322 o    0.799
   324   1 h    0.896 --   322 o    0.871
   325   8 o    1.834 --   327 h    0.861   326 h    0.818
   326   1 h    0.882 --   325 o    0.818
   327   1 h    0.895 --   325 o    0.861
   328   8 o    1.877 --   329 h    0.878   330 h    0.791
   329   1 h    0.898 --   328 o    0.878
   330   1 h    0.864 --   328 o    0.791
   331   8 o    1.851 --   333 h    0.829   332 h    0.811
   332   1 h    0.873 --   331 o    0.811
   333   1 h    0.892 --   331 o    0.829
   334   8 o    1.881 --   336 h    0.860   335 h    0.797
   335   1 h    0.871 --   334 o    0.797
   336   1 h    0.884 --   334 o    0.860
   337   8 o    1.901 --   339 h    0.817   338 h    0.784
   338   1 h    0.877 --   337 o    0.784
   339   1 h    0.876 --   337 o    0.817
   340   8 o    1.819 --   341 h    0.878   342 h    0.842
   341   1 h    0.895 --   340 o    0.878
   342   1 h    0.887 --   340 o    0.842
   343   8 o    1.828 --   344 h    0.858   345 h    0.851
   344   1 h    0.884 --   343 o    0.858
   345   1 h    0.889 --   343 o    0.851
   346   8 o    1.842 --   348 h    0.840   347 h    0.795
   347   1 h    0.873 --   346 o    0.795
   348   1 h    0.893 --   346 o    0.840
   349   8 o    1.872 --   350 h    0.826   351 h    0.818
   350   1 h    0.891 --   349 o    0.826
   351   1 h    0.878 --   349 o    0.818
   352   8 o    1.845 --   354 h    0.843   353 h    0.814
   353   1 h    0.890 --   352 o    0.814
   354   1 h    0.892 --   352 o    0.843
   355   8 o    1.855 --   357 h    0.887   356 h    0.862
   356   1 h    0.889 --   355 o    0.862
   357   1 h    0.899 --   355 o    0.887
   358   8 o    1.838 --   360 h    0.843   359 h    0.840
   359   1 h    0.880 --   358 o    0.840
   360   1 h    0.892 --   358 o    0.843
   361   8 o    1.827 --   363 h    0.896   362 h    0.792
   362   1 h    0.875 --   361 o    0.792
   363   1 h    0.903 --   361 o    0.896
[...]
   369   1 h    0.867 --   367 o    0.771
   370   8 o    1.836 --   372 h    0.868   371 h    0.848
   371   1 h    0.881 --   370 o    0.848
   372   1 h    0.888 --   370 o    0.868
   373   8 o    1.842 --   374 h    0.822   375 h    0.796
   374   1 h    0.893 --   373 o    0.822
   375   1 h    0.872 --   373 o    0.796
   376   8 o    1.842 --   377 h    0.829   378 h    0.810
   377   1 h    0.882 --   376 o    0.829
   378   1 h    0.876 --   376 o    0.810
   379   8 o    1.889 --   380 h    0.820   381 h    0.790
   380   1 h    0.887 --   379 o    0.820
   381   1 h    0.867 --   379 o    0.790
   382   8 o    1.862 --   384 h    0.866   383 h    0.782
   383   1 h    0.868 --   382 o    0.782
   384   1 h    0.885 --   382 o    0.866
   385   8 o    1.839 --   387 h    0.900   386 h    0.789
   386   1 h    0.877 --   385 o    0.789
   387   1 h    0.903 --   385 o    0.900
   388   8 o    1.850 --   390 h    0.802   389 h    0.800
   389   1 h    0.869 --   388 o    0.800
   390   1 h    0.889 --   388 o    0.802
   391   8 o    1.856 --   393 h    0.832   392 h    0.821
   392   1 h    0.868 --   391 o    0.821
   393   1 h    0.889 --   391 o    0.832
   394   8 o    1.870 --   395 h    0.862   396 h    0.791
   395   1 h    0.894 --   394 o    0.862
   396   1 h    0.869 --   394 o    0.791
   397   8 o    1.800 --   399 h    0.866   398 h    0.836
   398   1 h    0.885 --   397 o    0.836
   399   1 h    0.895 --   397 o    0.866
   400   8 o    1.828 --   402 h    0.846   401 h    0.813
   401   1 h    0.883 --   400 o    0.813
   402   1 h    0.884 --   400 o    0.846
   403   8 o    1.835 --   404 h    0.820   405 h    0.814
   404   1 h    0.889 --   403 o    0.820
   405   1 h    0.876 --   403 o    0.814
   406   8 o    1.862 --   407 h    0.837   408 h    0.802
   407   1 h    0.898 --   406 o    0.837
   408   1 h    0.874 --   406 o    0.802
   409   8 o    1.845 --   410 h    0.854   411 h    0.822
   410   1 h    0.883 --   409 o    0.854
   411   1 h    0.872 --   409 o    0.822
   412   8 o    1.875 --   413 h    0.872   414 h    0.781
   413   1 h    0.895 --   412 o    0.872
   414   1 h    0.868 --   412 o    0.781
   415   8 o    1.805 --   416 h    0.873   417 h    0.817
   416   1 h    0.902 --   415 o    0.873
   417   1 h    0.878 --   415 o    0.817
   418   8 o    1.830 --   419 h    0.879   420 h    0.798
   419   1 h    0.901 --   418 o    0.879
   420   1 h    0.867 --   418 o    0.798
   421   8 o    1.884 --   423 h    0.826   422 h    0.818
   422   1 h    0.876 --   421 o    0.818
   423   1 h    0.882 --   421 o    0.826
   424   8 o    1.841 --   425 h    0.861   426 h    0.797
   425   1 h    0.897 --   424 o    0.861
   426   1 h    0.869 --   424 o    0.797
   427   8 o    1.826 --   429 h    0.849   428 h    0.805
   428   1 h    0.883 --   427 o    0.805
   429   1 h    0.891 --   427 o    0.849
   430   8 o    1.833 --   431 h    0.894   432 h    0.755
   431   1 h    0.908 --   430 o    0.894
   432   1 h    0.863 --   430 o    0.755
   433   8 o    1.846 --   434 h    0.904   435 h    0.808
   434   1 h    0.907 --   433 o    0.904
   435   1 h    0.879 --   433 o    0.808
   436   8 o    1.870 --   437 h    0.834   438 h    0.816
   437   1 h    0.895 --   436 o    0.834
   438   1 h    0.868 --   436 o    0.816
   439   8 o    1.820 --   441 h    0.867   440 h    0.821
   440   1 h    0.879 --   439 o    0.821
   441   1 h    0.894 --   439 o    0.867
   442   8 o    1.835 --   443 h    0.836   444 h    0.805
   443   1 h    0.891 --   442 o    0.836
   444   1 h    0.871 --   442 o    0.805
   445   8 o    1.859 --   446 h    0.863   447 h    0.817
   446   1 h    0.897 --   445 o    0.863
   447   1 h    0.889 --   445 o    0.817
   448   8 o    1.815 --   450 h    0.870   449 h    0.859
   449   1 h    0.886 --   448 o    0.859
   450   1 h    0.890 --   448 o    0.870
   451   8 o    1.845 --   452 h    0.860   453 h    0.805
   452   1 h    0.890 --   451 o    0.860
   453   1 h    0.873 --   451 o    0.805
   454   8 o    1.853 --   456 h    0.847   455 h    0.791
   455   1 h    0.866 --   454 o    0.791
   456   1 h    0.886 --   454 o    0.847
   457   8 o    1.840 --   459 h    0.842   458 h    0.799
   458   1 h    0.873 --   457 o    0.799
   459   1 h    0.899 --   457 o    0.842
   460   8 o    1.888 --   461 h    0.834   462 h    0.781
   461   1 h    0.885 --   460 o    0.834
   462   1 h    0.865 --   460 o    0.781
   463   8 o    1.833 --   464 h    0.842   465 h    0.789
   464   1 h    0.891 --   463 o    0.842
   465   1 h    0.885 --   463 o    0.789
   466   8 o    1.794 --   468 h    0.852   467 h    0.831
   467   1 h    0.886 --   466 o    0.831
   468   1 h    0.889 --   466 o    0.852
   469   8 o    1.809 --   471 h    0.860   470 h    0.824
   470   1 h    0.881 --   469 o    0.824
   471   1 h    0.893 --   469 o    0.860
   472   8 o    1.842 --   474 h    0.861   473 h    0.820
   473   1 h    0.884 --   472 o    0.820
   474   1 h    0.890 --   472 o    0.861
   475   8 o    1.865 --   477 h    0.817   476 h    0.794
   476   1 h    0.863 --   475 o    0.794
   477   1 h    0.885 --   475 o    0.817
   478   8 o    1.863 --   479 h    0.830   480 h    0.821
   479   1 h    0.881 --   478 o    0.830
   480   1 h    0.883 --   478 o    0.821
   481   8 o    1.824 --   482 h    0.841   483 h    0.808
   482   1 h    0.890 --   481 o    0.841
   483   1 h    0.876 --   481 o    0.808
   484   8 o    1.839 --   485 h    0.872   486 h    0.805
   485   1 h    0.895 --   484 o    0.872
   486   1 h    0.870 --   484 o    0.805
   487   8 o    1.820 --   489 h    0.830   488 h    0.819
   488   1 h    0.886 --   487 o    0.819
   489   1 h    0.888 --   487 o    0.830
   490   8 o    1.794 --   491 h    0.848   492 h    0.826
   491   1 h    0.895 --   490 o    0.848
   492   1 h    0.885 --   490 o    0.826
   493   8 o    1.794 --   494 h    0.879   495 h    0.821
   494   1 h    0.897 --   493 o    0.879
   495   1 h    0.887 --   493 o    0.821
   496   8 o    1.859 --   497 h    0.865   498 h    0.834
   497   1 h    0.890 --   496 o    0.865
   498   1 h    0.877 --   496 o    0.834
   499   8 o    1.816 --   501 h    0.887   500 h    0.820
   500   1 h    0.878 --   499 o    0.820
   501   1 h    0.897 --   499 o    0.887
   502   8 o    1.841 --   503 h    0.889   504 h    0.813
   503   1 h    0.900 --   502 o    0.889
   504   1 h    0.873 --   502 o    0.813
   505   8 o    1.820 --   507 h    0.858   506 h    0.830
   506   1 h    0.879 --   505 o    0.830
   507   1 h    0.892 --   505 o    0.858
   508   8 o    1.815 --   509 h    0.850   510 h    0.825
   509   1 h    0.884 --   508 o    0.850
   510   1 h    0.879 --   508 o    0.825
   511   8 o    1.815 --   512 h    0.879   513 h    0.802
   512   1 h    0.899 --   511 o    0.879
   513   1 h    0.866 --   511 o    0.802
   514   8 o    1.838 --   516 h    0.865   515 h    0.837
   515   1 h    0.882 --   514 o    0.837
   516   1 h    0.892 --   514 o    0.865
   517   8 o    1.837 --   518 h    0.843   519 h    0.837
   518   1 h    0.886 --   517 o    0.843
   519   1 h    0.887 --   517 o    0.837
   520   8 o    1.843 --   522 h    0.882   521 h    0.792
   521   1 h    0.869 --   520 o    0.792
   522   1 h    0.900 --   520 o    0.882
   523   8 o    1.835 --   524 h    0.863   525 h    0.849
   524   1 h    0.891 --   523 o    0.863
   525   1 h    0.885 --   523 o    0.849
   526   8 o    1.850 --   528 h    0.853   527 h    0.836
   527   1 h    0.890 --   526 o    0.836
   528   1 h    0.893 --   526 o    0.853
   529   8 o    1.849 --   531 h    0.841   530 h    0.772
   530   1 h    0.868 --   529 o    0.772
   531   1 h    0.889 --   529 o    0.841
   532   8 o    1.844 --   533 h    0.824   534 h    0.809
   533   1 h    0.880 --   532 o    0.824
   534   1 h    0.886 --   532 o    0.809
   535   8 o    1.827 --   537 h    0.841   536 h    0.839
   536   1 h    0.884 --   535 o    0.839
   537   1 h    0.890 --   535 o    0.841
   538   8 o    1.822 --   539 h    0.854   540 h    0.835
   539   1 h    0.889 --   538 o    0.854
   540   1 h    0.881 --   538 o    0.835
   541   8 o    1.845 --   542 h    0.865   543 h    0.829
   542   1 h    0.895 --   541 o    0.865
   543   1 h    0.883 --   541 o    0.829
   544   8 o    1.842 --   546 h    0.903   545 h    0.838
   545   1 h    0.885 --   544 o    0.838
   546   1 h    0.907 --   544 o    0.903
   547   8 o    1.878 --   548 h    0.821   549 h    0.818
   548   1 h    0.887 --   547 o    0.821
   549   1 h    0.888 --   547 o    0.818
   550   8 o    1.868 --   551 h    0.842   552 h    0.779
   551   1 h    0.897 --   550 o    0.842
   552   1 h    0.867 --   550 o    0.779
   553   8 o    1.854 --   554 h    0.835   555 h    0.799
   554   1 h    0.891 --   553 o    0.835
   555   1 h    0.869 --   553 o    0.799
   556   8 o    1.875 --   558 h    0.850   557 h    0.833
   557   1 h    0.889 --   556 o    0.833
   558   1 h    0.881 --   556 o    0.850
   559   8 o    1.834 --   561 h    0.830   560 h    0.825
   560   1 h    0.883 --   559 o    0.825
   561   1 h    0.889 --   559 o    0.830
   562   8 o    1.851 --   563 h    0.837   564 h    0.808
   563   1 h    0.894 --   562 o    0.837
   564   1 h    0.876 --   562 o    0.808
   565   8 o    1.871 --   566 h    0.818   567 h    0.816
   566   1 h    0.888 --   565 o    0.818
   567   1 h    0.889 --   565 o    0.816
   568   8 o    1.854 --   569 h    0.863   570 h    0.775
   569   1 h    0.895 --   568 o    0.863
   570   1 h    0.867 --   568 o    0.775
   571   8 o    1.862 --   572 h    0.888   573 h    0.808
   572   1 h    0.903 --   571 o    0.888
   573   1 h    0.868 --   571 o    0.808
   574   8 o    1.842 --   575 h    0.885   576 h    0.773
   575   1 h    0.902 --   574 o    0.885
   576   1 h    0.864 --   574 o    0.773
   577   8 o    1.812 --   578 h    0.836   579 h    0.821
   578   1 h    0.888 --   577 o    0.836
   579   1 h    0.878 --   577 o    0.821
   580   8 o    1.821 --   581 h    0.830   582 h    0.828
   581   1 h    0.882 --   580 o    0.830
   582   1 h    0.894 --   580 o    0.828
   583   8 o    1.835 --   584 h    0.871   585 h    0.833
   584   1 h    0.888 --   583 o    0.871
   585   1 h    0.878 --   583 o    0.833
   586   8 o    1.825 --   587 h    0.875   588 h    0.826
   587   1 h    0.892 --   586 o    0.875
   588   1 h    0.881 --   586 o    0.826
   589   8 o    1.821 --   590 h    0.858   591 h    0.800
   590   1 h    0.897 --   589 o    0.858
   591   1 h    0.870 --   589 o    0.800
   592   8 o    1.811 --   593 h    0.858   594 h    0.832
   593   1 h    0.893 --   592 o    0.858
   594   1 h    0.884 --   592 o    0.832
   595   8 o    1.842 --   596 h    0.871   597 h    0.861
   596   1 h    0.893 --   595 o    0.871
   597   1 h    0.891 --   595 o    0.861
   598   8 o    1.879 --   600 h    0.876   599 h    0.767
   599   1 h    0.864 --   598 o    0.767
   600   1 h    0.897 --   598 o    0.876
   601   8 o    1.822 --   603 h    0.858   602 h    0.846
   602   1 h    0.889 --   601 o    0.846
   603   1 h    0.898 --   601 o    0.858
   604   8 o    1.833 --   606 h    0.876   605 h    0.834
   605   1 h    0.888 --   604 o    0.834
   606   1 h    0.889 --   604 o    0.876
   607   8 o    1.825 --   609 h    0.861   608 h    0.833
   608   1 h    0.881 --   607 o    0.833
   609   1 h    0.888 --   607 o    0.861
   610   8 o    1.814 --   611 h    0.805   612 h    0.805
   611   1 h    0.882 --   610 o    0.805
   612   1 h    0.881 --   610 o    0.805
   613   8 o    1.830 --   615 h    0.850   614 h    0.843
   614   1 h    0.888 --   613 o    0.843
   615   1 h    0.886 --   613 o    0.850
   616   8 o    1.837 --   618 h    0.886   617 h    0.776
   617   1 h    0.869 --   616 o    0.776
   618   1 h    0.900 --   616 o    0.886
   619   8 o    1.875 --   621 h    0.860   620 h    0.812
   620   1 h    0.886 --   619 o    0.812
   621   1 h    0.892 --   619 o    0.860
   622   8 o    1.805 --   624 h    0.861   623 h    0.849
   623   1 h    0.889 --   622 o    0.849
   624   1 h    0.895 --   622 o    0.861
   625   8 o    1.829 --   627 h    0.841   626 h    0.827
   626   1 h    0.882 --   625 o    0.827
   627   1 h    0.888 --   625 o    0.841
   628   8 o    1.832 --   630 h    0.834   629 h    0.830
   629   1 h    0.883 --   628 o    0.830
   630   1 h    0.882 --   628 o    0.834
   631   8 o    1.827 --   633 h    0.870   632 h    0.835
   632   1 h    0.882 --   631 o    0.835
   633   1 h    0.889 --   631 o    0.870
   634   8 o    1.856 --   635 h    0.825   636 h    0.821
   635   1 h    0.891 --   634 o    0.825
   636   1 h    0.886 --   634 o    0.821
   637   8 o    1.843 --   638 h    0.832   639 h    0.809
   638   1 h    0.893 --   637 o    0.832
   639   1 h    0.876 --   637 o    0.809
   640   8 o    1.860 --   641 h    0.823   642 h    0.802
   641   1 h    0.880 --   640 o    0.823
   642   1 h    0.879 --   640 o    0.802
   643   8 o    1.862 --   644 h    0.894   645 h    0.785
   644   1 h    0.903 --   643 o    0.894
   645   1 h    0.865 --   643 o    0.785
   646   8 o    1.834 --   648 h    0.903   647 h    0.822
   647   1 h    0.880 --   646 o    0.822
   648   1 h    0.907 --   646 o    0.903
   649   8 o    1.830 --   651 h    0.865   650 h    0.805
   650   1 h    0.875 --   649 o    0.805
   651   1 h    0.894 --   649 o    0.865
   652   8 o    1.806 --   654 h    0.869   653 h    0.819
   653   1 h    0.878 --   652 o    0.819
   654   1 h    0.894 --   652 o    0.869
   655   8 o    1.854 --   656 h    0.844   657 h    0.829
   656   1 h    0.887 --   655 o    0.844
   657   1 h    0.883 --   655 o    0.829
   658   8 o    1.851 --   660 h    0.901   659 h    0.791
   659   1 h    0.877 --   658 o    0.791
   660   1 h    0.905 --   658 o    0.901
   661   8 o    1.886 --   663 h    0.859   662 h    0.804
   662   1 h    0.870 --   661 o    0.804
   663   1 h    0.884 --   661 o    0.859
   664   8 o    1.813 --   665 h    0.851   666 h    0.842
   665   1 h    0.894 --   664 o    0.851
   666   1 h    0.885 --   664 o    0.842
   667   8 o    1.831 --   668 h    0.898   669 h    0.789
   668   1 h    0.905 --   667 o    0.898
   669   1 h    0.879 --   667 o    0.789
   670   8 o    1.878 --   672 h    0.863   671 h    0.824
   671   1 h    0.869 --   670 o    0.824
   672   1 h    0.897 --   670 o    0.863
   673   8 o    1.818 --   675 h    0.868   674 h    0.809
   674   1 h    0.878 --   673 o    0.809
   675   1 h    0.905 --   673 o    0.868
   676   8 o    1.803 --   678 h    0.863   677 h    0.832
   677   1 h    0.889 --   676 o    0.832
   678   1 h    0.896 --   676 o    0.863
   679   8 o    1.808 --   681 h    0.830   680 h    0.803
   680   1 h    0.874 --   679 o    0.803
   681   1 h    0.891 --   679 o    0.830
   682   8 o    1.873 --   683 h    0.840   684 h    0.818
   683   1 h    0.887 --   682 o    0.840
   684   1 h    0.882 --   682 o    0.818
   685   8 o    1.826 --   686 h    0.848   687 h    0.841
   686   1 h    0.884 --   685 o    0.848
   687   1 h    0.891 --   685 o    0.841
   688   8 o    1.809 --   689 h    0.821   690 h    0.801
   689   1 h    0.887 --   688 o    0.821
   690   1 h    0.889 --   688 o    0.801
   691   8 o    1.814 --   693 h    0.823   692 h    0.822
   692   1 h    0.894 --   691 o    0.822
   693   1 h    0.885 --   691 o    0.823
   694   8 o    1.801 --   696 h    0.854   695 h    0.836
   695   1 h    0.891 --   694 o    0.836
   696   1 h    0.892 --   694 o    0.854
   697   8 o    1.823 --   699 h    0.866   698 h    0.794
   698   1 h    0.871 --   697 o    0.794
   699   1 h    0.898 --   697 o    0.866
   700   8 o    1.830 --   702 h    0.851   701 h    0.800
   701   1 h    0.873 --   700 o    0.800
   702   1 h    0.888 --   700 o    0.851
   703   8 o    1.880 --   704 h    0.839   705 h    0.799
   704   1 h    0.889 --   703 o    0.839
   705   1 h    0.868 --   703 o    0.799
   706   8 o    1.851 --   707 h    0.848   708 h    0.809
   707   1 h    0.890 --   706 o    0.848
   708   1 h    0.870 --   706 o    0.809
   709   8 o    1.857 --   711 h    0.888   710 h    0.850
   710   1 h    0.883 --   709 o    0.850
   711   1 h    0.898 --   709 o    0.888
   712   8 o    1.848 --   714 h    0.869   713 h    0.790
   713   1 h    0.864 --   712 o    0.790
   714   1 h    0.897 --   712 o    0.869
   715   8 o    1.837 --   717 h    0.875   716 h    0.842
   716   1 h    0.882 --   715 o    0.842
   717   1 h    0.894 --   715 o    0.875
   718   8 o    1.814 --   719 h    0.897   720 h    0.830
   719   1 h    0.906 --   718 o    0.897
   720   1 h    0.872 --   718 o    0.830
   721   8 o    1.819 --   723 h    0.842   722 h    0.837
   722   1 h    0.888 --   721 o    0.837
   723   1 h    0.883 --   721 o    0.842
   724   8 o    1.827 --   726 h    0.836   725 h    0.803
   725   1 h    0.875 --   724 o    0.803
   726   1 h    0.901 --   724 o    0.836
   727   8 o    1.877 --   728 h    0.850   729 h    0.819
   728   1 h    0.887 --   727 o    0.850
   729   1 h    0.865 --   727 o    0.819
   730   8 o    1.865 --   732 h    0.898   731 h    0.809
   731   1 h    0.876 --   730 o    0.809
   732   1 h    0.901 --   730 o    0.898
   733   8 o    1.856 --   734 h    0.899   735 h    0.816
   734   1 h    0.904 --   733 o    0.899
   735   1 h    0.879 --   733 o    0.816
   736   8 o    1.812 --   737 h    0.856   738 h    0.821
   737   1 h    0.892 --   736 o    0.856
   738   1 h    0.886 --   736 o    0.821
   739   8 o    1.834 --   741 h    0.881   740 h    0.860
   740   1 h    0.891 --   739 o    0.860
   741   1 h    0.898 --   739 o    0.881
   742   8 o    1.844 --   743 h    0.852   744 h    0.845
   743   1 h    0.888 --   742 o    0.852
   744   1 h    0.891 --   742 o    0.845
   745   8 o    1.894 --   746 h    0.836   747 h    0.763
   746   1 h    0.883 --   745 o    0.836
   747   1 h    0.864 --   745 o    0.763
   748   8 o    1.868 --   749 h    0.814   750 h    0.804
   749   1 h    0.883 --   748 o    0.814
   750   1 h    0.870 --   748 o    0.804
   751   8 o    1.785 --   753 h    0.836   752 h    0.802
   752   1 h    0.885 --   751 o    0.802
   753   1 h    0.894 --   751 o    0.836
   754   8 o    1.845 --   756 h    0.849   755 h    0.845
   755   1 h    0.887 --   754 o    0.845
   756   1 h    0.888 --   754 o    0.849
 ---------------------------------------------------------------------------

Topologies differ in total number of bonds
Writing topology from bond orders to xtbtopo.mol

molecular dipole:
                 x           y           z       tot (Debye)
 q only:       10.166      -1.764       0.884
   full:       12.185      -2.390       0.484      31.586
molecular quadrupole (traceless):
                xx          xy          yy          xz          yz          zz
 q only:       42.165      42.070     -50.853     126.196     -59.531       8.687
  q+dip:       50.964      73.910     -69.746     167.679     -82.605      18.782
   full:       52.358      74.969     -70.754     167.189     -84.182      18.395


           -------------------------------------------------
          | TOTAL ENERGY            -1283.540386136726 Eh   |
          | GRADIENT NORM               0.127234712110 Eh/α |
          | HOMO-LUMO GAP               7.090996045280 eV   |
           -------------------------------------------------

------------------------------------------------------------------------
 * finished run on 2022/11/24 at 12:21:37.918     
------------------------------------------------------------------------
 total:
 * wall-time:     0 d,  0 h,  0 min, 21.231 sec
 *  cpu-time:     0 d,  0 h,  0 min, 33.922 sec
 * ratio c/w:     1.598 speedup
 SCF:
 * wall-time:     0 d,  0 h,  0 min, 20.219 sec
 *  cpu-time:     0 d,  0 h,  0 min, 32.218 sec
 * ratio c/w:     1.593 speedup

