      -----------------------------------------------------------      
     |                   =====================                   |     
     |                           x T B                           |     
     |                   =====================                   |     
     |                         S. Grimme                         |     
     |          Mulliken Center for Theoretical Chemistry        |     
     |                    University of Bonn                     |     
      -----------------------------------------------------------      

   * xtb version 6.5.1 (579679a) compiled by 'ehlert@majestix' on 2022-07-11

   xtb is free software: you can redistribute it and/or modify it under
   the terms of the GNU Lesser General Public License as published by
   the Free Software Foundation, either version 3 of the License, or
   (at your option) any later version.
   
   xtb is distributed in the hope that it will be useful,
   but WITHOUT ANY WARRANTY; without even the implied warranty of
   MERCHANTABILITY or FITNESS FOR A PARTICULAR PURPOSE.  See the
   GNU Lesser General Public License for more details.
   
   Cite this work as:
   * C. Bannwarth, E. Caldeweyher, S. Ehlert, A. Hansen, P. Pracht,
     J. Seibert, S. Spicher, S. Grimme, WIREs Comput. Mol. Sci., 2020, 11,
     e01493. DOI: 10.1002/wcms.1493
   
   for GFN2-xTB:
   * C. Bannwarth, S. Ehlert and S. Grimme., J. Chem. Theory Comput., 2019,
     15, 1652-1671. DOI: 10.1021/acs.jctc.8b01176
   for GFN1-xTB:
   * S. Grimme, C. Bannwarth, P. Shushkov, J. Chem. Theory Comput., 2017,
     13, 1989-2009. DOI: 10.1021/acs.jctc.7b00118
   for GFN0-xTB:
   * P. Pracht, E. Caldeweyher, S. Ehlert, S. Grimme, ChemRxiv, 2019, preprint.
     DOI: 10.26434/chemrxiv.8326202.v1
   for GFN-FF:
   * S. Spicher and S. Grimme, Angew. Chem. Int. Ed., 2020, 59, 15665-15673.
     DOI: 10.1002/anie.202004239
   
   for ALPB and GBSA implicit solvation:
   * S. Ehlert, M. Stahn, S. Spicher, S. Grimme, J. Chem. Theory Comput.,
     2021, 17, 4250-4261. DOI: 10.1021/acs.jctc.1c00471
   
   for DFT-D4:
   * E. Caldeweyher, C. Bannwarth and S. Grimme, J. Chem. Phys., 2017,
     147, 034112. DOI: 10.1063/1.4993215
   * E. Caldeweyher, S. Ehlert, A. Hansen, H. Neugebauer, S. Spicher,
     C. Bannwarth and S. Grimme, J. Chem. Phys., 2019, 150, 154122.
     DOI: 10.1063/1.5090222
   * E. Caldeweyher, J.-M. Mewes, S. Ehlert and S. Grimme, Phys. Chem. Chem. Phys.
     2020, 22, 8499-8512. DOI: 10.1039/D0CP00502A
   
   for sTDA-xTB:
   * S. Grimme and C. Bannwarth, J. Chem. Phys., 2016, 145, 054103.
     DOI: 10.1063/1.4959605
   
   in the mass-spec context:
   * V. Asgeirsson, C. Bauer and S. Grimme, Chem. Sci., 2017, 8, 4879.
     DOI: 10.1039/c7sc00601b
   * J. Koopman and S. Grimme, ACS Omega 2019, 4, 12, 15120-15133.
     DOI: 10.1021/acsomega.9b02011
   
   for metadynamics refer to:
   * S. Grimme, J. Chem. Theory Comput., 2019, 155, 2847-2862
     DOI: 10.1021/acs.jctc.9b00143
   
   for SPH calculations refer to:
   * S. Spicher and S. Grimme, J. Chem. Theory Comput., 2021, 17, 1701-1714
     DOI: 10.1021/acs.jctc.0c01306
   
   with help from (in alphabetical order)
   P. Atkinson, C. Bannwarth, F. Bohle, G. Brandenburg, E. Caldeweyher
   M. Checinski, S. Dohm, S. Ehlert, S. Ehrlich, I. Gerasimov, C. Hölzer
   A. Katbashev, J. Koopman, C. Lavigne, S. Lehtola, F. März, M. Müller,
   F. Musil, H. Neugebauer, J. Pisarek, C. Plett, P. Pracht, F. Pultar,
   J. Seibert, P. Shushkov, S. Spicher, M. Stahn, M. Steiner, T. Strunk,
   J. Stückrath, T. Rose, and J. Unsleber
   
 * started run on 2022/11/24 at 12:21:40.834     

           -------------------------------------------------
          |                Calculation Setup                |
           -------------------------------------------------

          program call               : xtb solvent_cluster.coord --gfn2 --sp --lmo --chrg 0
          hostname                   : cn0430
          coordinate file            : solvent_cluster.coord
          omp threads                :                     2

   ID    Z sym.   atoms
    1    8 o      1, 4, 7, 10, 13, 16, 19, 22, 25, 28, 31, 34, 37, 40, 43,
                  46, 49, 52, 55, 58, 61, 64, 67, 70, 73, 76, 79, 82, 85, 88,
                  91, 94, 97, 100, 103, 106, 109, 112, 115, 118, 121, 124,
                  127, 130, 133, 136, 139, 142, 145, 148, 151, 154, 157, 160,
                  163, 166, 169, 172, 175, 178, 181, 184, 187, 190, 193, 196,
                  199, 202, 205, 208, 211, 214, 217, 220, 223, 226, 229, 232,
                  235, 238, 241, 244, 247, 250, 253, 256, 259, 262, 265, 268,
                  271, 274, 277, 280, 283, 286, 289, 292, 295, 298, 301, 304,
                  307, 310, 313, 316, 319, 322, 325, 328, 331, 334, 337, 340,
                  343, 346, 349, 352, 355, 358, 361, 364, 367, 370, 373, 376,
                  379, 382, 385, 388, 391, 394, 397, 400, 403, 406, 409, 412,
                  415, 418, 421, 424, 427, 430, 433, 436, 439, 442, 445, 448,
                  451, 454, 457, 460, 463, 466, 469, 472, 475, 478, 481, 484,
                  487, 490, 493, 496, 499, 502, 505, 508, 511, 514, 517, 520,
                  523, 526, 529, 532, 535, 538, 541, 544, 547, 550, 553, 556,
                  559, 562, 565, 568, 571, 574, 577, 580, 583, 586, 589, 592,
                  595, 598, 601, 604, 607, 610, 613, 616, 619, 622, 625, 628,
                  631, 634, 637, 640, 643, 646, 649, 652, 655, 658, 661, 664,
                  667, 670, 673, 676, 679, 682, 685, 688, 691, 694, 697, 700,
                  703, 706, 709, 712, 715, 718, 721, 724, 727, 730, 733, 736,
                  739, 742, 745, 748, 751, 754
    2    1 h      2, 3, 5, 6, 8, 9, 11, 12, 14, 15, 17, 18, 20, 21, 23, 24,
                  26, 27, 29, 30, 32, 33, 35, 36, 38, 39, 41, 42, 44, 45, 47,
                  48, 50, 51, 53, 54, 56, 57, 59, 60, 62, 63, 65, 66, 68, 69,
                  71, 72, 74, 75, 77, 78, 80, 81, 83, 84, 86, 87, 89, 90, 92,
                  93, 95, 96, 98, 99, 101, 102, 104, 105, 107, 108, 110, 111,
                  113, 114, 116, 117, 119, 120, 122, 123, 125, 126, 128, 129,
                  131, 132, 134, 135, 137, 138, 140, 141, 143, 144, 146, 147,
                  149, 150, 152, 153, 155, 156, 158, 159, 161, 162, 164, 165,
                  167, 168, 170, 171, 173, 174, 176, 177, 179, 180, 182, 183,
                  185, 186, 188, 189, 191, 192, 194, 195, 197, 198, 200, 201,
                  203, 204, 206, 207, 209, 210, 212, 213, 215, 216, 218, 219,
                  221, 222, 224, 225, 227, 228, 230, 231, 233, 234, 236, 237,
                  239, 240, 242, 243, 245, 246, 248, 249, 251, 252, 254, 255,
                  257, 258, 260, 261, 263, 264, 266, 267, 269, 270, 272, 273,
                  275, 276, 278, 279, 281, 282, 284, 285, 287, 288, 290, 291,
                  293, 294, 296, 297, 299, 300, 302, 303, 305, 306, 308, 309,
                  311, 312, 314, 315, 317, 318, 320, 321, 323, 324, 326, 327,
                  329, 330, 332, 333, 335, 336, 338, 339, 341, 342, 344, 345,
                  347, 348, 350, 351, 353, 354, 356, 357, 359, 360, 362, 363,
                  365, 366, 368, 369, 371, 372, 374, 375, 377, 378, 380, 381,
                  383, 384, 386, 387, 389, 390, 392, 393, 395, 396, 398, 399,
                  401, 402, 404, 405, 407, 408, 410, 411, 413, 414, 416, 417,
                  419, 420, 422, 423, 425, 426, 428, 429, 431, 432, 434, 435,
                  437, 438, 440, 441, 443, 444, 446, 447, 449, 450, 452, 453,
                  455, 456, 458, 459, 461, 462, 464, 465, 467, 468, 470, 471,
                  473, 474, 476, 477, 479, 480, 482, 483, 485, 486, 488, 489,
                  491, 492, 494, 495, 497, 498, 500, 501, 503, 504, 506, 507,
                  509, 510, 512, 513, 515, 516, 518, 519, 521, 522, 524, 525,
                  527, 528, 530, 531, 533, 534, 536, 537, 539, 540, 542, 543,
                  545, 546, 548, 549, 551, 552, 554, 555, 557, 558, 560, 561,
                  563, 564, 566, 567, 569, 570, 572, 573, 575, 576, 578, 579,
                  581, 582, 584, 585, 587, 588, 590, 591, 593, 594, 596, 597,
                  599, 600, 602, 603, 605, 606, 608, 609, 611, 612, 614, 615,
                  617, 618, 620, 621, 623, 624, 626, 627, 629, 630, 632, 633,
                  635, 636, 638, 639, 641, 642, 644, 645, 647, 648, 650, 651,
                  653, 654, 656, 657, 659, 660, 662, 663, 665, 666, 668, 669,
                  671, 672, 674, 675, 677, 678, 680, 681, 683, 684, 686, 687,
                  689, 690, 692, 693, 695, 696, 698, 699, 701, 702, 704, 705,
                  707, 708, 710, 711, 713, 714, 716, 717, 719, 720, 722, 723,
                  725, 726, 728, 729, 731, 732, 734, 735, 737, 738, 740, 741,
                  743, 744, 746, 747, 749, 750, 752, 753, 755, 756

molecular fragmentation (1/2 indicates fragments):
111222222222222222222222222222222222222222222222222222222222222222222222
222222222222222222222222222222222222222222222222222222222222222222222222
222222222222222222222222222222222222222222222222222222222222222222222222
222222222222222222222222222222222222222222222222222222222222222222222222
222222222222222222222222222222222222222222222222222222222222222222222222
222222222222222222222222222222222222222222222222222222222222222222222222
222222222222222222222222222222222222222222222222222222222222222222222222
222222222222222222222222222222222222222222222222222222222222222222222222
222222222222222222222222222222222222222222222222222222222222222222222222
222222222222222222222222222222222222222222222222222222222222222222222222
222222222222222222222222222222222222
# atoms in fragment 1/2:     3   753
 fragment masses (1/2) :       18.02     4521.84
CMA distance (Bohr)    :  18.739
constraining FC (au)   :  0.0500

           -------------------------------------------------
          |                 G F N 2 - x T B                 |
           -------------------------------------------------

        Reference                      10.1021/acs.jctc.8b01176
      * Hamiltonian:
        H0-scaling (s, p, d)           1.850000    2.230000    2.230000
        zeta-weighting                 0.500000
      * Dispersion:
        s8                             2.700000
        a1                             0.520000
        a2                             5.000000
        s9                             5.000000
      * Repulsion:
        kExp                           1.500000    1.000000
        rExp                           1.000000
      * Coulomb:
        alpha                          2.000000
        third order                    shell-resolved
        anisotropic                    true
        a3                             3.000000
        a5                             4.000000
        cn-shift                       1.200000
        cn-exp                         4.000000
        max-rad                        5.000000


          ...................................................
          :                      SETUP                      :
          :.................................................:
          :  # basis functions                1512          :
          :  # atomic orbitals                1512          :
          :  # shells                         1008          :
          :  # electrons                      2016          :
          :  max. iterations                   250          :
          :  Hamiltonian                  GFN2-xTB          :
          :  restarted?                      false          :
          :  GBSA solvation                  false          :
          :  PC potential                    false          :
          :  electronic temp.          300.0000000     K    :
          :  accuracy                    1.0000000          :
          :  -> integral cutoff          0.2500000E+02      :
          :  -> integral neglect         0.1000000E-07      :
          :  -> SCF convergence          0.1000000E-05 Eh   :
          :  -> wf. convergence          0.1000000E-03 e    :
          :  Broyden damping             0.4000000          :
          ...................................................

 iter      E             dE          RMSdq      gap      omega  full diag
   1  -1290.9944184 -0.129099E+04  0.407E+00    8.42       0.0  T
   2  -1291.0718643 -0.774459E-01  0.242E+00    7.21       1.0  T
   3  -1291.1038165 -0.319522E-01  0.211E-01    5.46       1.0  T
   4  -1291.1091884 -0.537185E-02  0.459E-02    5.90       1.0  T
   5  -1291.1092751 -0.866805E-04  0.310E-02    5.84       1.0  T
   6  -1291.1093159 -0.408075E-04  0.416E-03    5.88       1.0  T
   7  -1291.1093182 -0.228483E-05  0.736E-04    5.87       4.9  T
   8  -1291.1093182 -0.278003E-07  0.378E-04    5.87       9.6  T
   9  -1291.1093182 -0.136185E-07  0.621E-05    5.87      58.6  T

   *** convergence criteria satisfied after 9 iterations ***

         #    Occupation            Energy/Eh            Energy/eV
      -------------------------------------------------------------
         1        2.0000           -0.7016904             -19.0940
       ...           ...                  ...                  ...
      1002        2.0000           -0.3521924              -9.5836
      1003        2.0000           -0.3511307              -9.5548
      1004        2.0000           -0.3438651              -9.3570
      1005        2.0000           -0.3430462              -9.3348
      1006        2.0000           -0.3363791              -9.1533
      1007        2.0000           -0.3343844              -9.0991
      1008        2.0000           -0.3148824              -8.5684 (HOMO)
      1009                         -0.0991089              -2.6969 (LUMO)
      1010                         -0.0716515              -1.9497
      1011                         -0.0684227              -1.8619
      1012                         -0.0675861              -1.8391
      1013                         -0.0598109              -1.6275
       ...                                ...                  ...
      1512                          0.4810402              13.0898
      -------------------------------------------------------------
                  HL-Gap            0.2157735 Eh            5.8715 eV
             Fermi-level           -0.2069957 Eh           -5.6326 eV
 
 localization/xTB-IFF output generation
 averaging CT terms over            1  occ. levels
 averaging CT terms over            1  virt. levels
 dipole moment from electron density (au)
     X       Y       Z   
  11.2516  -2.2054   0.3484  total (Debye):   29.157
cpu  time for init local    0.79 s
wall time for init local    0.40 s
 doing rotations ...
 initialization of trafo matrix to unity

 converged in     16 iterations, threshold :   0.99998753D-06
 doing transformations ...
 lmo centers(Z=2) and atoms on file <lmocent.coord>
 LMO Fii/eV  ncent    charge center   contributions...
    1 LP   *******   0.00 -12.82333 -75.45222  21.07054  283O : 24.17  610O : 23.81  124O : 19.82  202O : 19.44   31O : 18.53   40O : 17.67  646O : 16.54  415O : 15.89  598O : 15.63  700O : 15.55  292O : 15.44  301O : 14.96
  343O : 14.64  640O : 14.30  106O : 14.16  160O : 13.94  313O : 12.36  463O : 11.91  583O : 11.67   52O : 11.38  220O : 11.28   13O : 10.73  151O : 10.70   19O : 10.55
  187O : 10.09   73O :  9.91  289O :  9.91    7O :  9.78  148O :  9.76  574O :  9.72  460O :  9.65  370O :  9.54  508O :  9.50  376O :  9.35  331O :  9.34  511O :  9.30
   91O :  9.27  631O :  9.04  349O :  8.91  433O :  8.87   10O :  8.82  751O :  8.69  103O :  8.60  214O :  8.48  337O :  8.37  397O :  8.35  424O :  8.08  217O :  8.07
  280O :  8.01  619O :  7.98  112O :  7.90  241O :  7.83   16O :  7.56  322O :  7.55  130O :  7.47  586O :  7.43  181O :  7.36  748O :  7.35  520O :  7.34  451O :  7.27
  613O :  7.18   22O :  7.09  223O :  6.97  352O :  6.95  244O :  6.94  562O :  6.90  436O :  6.85  703O :  6.79   82O :  6.77  430O :  6.61    4O :  6.52  163O :  6.51
  490O :  6.51  502O :  6.48  316O :  6.34  685O :  6.31  274O :  6.27  205O :  6.26   85O :  6.22  664O :  6.12  400O :  6.10  484O :  6.10   25O :  6.01  544O :  5.93
   43O :  5.71   79O :  5.70  364O :  5.69  580O :  5.69  346O :  5.65  622O :  5.32  730O :  5.24  379O :  5.24   46O :  5.17  118O :  5.09  325O :  5.02  709O :  4.99
  271O :  4.95  100O :  4.93  718O :  4.86  166O :  4.83  538O :  4.83   37O :  4.80  454O :  4.73  256O :  4.66  259O :  4.61  253O :  4.58  457O :  4.55  157O :  4.51
  310O :  4.43  418O :  4.42  448O :  4.42  472O :  4.36  394O :  4.29  145O :  4.23  754O :  4.22  142O :  4.20  238O :  4.16  724O :  4.12  559O :  4.05  190O :  3.98
  655O :  3.97  478O :  3.97  139O :  3.94  532O :  3.91  328O :  3.83  235O :  3.82  565O :  3.81  421O :  3.78  127O :  3.77    1O :  3.72  652O :  3.71  121O :  3.61
  109O :  3.58  445O :  3.58   76O :  3.54  367O :  3.54   58O :  3.46  727O :  3.44   88O :  3.40  682O :  3.39  391O :  3.37  487O :  3.35  334O :  3.32  442O :  3.29
  496O :  3.29  745O :  3.28  643O :  3.26  250O :  3.25  553O :  3.24  604O :  3.18  514O :  3.18  403O :  3.17  475O :  3.14  649O :  3.08   49O :  3.08  208O :  3.05
  556O :  3.05  409O :  3.01  304O :  2.99  541O :  2.96  673O :  2.95  175O :  2.91  634O :  2.91  268O :  2.90   94O :  2.86   34O :  2.84  697O :  2.82  319O :  2.81
   55O :  2.80  691O :  2.80  733O :  2.72  229O :  2.71   28O :  2.68  499O :  2.61  178O :  2.60  493O :  2.59  721O :  2.55  466O :  2.48  351H :  2.37  247O :  2.35
  265O :  2.32  355O :  2.28   14H :  2.21  361O :  2.21  184O :  2.19  315H :  2.15  406O :  2.11  193O :  2.11  589O :  2.07  133O :  2.05  388O :  2.05  373O :  2.05
  294H :  2.02  385O :  2.02  216H :  2.02  592O :  1.99  712O :  1.99  715O :  1.99  125H :  1.98  339H :  1.94  607O :  1.91  577O :  1.89  688O :  1.89  188H :  1.89
  595O :  1.89  307O :  1.86  571O :  1.84  694O :  1.83  154O :  1.82   70O :  1.79  169O :  1.77  742O :  1.77  136O :  1.74  658O :  1.65  706O :  1.64  505O :  1.64
  427O :  1.61  358O :  1.57  736O :  1.57  676O :  1.56  377H :  1.50  211O :  1.49   61O :  1.46  464H :  1.42  295O :  1.39  115O :  1.38  245H :  1.38  461H :  1.32
  286O :  1.32  298O :  1.32  628O :  1.30  162H :  1.30  285H :  1.30  526O :  1.29  679O :  1.24  616O :  1.23  568O :  1.22  535O :  1.22   18H :  1.19  290H :  1.18
   64O :  1.16  277O :  1.16  625O :  1.14  459H :  1.14  199O :  1.13  481O :  1.11  523O :  1.11  545H :  1.10   24H :  1.07  318H :  1.06  172O :  1.06  111H :  1.04
  642H :  1.04  239H :  1.02  540H :  1.01  242H :  1.00   67O :  1.00  232O :  0.99  110H :  0.98  281H :  0.96  101H :  0.94   75H :  0.93   47H :  0.90  360H :  0.89
   78H :  0.88  201H :  0.88  249H :  0.87  620H :  0.86  382O :  0.85  262O :  0.85   97O :  0.84  483H :  0.83  234H :  0.81  513H :  0.80  447H :  0.80  575H :  0.79
  637O :  0.79  254H :  0.79  585H :  0.78  636H :  0.78   44H :  0.77  578H :  0.77  416H :  0.75  196O :  0.75  469O :  0.73  654H :  0.72  657H :  0.72   15H :  0.70
  477H :  0.70  324H :  0.70   74H :  0.69  221H :  0.69  153H :  0.68  576H :  0.67  218H :  0.67  348H :  0.67  739O :  0.67  661O :  0.67  667O :  0.67  746H :  0.66
  543H :  0.65  752H :  0.65   71H :  0.65  498H :  0.64   26H :  0.63  670O :  0.63  650H :  0.62  422H :  0.61   48H :  0.60  405H :  0.60  753H :  0.59  581H :  0.58
  566H :  0.58  152H :  0.57  353H :  0.56  113H :  0.56  534H :  0.54  601O :  0.54  126H :  0.53  395H :  0.53  550O :  0.53  407H :  0.53  137H :  0.53  182H :  0.53
  635H :  0.52  449H :  0.52  296H :  0.52  320H :  0.52  710H :  0.51   50H :  0.51  450H :  0.49  453H :  0.49  443H :  0.48  204H :  0.48  198H :  0.47  150H :  0.47
  606H :  0.47  567H :  0.46  713H :  0.46  102H :  0.46  203H :  0.46  252H :  0.46  439O :  0.45  465H :  0.44  255H :  0.44  128H :  0.44   27H :  0.43  527H :  0.43
  726H :  0.43  226O :  0.43  593H :  0.43  270H :  0.42   32H :  0.42  357H :  0.42  194H :  0.41  288H :  0.41  143H :  0.41  224H :  0.41  273H :  0.40  333H :  0.40
  647H :  0.40   36H :  0.39  332H :  0.39    6H :  0.39  428H :  0.39  501H :  0.38  123H :  0.37   89H :  0.37  257H :  0.37   57H :  0.37  305H :  0.36   38H :  0.36
  711H :  0.36  366H :  0.35  618H :  0.35  468H :  0.34  412O :  0.34  340O :  0.34    9H :  0.34  588H :  0.32  284H :  0.32  486H :  0.32  756H :  0.31  396H :  0.30
  108H :  0.30  345H :  0.30  547O :  0.30    2H :  0.30  517O :  0.30  437H :  0.29  158H :  0.29  287H :  0.29  372H :  0.29   42H :  0.29  141H :  0.29  609H :  0.28
  140H :  0.28  312H :  0.28  317H :  0.28  702H :  0.28  663H :  0.27  434H :  0.27   86H :  0.27  411H :  0.26  729H :  0.26  168H :  0.26  179H :  0.26   21H :  0.25
  651H :  0.25  230H :  0.25  529O :  0.24   96H :  0.24  425H :  0.24  731H :  0.24  236H :  0.24  587H :  0.24  500H :  0.23  368H :  0.23  402H :  0.23  426H :  0.23
  611H :  0.23  185H :  0.23  275H :  0.22  560H :  0.22  519H :  0.22  687H :  0.22   29H :  0.21  114H :  0.21  558H :  0.21  369H :  0.21  563H :  0.21  690H :  0.21
  716H :  0.20  326H :  0.20  116H :  0.19  515H :  0.19  714H :  0.19  129H :  0.19  419H :  0.19  741H :  0.19  479H :  0.19  536H :  0.19  189H :  0.18   12H :  0.18
  659H :  0.18  510H :  0.18  458H :  0.18  251H :  0.18  161H :  0.17  327H :  0.17  356H :  0.17  537H :  0.17  674H :  0.17  666H :  0.17  626H :  0.17  435H :  0.17
  677H :  0.17   35H :  0.17   39H :  0.16  282H :  0.16  698H :  0.16  485H :  0.16  371H :  0.16  291H :  0.16  645H :  0.15  743H :  0.15  164H :  0.15  594H :  0.15
  173H :  0.15  602H :  0.15  623H :  0.14  696H :  0.14  138H :  0.14  269H :  0.14  738H :  0.14   93H :  0.14  375H :  0.14  389H :  0.14  195H :  0.14  590H :  0.14
  378H :  0.14  243H :  0.13  303H :  0.13  683H :  0.13  134H :  0.13  300H :  0.13  518H :  0.12  572H :  0.12  720H :  0.12  309H :  0.12  362H :  0.12  176H :  0.12
  374H :  0.12  272H :  0.12   77H :  0.12  336H :  0.12   53H :  0.11  429H :  0.11  171H :  0.11  302H :  0.11  381H :  0.11  582H :  0.11  605H :  0.11  507H :  0.10
  570H :  0.10  509H :  0.10  474H :  0.10  722H :  0.10  624H :  0.10  455H :  0.10  213H :  0.09   17H :  0.09   90H :  0.09  644H :  0.09   80H :  0.09  222H :  0.09
  390H :  0.09  167H :  0.09   33H :  0.09    3H :  0.09   72H :  0.09  266H :  0.08  321H :  0.08  608H :  0.08  192H :  0.08  392H :  0.08  386H :  0.08  549H :  0.08
   20H :  0.08  399H :  0.08  728H :  0.08  554H :  0.08  749H :  0.07  492H :  0.07  338H :  0.07  365H :  0.07   54H :  0.07  413H :  0.07
    2 LP   *******   0.00   0.17001  10.83963  -5.82626  283O : 26.24  610O : 20.61  124O : 19.56  202O : 19.18   31O : 18.29   40O : 17.43  646O : 16.31  415O : 15.68  598O : 15.42  700O : 15.36  292O : 15.24  301O : 14.76
  343O : 14.45  640O : 14.11  106O : 13.97  160O : 13.76  313O : 12.20  463O : 11.75  583O : 11.52   52O : 11.23  220O : 11.13   13O : 10.59  151O : 10.56   19O : 10.42
  187O :  9.96   73O :  9.78  289O :  9.77    7O :  9.66  148O :  9.64  574O :  9.59  460O :  9.52  370O :  9.40  508O :  9.37  376O :  9.22  331O :  9.22  511O :  9.17
   91O :  9.15  631O :  8.92  349O :  8.79   10O :  8.71  433O :  8.64  751O :  8.57  103O :  8.49  214O :  8.37  337O :  8.25  397O :  8.23  424O :  7.97  217O :  7.97
  280O :  7.90  619O :  7.87  112O :  7.80  241O :  7.72  586O :  7.72   16O :  7.46  322O :  7.44  130O :  7.37  181O :  7.26  748O :  7.25  520O :  7.25  451O :  7.17
  613O :  7.08   22O :  6.91  223O :  6.88  352O :  6.85  244O :  6.84  562O :  6.81  436O :  6.76  703O :  6.70   82O :  6.68  430O :  6.52  502O :  6.44    4O :  6.43
  163O :  6.42  490O :  6.41  316O :  6.25  685O :  6.23  274O :  6.19  205O :  6.18   85O :  6.14  664O :  6.07  400O :  6.02  484O :  6.01   25O :  5.92  544O :  5.85
   43O :  5.64   79O :  5.63  364O :  5.62  580O :  5.61  346O :  5.58  622O :  5.25  730O :  5.17  379O :  5.17   46O :  5.11  118O :  5.03  325O :  4.95  709O :  4.92
  271O :  4.88  100O :  4.86  718O :  4.80  166O :  4.76  538O :  4.76   37O :  4.74  454O :  4.67  256O :  4.60  259O :  4.54  253O :  4.52  457O :  4.50  157O :  4.45
  310O :  4.38  418O :  4.36  448O :  4.36  472O :  4.30  394O :  4.23  145O :  4.17  754O :  4.16  142O :  4.15  238O :  4.11  724O :  4.07  559O :  3.99  190O :  3.92
  478O :  3.91  139O :  3.88  655O :  3.86  532O :  3.86  328O :  3.78  235O :  3.77  565O :  3.75  421O :  3.73  127O :  3.72    1O :  3.67  652O :  3.66  121O :  3.56
  109O :  3.54  445O :  3.53   76O :  3.50  367O :  3.49   58O :  3.42  727O :  3.40   88O :  3.35  682O :  3.34  391O :  3.33  487O :  3.31  334O :  3.27  442O :  3.25
  496O :  3.25  745O :  3.24  643O :  3.22  250O :  3.21  553O :  3.19  604O :  3.14  514O :  3.14  403O :  3.13  475O :  3.09  649O :  3.04   49O :  3.04  208O :  3.01
  556O :  3.01  409O :  2.98  304O :  2.95  541O :  2.92  673O :  2.92  175O :  2.87  634O :  2.87  268O :  2.86   34O :  2.85   94O :  2.82  319O :  2.77  691O :  2.76
   55O :  2.76  697O :  2.69  733O :  2.68  229O :  2.67   28O :  2.64  499O :  2.57  178O :  2.56  493O :  2.55  721O :  2.52  466O :  2.44  247O :  2.35  351H :  2.33
  265O :  2.29  355O :  2.25   14H :  2.18  361O :  2.18  184O :  2.16  315H :  2.12  406O :  2.08  193O :  2.08  589O :  2.04  133O :  2.03  388O :  2.02  373O :  2.02
  294H :  1.99  385O :  1.99  216H :  1.99  592O :  1.97  712O :  1.97  715O :  1.96  125H :  1.96  339H :  1.91  607O :  1.89  688O :  1.87  188H :  1.86  595O :  1.86
  577O :  1.84  307O :  1.83  571O :  1.81  694O :  1.80  154O :  1.80   70O :  1.77  169O :  1.75  742O :  1.74  136O :  1.72  658O :  1.63  706O :  1.62  505O :  1.61
  427O :  1.59  736O :  1.55  676O :  1.54  358O :  1.54  377H :  1.48  211O :  1.47   61O :  1.44  464H :  1.40  295O :  1.37  115O :  1.36  245H :  1.36  461H :  1.30
  286O :  1.30  298O :  1.30  628O :  1.28  162H :  1.28  526O :  1.28  679O :  1.22  616O :  1.21  568O :  1.20  535O :  1.20   18H :  1.17  290H :  1.17   64O :  1.14
  277O :  1.14  459H :  1.13  625O :  1.13  285H :  1.13  199O :  1.12  481O :  1.10  523O :  1.09  545H :  1.09  318H :  1.05   24H :  1.05  111H :  1.03  642H :  1.02
  172O :  1.02  239H :  1.01  540H :  0.99  242H :  0.99   67O :  0.98  232O :  0.98  110H :  0.97  281H :  0.94  101H :  0.93   75H :  0.92   47H :  0.89  360H :  0.88
  249H :  0.88  201H :  0.87   78H :  0.87  620H :  0.85  382O :  0.84  262O :  0.83   97O :  0.83  483H :  0.82  234H :  0.79  513H :  0.79  447H :  0.79  575H :  0.78
  637O :  0.78  254H :  0.78  585H :  0.77  636H :  0.77   44H :  0.76  578H :  0.75  416H :  0.74  196O :  0.74  469O :  0.72  654H :  0.71   15H :  0.70  657H :  0.69
  477H :  0.69  324H :  0.69   74H :  0.68  221H :  0.68  153H :  0.67  576H :  0.67  218H :  0.66  348H :  0.66  739O :  0.66  661O :  0.66  667O :  0.66   71H :  0.65
  746H :  0.65  543H :  0.64  752H :  0.64  498H :  0.64   26H :  0.62  670O :  0.62  650H :  0.61  422H :  0.61   48H :  0.59  405H :  0.59  753H :  0.58  581H :  0.58
  566H :  0.57  152H :  0.56  353H :  0.55  113H :  0.55  534H :  0.54  601O :  0.53  395H :  0.53  126H :  0.53  550O :  0.52  407H :  0.52  137H :  0.52  182H :  0.52
  635H :  0.52  449H :  0.52  296H :  0.51  320H :  0.51  710H :  0.50   50H :  0.50  450H :  0.48  453H :  0.48  443H :  0.48  204H :  0.47  198H :  0.47  150H :  0.47
  606H :  0.46  567H :  0.45  713H :  0.45  203H :  0.45  102H :  0.45  252H :  0.45  439O :  0.44  588H :  0.44  255H :  0.43  465H :  0.43  128H :  0.43   27H :  0.43
  527H :  0.43  726H :  0.43  226O :  0.42  593H :  0.42  270H :  0.42   32H :  0.41  357H :  0.41  194H :  0.41  288H :  0.41  143H :  0.40  224H :  0.40  273H :  0.40
   36H :  0.39  333H :  0.39  647H :  0.39  284H :  0.39  332H :  0.38    6H :  0.38  428H :  0.38  501H :  0.37  123H :  0.37   89H :  0.37   57H :  0.36  257H :  0.36
  305H :  0.36   38H :  0.35  711H :  0.35  366H :  0.35  618H :  0.35  468H :  0.33  412O :  0.33  340O :  0.33    9H :  0.33  486H :  0.31  756H :  0.30  396H :  0.30
  108H :  0.30  547O :  0.30  345H :  0.30    2H :  0.29  517O :  0.29  611H :  0.29  437H :  0.29  158H :  0.29  287H :  0.29  372H :  0.29   42H :  0.28  141H :  0.28
  609H :  0.28  140H :  0.28  312H :  0.27  317H :  0.27  702H :  0.27  663H :  0.27   86H :  0.26  434H :  0.26  411H :  0.26  729H :  0.25  168H :  0.25  179H :  0.25
   21H :  0.25  651H :  0.25  230H :  0.24  529O :  0.24   96H :  0.24  425H :  0.24  731H :  0.24  236H :  0.23  500H :  0.23  368H :  0.23  402H :  0.23  426H :  0.23
  587H :  0.23  185H :  0.23  275H :  0.22  560H :  0.22  519H :  0.21  687H :  0.21   29H :  0.21  114H :  0.21  558H :  0.21  369H :  0.20  563H :  0.20  690H :  0.20
  716H :  0.20  326H :  0.20  116H :  0.19  515H :  0.19  714H :  0.19  129H :  0.19  419H :  0.18  741H :  0.18  479H :  0.18  536H :  0.18  189H :  0.18   12H :  0.18
  659H :  0.18  510H :  0.18  458H :  0.18  251H :  0.18  161H :  0.17  327H :  0.17  356H :  0.17  537H :  0.17  674H :  0.17  626H :  0.17  677H :  0.17   39H :  0.16
  435H :  0.16   35H :  0.16  282H :  0.16  485H :  0.16  666H :  0.16  698H :  0.15  291H :  0.15  371H :  0.15  645H :  0.15  743H :  0.15  164H :  0.15  594H :  0.15
  173H :  0.15  602H :  0.14  623H :  0.14  696H :  0.14  138H :  0.14  269H :  0.14  738H :  0.14   93H :  0.14  375H :  0.14  389H :  0.13  195H :  0.13  590H :  0.13
  378H :  0.13  243H :  0.13  303H :  0.13  683H :  0.13  134H :  0.13  300H :  0.13  518H :  0.12  572H :  0.12  720H :  0.12  309H :  0.12  362H :  0.12  176H :  0.12
  374H :  0.12  272H :  0.12   77H :  0.11  336H :  0.11   53H :  0.11  429H :  0.11  171H :  0.11  302H :  0.11  582H :  0.11  381H :  0.11  605H :  0.10  507H :  0.10
  570H :  0.10  509H :  0.10  474H :  0.10  722H :  0.10  624H :  0.10  455H :  0.09  213H :  0.09   17H :  0.09   90H :  0.09  644H :  0.09   80H :  0.09  222H :  0.09
  390H :  0.09  167H :  0.09    3H :  0.09   33H :  0.09   72H :  0.09  266H :  0.08  321H :  0.08  608H :  0.08  392H :  0.08  386H :  0.08  549H :  0.08   20H :  0.08
  399H :  0.08  728H :  0.08  554H :  0.07  749H :  0.07  192H :  0.07  492H :  0.07  338H :  0.07
    3 LP   *******   0.00 -30.85383 -74.27635   5.07501  283O : 18.09  610O : 15.62  124O : 14.83  202O : 14.55  700O : 14.47   31O : 13.87   40O : 13.22  646O : 12.37  415O : 11.89  598O : 11.70  292O : 11.56  301O : 11.19
  343O : 10.96  640O : 10.70  106O : 10.60  160O : 10.43  313O :  9.25  463O :  8.91  583O :  8.74   52O :  8.52  220O :  8.44   13O :  8.03  151O :  8.01   19O :  7.91
  187O :  7.55   73O :  7.42  289O :  7.41    7O :  7.33  148O :  7.31  574O :  7.28  460O :  7.22  370O :  7.14  508O :  7.11  376O :  7.00  331O :  6.99  511O :  6.96
   91O :  6.92  631O :  6.77  349O :  6.67  433O :  6.64   10O :  6.60  751O :  6.50  103O :  6.44  214O :  6.35  337O :  6.26  397O :  6.25  424O :  6.05  217O :  6.04
  280O :  5.99  619O :  5.97  112O :  5.91  241O :  5.86  586O :  5.85   16O :  5.66  322O :  5.65  130O :  5.59  181O :  5.51  748O :  5.50  520O :  5.50  451O :  5.44
  613O :  5.37   22O :  5.24  223O :  5.22  352O :  5.20  244O :  5.19  562O :  5.17  436O :  5.13  703O :  5.08   82O :  5.07  430O :  4.94  502O :  4.88    4O :  4.88
  163O :  4.87  490O :  4.87  316O :  4.74  685O :  4.72  664O :  4.69  205O :  4.69  274O :  4.68   85O :  4.65  400O :  4.57  484O :  4.56   25O :  4.49  544O :  4.44
   43O :  4.28   79O :  4.27  364O :  4.26  580O :  4.26  346O :  4.23  622O :  3.98  730O :  3.92  379O :  3.92   46O :  3.87  118O :  3.81  325O :  3.76  709O :  3.73
  271O :  3.70  100O :  3.69  718O :  3.64  166O :  3.61  538O :  3.61   37O :  3.60  454O :  3.54  256O :  3.48  259O :  3.45  253O :  3.43  457O :  3.41  157O :  3.38
  310O :  3.32  418O :  3.31  448O :  3.31  472O :  3.27  394O :  3.21  145O :  3.16  754O :  3.16  142O :  3.14  238O :  3.12  724O :  3.08  559O :  3.03  655O :  2.97
  478O :  2.97  190O :  2.96  139O :  2.95  532O :  2.92  328O :  2.87  235O :  2.86  565O :  2.85  421O :  2.83  127O :  2.82    1O :  2.79  652O :  2.78  121O :  2.70
  109O :  2.68  445O :  2.68   76O :  2.65  367O :  2.65   58O :  2.59  727O :  2.58   88O :  2.54  682O :  2.53  391O :  2.52  334O :  2.48  442O :  2.46  496O :  2.46
  745O :  2.46  643O :  2.44  250O :  2.44  553O :  2.42  604O :  2.38  514O :  2.38  487O :  2.37  403O :  2.37  475O :  2.35   49O :  2.30  649O :  2.30  208O :  2.29
  556O :  2.28  409O :  2.26  304O :  2.24  541O :  2.21  673O :  2.21  175O :  2.18  634O :  2.18  268O :  2.17   94O :  2.14   34O :  2.13  697O :  2.11  319O :  2.10
  691O :  2.10   55O :  2.09  733O :  2.03  229O :  2.03   28O :  2.00  499O :  1.95  178O :  1.94  493O :  1.93  721O :  1.91  466O :  1.85  351H :  1.77  247O :  1.76
  265O :  1.74  355O :  1.71   14H :  1.66  361O :  1.65  184O :  1.64  315H :  1.61  406O :  1.58  193O :  1.58  589O :  1.55  133O :  1.54  388O :  1.53  373O :  1.53
  294H :  1.51  385O :  1.51  216H :  1.51  592O :  1.49  712O :  1.49  715O :  1.49  125H :  1.49  339H :  1.45  607O :  1.43  577O :  1.42  688O :  1.42  188H :  1.41
  595O :  1.41  307O :  1.39  571O :  1.37  694O :  1.37  154O :  1.36   70O :  1.34  169O :  1.32  742O :  1.32  136O :  1.30  658O :  1.24  505O :  1.23  706O :  1.23
  427O :  1.21  736O :  1.17  676O :  1.17  358O :  1.17  377H :  1.12  211O :  1.12   61O :  1.09  464H :  1.06  295O :  1.04  115O :  1.03  245H :  1.03  526O :  0.99
  461H :  0.99  286O :  0.99  298O :  0.99  628O :  0.97  162H :  0.97  285H :  0.97  679O :  0.93  616O :  0.92  568O :  0.91  535O :  0.91   18H :  0.89  290H :  0.89
   64O :  0.87  277O :  0.87  625O :  0.86  459H :  0.85  199O :  0.85  481O :  0.83  523O :  0.83  545H :  0.83  318H :  0.80   24H :  0.79  172O :  0.79  111H :  0.78
  642H :  0.77  239H :  0.77  540H :  0.75  242H :  0.75   67O :  0.75  232O :  0.74  110H :  0.73  281H :  0.72  101H :  0.70   75H :  0.69   47H :  0.68  360H :  0.67
  201H :  0.66   78H :  0.66  249H :  0.65  620H :  0.65  382O :  0.64  262O :  0.63   97O :  0.63  483H :  0.62  234H :  0.60  513H :  0.60  447H :  0.60  575H :  0.59
  637O :  0.59  254H :  0.59  585H :  0.59  636H :  0.58   44H :  0.58  578H :  0.57  416H :  0.56  196O :  0.56  469O :  0.55  654H :  0.54  657H :  0.54   15H :  0.53
  477H :  0.52  324H :  0.52   74H :  0.51  221H :  0.51  153H :  0.51  576H :  0.50  218H :  0.50  348H :  0.50  739O :  0.50  667O :  0.50  661O :  0.50  746H :  0.49
  543H :  0.49  752H :  0.49   71H :  0.48  498H :  0.48   26H :  0.47  670O :  0.47  650H :  0.46  422H :  0.46   48H :  0.45  405H :  0.45  753H :  0.44  581H :  0.44
  566H :  0.43  152H :  0.43  353H :  0.42  113H :  0.42  534H :  0.41  601O :  0.40  126H :  0.40  395H :  0.40  550O :  0.40  407H :  0.40  137H :  0.40  182H :  0.39
  635H :  0.39  449H :  0.39  296H :  0.39  320H :  0.39  710H :  0.38   50H :  0.38  450H :  0.37  453H :  0.37  443H :  0.36  204H :  0.36  198H :  0.35  150H :  0.35
  606H :  0.35  567H :  0.34  713H :  0.34  102H :  0.34  203H :  0.34  252H :  0.34  439O :  0.33  527H :  0.33  588H :  0.33  465H :  0.33  255H :  0.33  128H :  0.33
   27H :  0.32  726H :  0.32  226O :  0.32  593H :  0.32  270H :  0.32   32H :  0.31  357H :  0.31  194H :  0.31  288H :  0.31  143H :  0.31  224H :  0.30  273H :  0.30
  333H :  0.30  647H :  0.30   36H :  0.29  332H :  0.29    6H :  0.29  428H :  0.29  501H :  0.28  123H :  0.28   89H :  0.28   57H :  0.28  257H :  0.28  305H :  0.27
   38H :  0.27  711H :  0.27  366H :  0.27  618H :  0.26  468H :  0.25  412O :  0.25  340O :  0.25    9H :  0.25  284H :  0.24  486H :  0.24  756H :  0.23  396H :  0.23
  108H :  0.23  345H :  0.22  547O :  0.22    2H :  0.22  517O :  0.22  437H :  0.22  158H :  0.22  287H :  0.22  372H :  0.22  611H :  0.22   42H :  0.22  141H :  0.21
  609H :  0.21  140H :  0.21  312H :  0.21  317H :  0.21  663H :  0.20  434H :  0.20   86H :  0.20  411H :  0.20  729H :  0.19  168H :  0.19  179H :  0.19   21H :  0.19
  651H :  0.19  230H :  0.19  529O :  0.18   96H :  0.18  425H :  0.18  731H :  0.18  236H :  0.18  500H :  0.18  402H :  0.18  368H :  0.18  426H :  0.17  587H :  0.17
  185H :  0.17  275H :  0.17  560H :  0.16  519H :  0.16  687H :  0.16   29H :  0.16  114H :  0.16  558H :  0.16  369H :  0.16  563H :  0.16  690H :  0.15  716H :  0.15
  702H :  0.15  326H :  0.15  116H :  0.14  515H :  0.14  714H :  0.14  129H :  0.14  419H :  0.14  741H :  0.14  479H :  0.14  536H :  0.14  189H :  0.14   12H :  0.14
  659H :  0.14  510H :  0.14  458H :  0.14  251H :  0.13  161H :  0.13  327H :  0.13  356H :  0.13  537H :  0.13  674H :  0.13  626H :  0.13  435H :  0.13  677H :  0.13
   35H :  0.13   39H :  0.12  282H :  0.12  698H :  0.12  485H :  0.12  666H :  0.12  371H :  0.12  291H :  0.12  645H :  0.11  743H :  0.11  164H :  0.11  173H :  0.11
  594H :  0.11  602H :  0.11   93H :  0.11  623H :  0.11  696H :  0.11  138H :  0.11  269H :  0.11  738H :  0.10  375H :  0.10  389H :  0.10  195H :  0.10  590H :  0.10
  378H :  0.10  243H :  0.10  303H :  0.10  683H :  0.10  134H :  0.10  300H :  0.10  518H :  0.09  572H :  0.09  720H :  0.09  309H :  0.09  362H :  0.09  176H :  0.09
  374H :  0.09  272H :  0.09   77H :  0.09  336H :  0.09   53H :  0.08  429H :  0.08  171H :  0.08  302H :  0.08  582H :  0.08  381H :  0.08  605H :  0.08  507H :  0.08
  570H :  0.08  509H :  0.08  474H :  0.08  722H :  0.07  624H :  0.07  455H :  0.07  213H :  0.07   17H :  0.07   90H :  0.07
    4 LP   *******   0.00 -17.23998 -32.90832  -9.46631  283O : 17.96  610O : 15.52   31O : 15.24  124O : 14.72  202O : 14.45   40O : 13.12  646O : 12.28  415O : 11.80  598O : 11.61  700O : 11.56  292O : 11.47  301O : 11.14
  343O : 10.88  640O : 10.63  106O : 10.52  160O : 10.34  313O :  9.17  463O :  8.85  583O :  8.67   52O :  8.45  220O :  8.43   13O :  7.97  151O :  7.95   19O :  7.85
  187O :  7.50   73O :  7.36  289O :  7.35  148O :  7.25  574O :  7.22  460O :  7.17    7O :  7.12  370O :  7.09  508O :  7.06  376O :  6.94  331O :  6.94  511O :  6.91
   91O :  6.89  631O :  6.72  349O :  6.62  433O :  6.59   10O :  6.56  751O :  6.47  103O :  6.39  214O :  6.30  337O :  6.21  397O :  6.20  424O :  6.00  217O :  6.00
  280O :  5.95  619O :  5.93  112O :  5.87  241O :  5.82  586O :  5.81   16O :  5.62  322O :  5.61  130O :  5.55  181O :  5.47  748O :  5.46  520O :  5.46  451O :  5.40
  613O :  5.33   22O :  5.20  223O :  5.18  352O :  5.16  244O :  5.15  436O :  5.09  703O :  5.04   82O :  5.03  562O :  4.99  430O :  4.91  502O :  4.85    4O :  4.84
  163O :  4.84  490O :  4.83  316O :  4.71  685O :  4.69  274O :  4.66   85O :  4.65  205O :  4.65  664O :  4.57  400O :  4.53  484O :  4.53   25O :  4.46  544O :  4.41
   43O :  4.24   79O :  4.23  364O :  4.23  580O :  4.23  346O :  4.20  622O :  3.95  730O :  3.89  379O :  3.89   46O :  3.83  118O :  3.79  325O :  3.73  709O :  3.71
  271O :  3.68  100O :  3.66  718O :  3.61  166O :  3.59  538O :  3.58   37O :  3.57  454O :  3.51  256O :  3.46  259O :  3.42  253O :  3.40  457O :  3.38  157O :  3.35
  310O :  3.29  418O :  3.28  448O :  3.28  472O :  3.24  394O :  3.19  145O :  3.14  754O :  3.14  142O :  3.12  238O :  3.09  724O :  3.06  559O :  3.01  190O :  2.95
  655O :  2.95  139O :  2.92  532O :  2.90  328O :  2.85  478O :  2.84  235O :  2.83  565O :  2.83  421O :  2.81  127O :  2.81    1O :  2.77  652O :  2.76  121O :  2.68
  445O :  2.66  109O :  2.66   76O :  2.63  367O :  2.63   58O :  2.57  727O :  2.56   88O :  2.52  682O :  2.52  391O :  2.50  487O :  2.49  334O :  2.46  442O :  2.45
  496O :  2.45  745O :  2.44  643O :  2.42  250O :  2.42  553O :  2.41  604O :  2.36  514O :  2.36  403O :  2.35  475O :  2.33  649O :  2.29   49O :  2.29  208O :  2.27
  556O :  2.26  409O :  2.24  304O :  2.22  541O :  2.20  673O :  2.20  175O :  2.17  634O :  2.16  268O :  2.16   94O :  2.12   34O :  2.11  697O :  2.09  319O :  2.09
  691O :  2.08   55O :  2.07  733O :  2.02  229O :  2.02   28O :  1.99  499O :  1.94  178O :  1.93  493O :  1.92  721O :  1.89  466O :  1.84  351H :  1.76  247O :  1.75
  265O :  1.72  355O :  1.69   14H :  1.64  361O :  1.64  184O :  1.62  315H :  1.59  406O :  1.57  193O :  1.57  589O :  1.54  133O :  1.53  388O :  1.52  373O :  1.52
  294H :  1.50  385O :  1.50  216H :  1.50  592O :  1.48  712O :  1.48  715O :  1.48  125H :  1.47  339H :  1.44  607O :  1.42  577O :  1.41  688O :  1.41  188H :  1.40
  595O :  1.40  307O :  1.38  571O :  1.36  694O :  1.36  154O :  1.35   70O :  1.33  169O :  1.32  742O :  1.31  136O :  1.29  658O :  1.23  706O :  1.22  505O :  1.22
  427O :  1.20  736O :  1.17  676O :  1.16  358O :  1.16  377H :  1.11  211O :  1.11   61O :  1.09  464H :  1.05  295O :  1.03  115O :  1.03  245H :  1.03  461H :  0.98
  286O :  0.98  298O :  0.98  628O :  0.97  285H :  0.96  162H :  0.96  526O :  0.96  679O :  0.92  616O :  0.91  568O :  0.91  535O :  0.91   18H :  0.88  290H :  0.88
   64O :  0.86  277O :  0.86  625O :  0.85  459H :  0.85  199O :  0.84  481O :  0.84  523O :  0.82  545H :  0.82  318H :  0.79   24H :  0.79  111H :  0.78  642H :  0.77
  172O :  0.76  239H :  0.76  540H :  0.75  242H :  0.74   67O :  0.74  232O :  0.74  110H :  0.73  281H :  0.71  101H :  0.70   75H :  0.69   47H :  0.67  360H :  0.66
  201H :  0.66   78H :  0.66  249H :  0.64  620H :  0.64  382O :  0.63  262O :  0.63   97O :  0.62  483H :  0.62  234H :  0.60  513H :  0.60  447H :  0.59  575H :  0.59
  637O :  0.59  254H :  0.59  585H :  0.58  636H :  0.58   44H :  0.57  578H :  0.57  416H :  0.56  196O :  0.56  469O :  0.54  654H :  0.54  657H :  0.53   15H :  0.52
  477H :  0.52  324H :  0.52   74H :  0.51  221H :  0.51  153H :  0.50  576H :  0.50  218H :  0.50  348H :  0.50  739O :  0.50  661O :  0.49  667O :  0.49  746H :  0.49
  543H :  0.48   71H :  0.48  752H :  0.48  498H :  0.48   26H :  0.47  670O :  0.47  650H :  0.46  422H :  0.46  405H :  0.44  753H :  0.44   48H :  0.44  581H :  0.43
  566H :  0.43  152H :  0.42  353H :  0.41  113H :  0.41  534H :  0.40  601O :  0.40  126H :  0.40  395H :  0.40  550O :  0.39  407H :  0.39  137H :  0.39  182H :  0.39
  635H :  0.39  449H :  0.39  296H :  0.39  320H :  0.38  710H :  0.38   50H :  0.38  204H :  0.37  450H :  0.36  198H :  0.36  453H :  0.36  443H :  0.36  150H :  0.35
  606H :  0.35  567H :  0.34  713H :  0.34  102H :  0.34  252H :  0.34  439O :  0.33  588H :  0.33  465H :  0.33  255H :  0.33  128H :  0.33   27H :  0.32  527H :  0.32
  203H :  0.32  726H :  0.32  226O :  0.32  593H :  0.32  270H :  0.32  357H :  0.31  194H :  0.31  288H :  0.31  143H :  0.30  224H :  0.30  273H :  0.30  333H :  0.30
  647H :  0.29   36H :  0.29  332H :  0.29    6H :  0.29  428H :  0.29  501H :  0.28  123H :  0.28   89H :  0.28   57H :  0.27  257H :  0.27  305H :  0.27   38H :  0.26
  711H :  0.26  366H :  0.26  618H :  0.26  468H :  0.25  412O :  0.25  340O :  0.25    9H :  0.24  284H :  0.24  486H :  0.24  756H :  0.23  396H :  0.22  108H :  0.22
  345H :  0.22  547O :  0.22    2H :  0.22  517O :  0.22  611H :  0.22  437H :  0.22  158H :  0.22  287H :  0.22  372H :  0.22   42H :  0.21  141H :  0.21  609H :  0.21
  140H :  0.21   32H :  0.21  312H :  0.21  317H :  0.21  702H :  0.20  411H :  0.20  663H :  0.20  434H :  0.20   86H :  0.20  729H :  0.19  168H :  0.19  179H :  0.19
   21H :  0.19  651H :  0.19  230H :  0.18  529O :  0.18   96H :  0.18  425H :  0.18  731H :  0.18  236H :  0.18  500H :  0.17  368H :  0.17  402H :  0.17  426H :  0.17
  587H :  0.17  185H :  0.17  275H :  0.17  560H :  0.16  519H :  0.16  687H :  0.16   29H :  0.16  114H :  0.16  563H :  0.16  558H :  0.16  369H :  0.15  690H :  0.15
  716H :  0.15  326H :  0.15  116H :  0.14  515H :  0.14  714H :  0.14  129H :  0.14  419H :  0.14  741H :  0.14  536H :  0.14  479H :  0.14  189H :  0.14  659H :  0.14
  510H :  0.14  458H :  0.14   12H :  0.14  251H :  0.13  161H :  0.13  327H :  0.13  356H :  0.13  537H :  0.13  674H :  0.13  626H :  0.13  435H :  0.13  677H :  0.13
   35H :  0.12   39H :  0.12  282H :  0.12  698H :  0.12  485H :  0.12  666H :  0.12  371H :  0.12  291H :  0.12  645H :  0.11  743H :  0.11  164H :  0.11  594H :  0.11
  173H :  0.11  623H :  0.11  696H :  0.11  138H :  0.11  269H :  0.10  738H :  0.10   93H :  0.10   33H :  0.10  375H :  0.10  389H :  0.10  195H :  0.10  590H :  0.10
  378H :  0.10  243H :  0.10  303H :  0.10  602H :  0.10  683H :  0.10  134H :  0.09  300H :  0.09  518H :  0.09  572H :  0.09  720H :  0.09  309H :  0.09  362H :  0.09
  374H :  0.09  176H :  0.09  272H :  0.09   77H :  0.09  336H :  0.09   53H :  0.08  429H :  0.08  171H :  0.08  302H :  0.08  582H :  0.08  381H :  0.08  605H :  0.08
  507H :  0.08  570H :  0.08  509H :  0.08  474H :  0.08  722H :  0.07  624H :  0.07  222H :  0.07  455H :  0.07  213H :  0.07   17H :  0.07
    5 LP   *******   0.00  12.80136   0.31273  35.70286  283O : 15.30  610O : 13.22  124O : 12.54  202O : 12.31   31O : 11.73  106O : 11.61   40O : 11.19  646O : 10.47  415O : 10.06  598O :  9.90  700O :  9.85  292O :  9.77
  301O :  9.47  343O :  9.27  640O :  9.05  160O :  8.82  313O :  7.83  463O :  7.44  583O :  7.39   52O :  7.20  220O :  7.14   13O :  6.79  151O :  6.77   19O :  6.68
  187O :  6.38   73O :  6.27  289O :  6.27    7O :  6.19  148O :  6.18  574O :  6.15  460O :  6.11  370O :  6.03  508O :  6.01  376O :  5.92  331O :  5.91  511O :  5.89
   91O :  5.87  631O :  5.72  349O :  5.64  433O :  5.62   10O :  5.59  751O :  5.50  103O :  5.44  214O :  5.37  337O :  5.29  397O :  5.28  217O :  5.12  424O :  5.11
  280O :  5.07  619O :  5.05  112O :  5.00  241O :  4.96  586O :  4.95   16O :  4.79  322O :  4.78  130O :  4.73  181O :  4.66  748O :  4.65  520O :  4.65  451O :  4.61
  613O :  4.54   22O :  4.44  223O :  4.41  352O :  4.40  244O :  4.39  562O :  4.37  436O :  4.34  703O :  4.30   82O :  4.29  430O :  4.18  502O :  4.13    4O :  4.13
  163O :  4.12  490O :  4.12  316O :  4.01  685O :  3.99  274O :  3.97  205O :  3.96   85O :  3.94  664O :  3.90  400O :  3.86  484O :  3.86   25O :  3.80  544O :  3.76
   43O :  3.61   79O :  3.61  364O :  3.60  580O :  3.60  346O :  3.58  622O :  3.37  730O :  3.32  379O :  3.31   46O :  3.27  118O :  3.23  325O :  3.22  709O :  3.16
  271O :  3.13  100O :  3.12  718O :  3.08  166O :  3.06  538O :  3.05   37O :  3.04  454O :  2.98  256O :  2.95  253O :  2.93  259O :  2.91  457O :  2.88  157O :  2.85
  310O :  2.80  418O :  2.80  448O :  2.79  472O :  2.76  394O :  2.72  145O :  2.68  754O :  2.67  142O :  2.66  238O :  2.64  724O :  2.61  559O :  2.56  655O :  2.52
  190O :  2.51  478O :  2.51  139O :  2.49  532O :  2.47  328O :  2.43  235O :  2.42  565O :  2.41  421O :  2.39  127O :  2.39    1O :  2.36  652O :  2.35  121O :  2.28
  109O :  2.27  445O :  2.27   76O :  2.24  367O :  2.24   58O :  2.19  727O :  2.18   88O :  2.15  682O :  2.14  391O :  2.13  487O :  2.12  334O :  2.10  442O :  2.08
  496O :  2.08  745O :  2.08  643O :  2.06  250O :  2.06  553O :  2.05  514O :  2.01  604O :  2.01  403O :  2.01  475O :  1.99  649O :  1.95   49O :  1.95  208O :  1.93
  556O :  1.93  409O :  1.91  304O :  1.89  541O :  1.87  673O :  1.87  175O :  1.84  634O :  1.84  268O :  1.84   94O :  1.81   34O :  1.80  697O :  1.78  319O :  1.78
  691O :  1.77   55O :  1.77  733O :  1.72  229O :  1.72   28O :  1.69  499O :  1.65  178O :  1.64  493O :  1.64  721O :  1.61  466O :  1.57  351H :  1.50  247O :  1.48
  265O :  1.47  355O :  1.44   14H :  1.40  361O :  1.40  184O :  1.38  315H :  1.36  406O :  1.34  193O :  1.34  589O :  1.31  133O :  1.30  388O :  1.30  373O :  1.29
  294H :  1.28  385O :  1.28  216H :  1.28  592O :  1.26  715O :  1.26  712O :  1.26  125H :  1.26  339H :  1.23  607O :  1.21  577O :  1.20  688O :  1.20  595O :  1.19
  188H :  1.19  307O :  1.17  571O :  1.16  694O :  1.16  154O :  1.15   70O :  1.14  169O :  1.12  742O :  1.12  136O :  1.10  658O :  1.05  706O :  1.04  505O :  1.04
  427O :  1.02  736O :  0.99  676O :  0.99  358O :  0.99  377H :  0.95  211O :  0.94   61O :  0.93  464H :  0.89  295O :  0.88  115O :  0.88  245H :  0.87  461H :  0.84
  286O :  0.83  298O :  0.83  628O :  0.82  162H :  0.82  285H :  0.82  526O :  0.82  679O :  0.79  616O :  0.78  568O :  0.77  535O :  0.77   64O :  0.75   18H :  0.75
  290H :  0.75  277O :  0.73  625O :  0.72  459H :  0.72  199O :  0.72  481O :  0.71  523O :  0.70  545H :  0.70  318H :  0.67   24H :  0.67  111H :  0.66  642H :  0.66
  172O :  0.65  239H :  0.65  540H :  0.64  242H :  0.63   67O :  0.63  232O :  0.63  110H :  0.62  281H :  0.61  101H :  0.59   75H :  0.59   47H :  0.57  360H :  0.57
  201H :  0.56   78H :  0.56  249H :  0.55  620H :  0.55  382O :  0.54  262O :  0.54   97O :  0.53  483H :  0.53  234H :  0.51  513H :  0.51  447H :  0.51  575H :  0.50
  637O :  0.50  254H :  0.50  585H :  0.50  636H :  0.49   44H :  0.49  578H :  0.49  416H :  0.48  196O :  0.48  255H :  0.46  469O :  0.46  654H :  0.46  657H :  0.46
   15H :  0.45  477H :  0.44  324H :  0.44   74H :  0.43  221H :  0.43  153H :  0.43  576H :  0.43  218H :  0.43  348H :  0.42  739O :  0.42  661O :  0.42  667O :  0.42
  746H :  0.42  543H :  0.41  752H :  0.41   71H :  0.41  498H :  0.41   26H :  0.40  670O :  0.40  650H :  0.39  422H :  0.39   48H :  0.38  405H :  0.38  753H :  0.37
  581H :  0.37  566H :  0.37  152H :  0.36  353H :  0.35  113H :  0.35  534H :  0.34  601O :  0.34  126H :  0.34  395H :  0.34  550O :  0.34  407H :  0.34  137H :  0.33
  182H :  0.33  320H :  0.33  635H :  0.33  296H :  0.33  449H :  0.33  710H :  0.32   50H :  0.32  453H :  0.31  450H :  0.31  443H :  0.31  204H :  0.30  198H :  0.30
  150H :  0.30  606H :  0.30  567H :  0.29  713H :  0.29  252H :  0.29  102H :  0.29  203H :  0.29  439O :  0.28  465H :  0.28  588H :  0.28  128H :  0.28   27H :  0.27
  527H :  0.27  726H :  0.27  226O :  0.27  593H :  0.27  270H :  0.27   32H :  0.26  357H :  0.26  194H :  0.26  288H :  0.26  143H :  0.26  224H :  0.26  273H :  0.25
  333H :  0.25  647H :  0.25   36H :  0.25  332H :  0.25    6H :  0.25  428H :  0.25  501H :  0.24  123H :  0.24   89H :  0.23   57H :  0.23  257H :  0.23  305H :  0.23
   38H :  0.23  711H :  0.23  366H :  0.22  618H :  0.22  468H :  0.21  412O :  0.21  340O :  0.21    9H :  0.21  284H :  0.20  486H :  0.20  756H :  0.19  396H :  0.19
  345H :  0.19  547O :  0.19    2H :  0.19  517O :  0.19  611H :  0.19  437H :  0.19  158H :  0.18  287H :  0.18  372H :  0.18   42H :  0.18  141H :  0.18  609H :  0.18
  140H :  0.18  312H :  0.18  317H :  0.18  702H :  0.17  434H :  0.17  663H :  0.17   86H :  0.17  411H :  0.17  729H :  0.16  168H :  0.16  179H :  0.16   21H :  0.16
  651H :  0.16  230H :  0.16  529O :  0.15   96H :  0.15  425H :  0.15  731H :  0.15  236H :  0.15  500H :  0.15  402H :  0.15  368H :  0.15  108H :  0.15  426H :  0.15
  587H :  0.15  185H :  0.14  275H :  0.14  560H :  0.14  519H :  0.14  687H :  0.14   29H :  0.14  114H :  0.13  558H :  0.13  369H :  0.13  563H :  0.13  690H :  0.13
  716H :  0.13  326H :  0.12  116H :  0.12  515H :  0.12  714H :  0.12  129H :  0.12  419H :  0.12  741H :  0.12  479H :  0.12  536H :  0.12  189H :  0.12   12H :  0.12
  659H :  0.12  458H :  0.12  510H :  0.12  251H :  0.11  161H :  0.11  356H :  0.11  537H :  0.11  674H :  0.11  626H :  0.11  435H :  0.11  677H :  0.11   35H :  0.11
  327H :  0.11   39H :  0.10  282H :  0.10  698H :  0.10  485H :  0.10  666H :  0.10  371H :  0.10  291H :  0.10  645H :  0.10  743H :  0.10  164H :  0.10  594H :  0.09
  173H :  0.09  602H :  0.09  623H :  0.09  696H :  0.09  138H :  0.09  269H :  0.09  375H :  0.09  738H :  0.09  378H :  0.09   93H :  0.09  195H :  0.09  389H :  0.09
  590H :  0.09  243H :  0.08  303H :  0.08  683H :  0.08  134H :  0.08  300H :  0.08  518H :  0.08  572H :  0.08  720H :  0.08  309H :  0.08  362H :  0.08  176H :  0.08
  374H :  0.07  272H :  0.07   77H :  0.07  336H :  0.07   53H :  0.07  429H :  0.07
    6 LP   *******   0.00 -73.97288 -23.00492  -6.07216  283O : 14.63  610O : 12.65  646O : 12.01  124O : 12.00  202O : 11.77   31O : 11.22   40O : 10.70  415O :  9.63  598O :  9.46  700O :  9.42  292O :  9.35  301O :  9.05
  343O :  8.86  640O :  8.67  106O :  8.57  160O :  8.44  313O :  7.48  463O :  7.21  583O :  7.07   52O :  6.89  220O :  6.82   13O :  6.49  151O :  6.48   19O :  6.39
  187O :  6.11   73O :  6.00  289O :  5.99    7O :  5.92  148O :  5.91  574O :  5.89  460O :  5.84  370O :  5.78  508O :  5.75  376O :  5.66  331O :  5.65  511O :  5.63
   91O :  5.61  631O :  5.46  349O :  5.39  433O :  5.37   10O :  5.34  751O :  5.26  103O :  5.21  214O :  5.14  337O :  5.06  397O :  5.05  424O :  4.89  217O :  4.89
  280O :  4.85  619O :  4.83  112O :  4.78  241O :  4.74  586O :  4.73   16O :  4.58  322O :  4.57  130O :  4.52  181O :  4.45  748O :  4.45  520O :  4.44  451O :  4.40
  613O :  4.34   22O :  4.24  223O :  4.22  352O :  4.20  244O :  4.20  562O :  4.18  436O :  4.15  703O :  4.11   82O :  4.10  430O :  4.00  502O :  3.95  163O :  3.95
    4O :  3.94  490O :  3.94  316O :  3.84  685O :  3.82  205O :  3.80  274O :  3.80   85O :  3.77  664O :  3.73  400O :  3.69  484O :  3.69   25O :  3.63  544O :  3.59
   43O :  3.46   79O :  3.45  364O :  3.45  580O :  3.44  346O :  3.42  622O :  3.22  730O :  3.17  379O :  3.17   46O :  3.13  118O :  3.08  325O :  3.04  709O :  3.02
  271O :  3.00  100O :  2.98  718O :  2.94  166O :  2.92  538O :  2.92   37O :  2.91  454O :  2.86  256O :  2.82  259O :  2.79  253O :  2.77  457O :  2.76  157O :  2.73
  310O :  2.68  418O :  2.67  448O :  2.67  472O :  2.64  145O :  2.56  754O :  2.55  142O :  2.54  238O :  2.52  724O :  2.50  559O :  2.45  394O :  2.43  655O :  2.41
  190O :  2.40  478O :  2.40  139O :  2.38  532O :  2.36  328O :  2.32  235O :  2.31  565O :  2.30  421O :  2.29  127O :  2.28    1O :  2.25  652O :  2.25  121O :  2.18
  109O :  2.17  445O :  2.17   76O :  2.14  367O :  2.14   58O :  2.10  727O :  2.08   88O :  2.06  682O :  2.05  391O :  2.04  487O :  2.03  334O :  2.01  496O :  1.99
  442O :  1.99  745O :  1.99  250O :  1.97  553O :  1.96  604O :  1.92  514O :  1.92  403O :  1.92  475O :  1.90  643O :  1.89  649O :  1.87   49O :  1.86  208O :  1.85
  556O :  1.84  409O :  1.83  304O :  1.81  541O :  1.79  673O :  1.79  175O :  1.76  634O :  1.76  268O :  1.76   94O :  1.73   34O :  1.72  697O :  1.71  319O :  1.70
  691O :  1.69   55O :  1.69  733O :  1.65  229O :  1.64   28O :  1.62  499O :  1.58  178O :  1.57  493O :  1.56  721O :  1.54  466O :  1.50  351H :  1.43  247O :  1.42
  265O :  1.40  355O :  1.38   14H :  1.34  361O :  1.33  184O :  1.32  315H :  1.30  406O :  1.28  193O :  1.28  589O :  1.25  133O :  1.24  388O :  1.24  373O :  1.24
  294H :  1.22  385O :  1.22  216H :  1.22  592O :  1.21  712O :  1.21  715O :  1.20  125H :  1.20  339H :  1.17  595O :  1.16  607O :  1.16  577O :  1.15  688O :  1.15
  188H :  1.14  307O :  1.12  571O :  1.11  694O :  1.11  154O :  1.10   70O :  1.08  169O :  1.07  742O :  1.07  136O :  1.06  658O :  1.00  706O :  0.99  505O :  0.99
  427O :  0.98  736O :  0.95  676O :  0.95  358O :  0.95  377H :  0.91  211O :  0.90   61O :  0.89  464H :  0.86  295O :  0.84  115O :  0.84  245H :  0.84  461H :  0.80
  286O :  0.80  298O :  0.80  628O :  0.79  162H :  0.79  285H :  0.79  526O :  0.78  679O :  0.75  616O :  0.74  568O :  0.74  535O :  0.74   18H :  0.72  290H :  0.72
   64O :  0.70  277O :  0.70  625O :  0.69  459H :  0.69  199O :  0.69  481O :  0.67  523O :  0.67  545H :  0.67  318H :  0.64   24H :  0.64  111H :  0.63  642H :  0.63
  172O :  0.62  239H :  0.62  540H :  0.61  242H :  0.61   67O :  0.60  232O :  0.60  110H :  0.59  281H :  0.58  101H :  0.57   75H :  0.56   47H :  0.55  360H :  0.54
  201H :  0.54   78H :  0.53  249H :  0.52  620H :  0.52  382O :  0.52  262O :  0.51   97O :  0.51  483H :  0.50  234H :  0.49  513H :  0.49  447H :  0.48  575H :  0.48
  637O :  0.48  254H :  0.48  585H :  0.47  636H :  0.47   44H :  0.47  578H :  0.46  416H :  0.46  196O :  0.46  469O :  0.44  654H :  0.44  657H :  0.44   15H :  0.43
  477H :  0.42  324H :  0.42   74H :  0.42  221H :  0.42  153H :  0.41  576H :  0.41  218H :  0.41  348H :  0.41  739O :  0.41  661O :  0.40  667O :  0.40  746H :  0.40
  543H :  0.39  752H :  0.39   71H :  0.39  498H :  0.39   26H :  0.38  670O :  0.38  650H :  0.37  422H :  0.37   48H :  0.36  405H :  0.36  753H :  0.35  581H :  0.35
  566H :  0.35  152H :  0.34  353H :  0.34  113H :  0.34  534H :  0.33  601O :  0.33  126H :  0.32  550O :  0.32  407H :  0.32  137H :  0.32  182H :  0.32  635H :  0.32
  449H :  0.32  296H :  0.31  320H :  0.31  710H :  0.31   50H :  0.31  450H :  0.30  453H :  0.30  443H :  0.29  204H :  0.29  198H :  0.29  150H :  0.29  606H :  0.28
  567H :  0.28  713H :  0.28  102H :  0.28  203H :  0.28  252H :  0.28  439O :  0.27  588H :  0.27  465H :  0.27  255H :  0.27  128H :  0.27   27H :  0.26  527H :  0.26
  726H :  0.26  226O :  0.26  593H :  0.26  270H :  0.26   32H :  0.25  357H :  0.25  194H :  0.25  288H :  0.25  143H :  0.25  395H :  0.25  224H :  0.25  273H :  0.24
  333H :  0.24   36H :  0.24  332H :  0.23    6H :  0.23  428H :  0.23  501H :  0.23  123H :  0.23   89H :  0.22   57H :  0.22  257H :  0.22  305H :  0.22   38H :  0.22
  711H :  0.22  366H :  0.21  618H :  0.21  468H :  0.20  412O :  0.20  340O :  0.20    9H :  0.20  396H :  0.20  284H :  0.19  486H :  0.19  756H :  0.19  647H :  0.18
  108H :  0.18  345H :  0.18  547O :  0.18    2H :  0.18  517O :  0.18  611H :  0.18  437H :  0.18  158H :  0.18  287H :  0.18  372H :  0.18   42H :  0.17  141H :  0.17
  609H :  0.17  140H :  0.17  312H :  0.17  317H :  0.17  702H :  0.17  663H :  0.16  434H :  0.16   86H :  0.16  411H :  0.16  729H :  0.16  168H :  0.16  179H :  0.16
   21H :  0.15  651H :  0.15  230H :  0.15   96H :  0.15  529O :  0.15  425H :  0.15  731H :  0.15  236H :  0.14  500H :  0.14  368H :  0.14  402H :  0.14  426H :  0.14
  587H :  0.14  185H :  0.14  275H :  0.14  560H :  0.13  519H :  0.13  687H :  0.13   29H :  0.13  114H :  0.13  558H :  0.13  369H :  0.13  563H :  0.13  690H :  0.12
  716H :  0.12  326H :  0.12  116H :  0.12  515H :  0.12  714H :  0.12  129H :  0.11  419H :  0.11  741H :  0.11  479H :  0.11  536H :  0.11  189H :  0.11   12H :  0.11
  659H :  0.11  510H :  0.11  458H :  0.11  251H :  0.11  161H :  0.11  327H :  0.11  356H :  0.11  537H :  0.10  674H :  0.10  626H :  0.10  435H :  0.10  677H :  0.10
   35H :  0.10   39H :  0.10  282H :  0.10  698H :  0.10  485H :  0.10  666H :  0.10  371H :  0.09  164H :  0.09  291H :  0.09  743H :  0.09  645H :  0.09  594H :  0.09
  173H :  0.09  602H :  0.09  623H :  0.09  696H :  0.09  138H :  0.09  269H :  0.09  738H :  0.08   93H :  0.08  375H :  0.08  389H :  0.08  195H :  0.08  590H :  0.08
  378H :  0.08  243H :  0.08  303H :  0.08  683H :  0.08  134H :  0.08  300H :  0.08  518H :  0.07  572H :  0.07  720H :  0.07  309H :  0.07  362H :  0.07  176H :  0.07
  374H :  0.07  272H :  0.07   77H :  0.07
    7 LP   *******   0.00 -16.91495  -9.82814   4.27520  283O : 14.54  610O : 12.58  124O : 11.94  202O : 11.82   40O : 11.55   31O : 11.15  646O :  9.96  415O :  9.57  598O :  9.41  700O :  9.37  292O :  9.31  301O :  9.01
  343O :  8.82  640O :  8.60  106O :  8.53  160O :  8.40  313O :  7.45  463O :  7.17  583O :  7.03   52O :  6.85  220O :  6.82   13O :  6.47  151O :  6.44   19O :  6.36
  187O :  6.06   73O :  5.97  289O :  5.97    7O :  5.89  148O :  5.88  574O :  5.86  460O :  5.81  370O :  5.75  508O :  5.72  376O :  5.63  331O :  5.63  511O :  5.60
   91O :  5.58  631O :  5.44  349O :  5.36  433O :  5.34  751O :  5.24  103O :  5.18  214O :  5.11   10O :  5.08  337O :  5.04  397O :  5.03  424O :  4.87  217O :  4.86
  280O :  4.82  619O :  4.80  112O :  4.76  241O :  4.71  586O :  4.71   16O :  4.55  322O :  4.52  130O :  4.50  181O :  4.43  748O :  4.43  520O :  4.42  451O :  4.38
  613O :  4.32   22O :  4.22  223O :  4.20  352O :  4.18  244O :  4.18  562O :  4.16  436O :  4.13  703O :  4.09   82O :  4.07  430O :  3.98  502O :  3.93    4O :  3.93
  163O :  3.92  490O :  3.91  316O :  3.82  685O :  3.80  274O :  3.78  205O :  3.77   85O :  3.75  664O :  3.71  400O :  3.68  484O :  3.67   25O :  3.61  544O :  3.57
   43O :  3.48   79O :  3.43  364O :  3.43  580O :  3.43  346O :  3.41  622O :  3.21  730O :  3.16  379O :  3.15   46O :  3.10  118O :  3.07  325O :  3.02  709O :  3.00
  271O :  2.98  100O :  2.97  718O :  2.93  166O :  2.91  538O :  2.91   37O :  2.89  454O :  2.85  256O :  2.80  259O :  2.77  253O :  2.75  457O :  2.74  157O :  2.72
  310O :  2.67  418O :  2.66  448O :  2.66  472O :  2.63  394O :  2.58  145O :  2.55  754O :  2.54  142O :  2.53  238O :  2.51  724O :  2.48  559O :  2.44  190O :  2.39
  478O :  2.39  655O :  2.38  139O :  2.37  532O :  2.35  328O :  2.31  235O :  2.30  565O :  2.29  421O :  2.27  127O :  2.27    1O :  2.24  652O :  2.23  121O :  2.17
  109O :  2.16  445O :  2.16   76O :  2.13  367O :  2.13   58O :  2.08  727O :  2.07   88O :  2.05  682O :  2.04  391O :  2.03  487O :  2.02  334O :  2.00  442O :  1.98
  496O :  1.98  745O :  1.98  643O :  1.96  250O :  1.96  553O :  1.95  604O :  1.91  514O :  1.91  403O :  1.91  475O :  1.89  649O :  1.86   49O :  1.86  208O :  1.84
  556O :  1.83  409O :  1.82  304O :  1.80  541O :  1.78  673O :  1.78  175O :  1.75  634O :  1.75  268O :  1.74   94O :  1.72  697O :  1.70  319O :  1.69   34O :  1.69
  691O :  1.69   55O :  1.68  733O :  1.64  229O :  1.63   28O :  1.61  499O :  1.57  178O :  1.56  493O :  1.56  721O :  1.54  466O :  1.49  351H :  1.43  247O :  1.41
  265O :  1.40  355O :  1.37   14H :  1.34  361O :  1.33  184O :  1.32  315H :  1.29  406O :  1.28  193O :  1.27  589O :  1.24  133O :  1.24  388O :  1.23  373O :  1.23
  294H :  1.22  385O :  1.22  216H :  1.21  592O :  1.20  712O :  1.20  715O :  1.20  125H :  1.19  339H :  1.17  607O :  1.15  688O :  1.14  577O :  1.14  595O :  1.14
  188H :  1.13  307O :  1.12  571O :  1.11  694O :  1.10  154O :  1.10   70O :  1.07  169O :  1.07  742O :  1.06  136O :  1.05  658O :  1.00  706O :  0.99  505O :  0.99
  427O :  0.97  736O :  0.94  676O :  0.94  358O :  0.94  377H :  0.90  211O :  0.90   61O :  0.88  464H :  0.85  295O :  0.84  115O :  0.83  245H :  0.83  461H :  0.80
  286O :  0.79  298O :  0.79  628O :  0.78  162H :  0.78  285H :  0.78  526O :  0.78  679O :  0.75  616O :  0.74  568O :  0.73  535O :  0.73   18H :  0.72  290H :  0.71
   64O :  0.70  277O :  0.70  625O :  0.69  459H :  0.69  199O :  0.68  481O :  0.67  523O :  0.67  545H :  0.66  318H :  0.64   24H :  0.64  111H :  0.63  642H :  0.62
  172O :  0.62  239H :  0.62  540H :  0.61  242H :  0.60   67O :  0.60  232O :  0.60  110H :  0.59  281H :  0.58  101H :  0.56   75H :  0.56  360H :  0.54   47H :  0.54
  201H :  0.53   78H :  0.53  620H :  0.52  249H :  0.52  382O :  0.51  262O :  0.51   97O :  0.51  483H :  0.50  234H :  0.48  513H :  0.48  447H :  0.48  575H :  0.48
  637O :  0.48  254H :  0.48   44H :  0.47  585H :  0.47  636H :  0.47  578H :  0.46  416H :  0.45  196O :  0.45  469O :  0.44  654H :  0.44  657H :  0.43   15H :  0.42
  324H :  0.42  477H :  0.42  221H :  0.41   74H :  0.41  153H :  0.41  576H :  0.41  218H :  0.40  348H :  0.40  739O :  0.40  667O :  0.40  661O :  0.40  746H :  0.40
  543H :  0.39  752H :  0.39   71H :  0.39  498H :  0.39   26H :  0.38  670O :  0.38  650H :  0.37  422H :  0.37  405H :  0.36   48H :  0.36  753H :  0.35  581H :  0.35
  566H :  0.35  152H :  0.34  353H :  0.34  113H :  0.34  534H :  0.33  601O :  0.32  126H :  0.32  395H :  0.32  550O :  0.32  407H :  0.32  137H :  0.32  182H :  0.32
  635H :  0.32  449H :  0.32  296H :  0.31  320H :  0.31   50H :  0.31  710H :  0.31  450H :  0.29  453H :  0.29  443H :  0.29  198H :  0.28  150H :  0.28  606H :  0.28
  204H :  0.28  567H :  0.28  713H :  0.28  102H :  0.28  252H :  0.27  203H :  0.27  439O :  0.27  588H :  0.27  465H :  0.26  128H :  0.26  255H :  0.26   27H :  0.26
  527H :  0.26  726H :  0.26  226O :  0.26  593H :  0.26  270H :  0.26   32H :  0.25  357H :  0.25  194H :  0.25  288H :  0.25  143H :  0.25   36H :  0.24  224H :  0.24
  273H :  0.24  333H :  0.24  647H :  0.24  332H :  0.23    6H :  0.23  428H :  0.23  501H :  0.23  123H :  0.22   89H :  0.22   57H :  0.22  257H :  0.22  305H :  0.22
   38H :  0.21  711H :  0.21  366H :  0.21  618H :  0.21  468H :  0.20  412O :  0.20  340O :  0.20    9H :  0.20  284H :  0.19  486H :  0.19  756H :  0.19  396H :  0.18
  108H :  0.18  345H :  0.18  547O :  0.18    2H :  0.18  517O :  0.18  611H :  0.18  437H :  0.18  158H :  0.18  287H :  0.18  372H :  0.17  141H :  0.17  312H :  0.17
  609H :  0.17  140H :  0.17  317H :  0.17  702H :  0.17  663H :  0.16  434H :  0.16   86H :  0.16  411H :  0.16  729H :  0.16  168H :  0.16  179H :  0.15   21H :  0.15
  651H :  0.15  230H :  0.15  529O :  0.15   96H :  0.15  425H :  0.15  731H :  0.14  236H :  0.14  500H :  0.14  402H :  0.14  368H :  0.14  426H :  0.14  587H :  0.14
  185H :  0.14  275H :  0.13  560H :  0.13  519H :  0.13  687H :  0.13   29H :  0.13  114H :  0.13  558H :  0.13  369H :  0.13  563H :  0.12  690H :  0.12  716H :  0.12
  326H :  0.12  116H :  0.12  515H :  0.11  714H :  0.11   12H :  0.11  129H :  0.11  419H :  0.11  741H :  0.11  479H :  0.11  536H :  0.11  659H :  0.11  510H :  0.11
  458H :  0.11  189H :  0.11  251H :  0.11   42H :  0.11  161H :  0.11  327H :  0.10  356H :  0.10  537H :  0.10  674H :  0.10  626H :  0.10  435H :  0.10  677H :  0.10
   39H :  0.10  282H :  0.10  698H :  0.10  485H :  0.10   35H :  0.10  666H :  0.10  371H :  0.09  291H :  0.09  645H :  0.09  743H :  0.09  164H :  0.09  594H :  0.09
  173H :  0.09  602H :  0.09  623H :  0.09  696H :  0.09  138H :  0.09  269H :  0.08  738H :  0.08   93H :  0.08  375H :  0.08  389H :  0.08  195H :  0.08  590H :  0.08
  378H :  0.08  243H :  0.08  303H :  0.08  683H :  0.08  134H :  0.08  300H :  0.08  518H :  0.07  572H :  0.07  720H :  0.07  309H :  0.07  362H :  0.07  176H :  0.07
  374H :  0.07  272H :  0.07
    8 LP   *******   0.00 -84.08919 -20.76339  30.24861  283O : 14.32  610O : 12.37  124O : 11.74  202O : 11.52   31O : 10.98   40O : 10.47  343O : 10.12  646O :  9.79  415O :  9.41  598O :  9.26  700O :  9.22  292O :  9.15
  301O :  8.86  640O :  8.47  106O :  8.39  160O :  8.26  313O :  7.32  463O :  7.05  583O :  6.91   52O :  6.74  220O :  6.68   13O :  6.35  151O :  6.34   19O :  6.25
  187O :  5.98   73O :  5.87  289O :  5.87    7O :  5.80  148O :  5.78  574O :  5.76  460O :  5.72  370O :  5.65  508O :  5.63  376O :  5.54  331O :  5.53  511O :  5.51
   91O :  5.49  631O :  5.35  349O :  5.28  433O :  5.25   10O :  5.23  751O :  5.15  103O :  5.09  214O :  5.03  337O :  4.95  397O :  4.94  424O :  4.79  217O :  4.78
  280O :  4.74  619O :  4.72  112O :  4.68  241O :  4.64  586O :  4.63   16O :  4.48  322O :  4.47  130O :  4.42  181O :  4.36  748O :  4.35  520O :  4.35  451O :  4.30
  613O :  4.25   22O :  4.15  223O :  4.13  352O :  4.12  244O :  4.11  562O :  4.09  436O :  4.06  703O :  4.02   82O :  4.01  430O :  3.91  502O :  3.86  163O :  3.86
    4O :  3.86  490O :  3.85  316O :  3.75  685O :  3.74  274O :  3.71  205O :  3.70   85O :  3.69  484O :  3.68  664O :  3.65  400O :  3.62   25O :  3.55  544O :  3.51
   43O :  3.38   79O :  3.38  364O :  3.37  346O :  3.35  580O :  3.21  622O :  3.15  730O :  3.10  379O :  3.10   46O :  3.06  118O :  3.02  325O :  2.97  709O :  2.95
  271O :  2.93  100O :  2.92  718O :  2.88  166O :  2.86  538O :  2.86   37O :  2.84  454O :  2.80  256O :  2.76  259O :  2.73  253O :  2.71  457O :  2.70  157O :  2.67
  310O :  2.62  418O :  2.62  448O :  2.62  472O :  2.58  394O :  2.54  145O :  2.50  754O :  2.50  142O :  2.49  238O :  2.47  724O :  2.44  559O :  2.40  655O :  2.35
  190O :  2.35  478O :  2.35  139O :  2.33  532O :  2.32  328O :  2.27  235O :  2.25  565O :  2.25  421O :  2.24  127O :  2.23    1O :  2.21  652O :  2.20  121O :  2.14
  109O :  2.12  445O :  2.12   76O :  2.10  367O :  2.10   58O :  2.05  727O :  2.04   88O :  2.01  682O :  2.01  391O :  2.00  487O :  1.98  334O :  1.97  442O :  1.95
  745O :  1.94  643O :  1.94  250O :  1.93  553O :  1.92  604O :  1.88  514O :  1.88  403O :  1.88  496O :  1.88  475O :  1.86  649O :  1.83   49O :  1.82  208O :  1.81
  556O :  1.80  409O :  1.79  304O :  1.77  541O :  1.75  673O :  1.75  634O :  1.73  175O :  1.72  268O :  1.72   94O :  1.69   34O :  1.68  697O :  1.67  319O :  1.66
  691O :  1.66   55O :  1.65  733O :  1.61  229O :  1.61   28O :  1.59  499O :  1.54  178O :  1.54  493O :  1.53  721O :  1.51  466O :  1.47  351H :  1.40  247O :  1.39
  265O :  1.37  355O :  1.35   14H :  1.31  361O :  1.31  184O :  1.29  315H :  1.27  406O :  1.25  193O :  1.25  589O :  1.22  133O :  1.22  388O :  1.21  373O :  1.21
  294H :  1.20  385O :  1.20  216H :  1.19  592O :  1.18  712O :  1.18  715O :  1.18  125H :  1.18  339H :  1.15  607O :  1.13  577O :  1.12  688O :  1.12  188H :  1.12
  595O :  1.12  307O :  1.10  694O :  1.09  571O :  1.09  154O :  1.08   70O :  1.06  169O :  1.05  742O :  1.05  136O :  1.03  658O :  0.98  706O :  0.97  505O :  0.97
  427O :  0.95  736O :  0.93  676O :  0.93  358O :  0.93  377H :  0.89  211O :  0.88   61O :  0.87  464H :  0.84  295O :  0.82  115O :  0.82  245H :  0.82  461H :  0.78
  286O :  0.78  298O :  0.78  628O :  0.77  162H :  0.77  285H :  0.77  526O :  0.77  679O :  0.74  616O :  0.73  568O :  0.72  535O :  0.72   18H :  0.71  290H :  0.70
   64O :  0.69  277O :  0.69  625O :  0.68  459H :  0.68  199O :  0.67  481O :  0.66  523O :  0.65  545H :  0.65  318H :  0.63   24H :  0.63  111H :  0.62  642H :  0.61
  172O :  0.61  239H :  0.61  540H :  0.60  242H :  0.59   67O :  0.59  232O :  0.59  110H :  0.58  281H :  0.57  101H :  0.56   75H :  0.55   47H :  0.54  360H :  0.53
   78H :  0.52  201H :  0.52  249H :  0.51  620H :  0.51  382O :  0.51  262O :  0.50   97O :  0.50  483H :  0.49  234H :  0.48  513H :  0.48  447H :  0.47  575H :  0.47
  637O :  0.47  254H :  0.47  585H :  0.46  636H :  0.46   44H :  0.46  578H :  0.45  416H :  0.45  196O :  0.45  469O :  0.43  654H :  0.43  657H :  0.43   15H :  0.42
  477H :  0.41  324H :  0.41   74H :  0.41  221H :  0.41  153H :  0.40  576H :  0.40  218H :  0.40  348H :  0.40  739O :  0.40  661O :  0.39  667O :  0.39  746H :  0.39
  543H :  0.39  752H :  0.39   71H :  0.38  498H :  0.37   26H :  0.37  670O :  0.37  650H :  0.37  422H :  0.36   48H :  0.36  405H :  0.35  753H :  0.35  581H :  0.34
  566H :  0.34  152H :  0.34  353H :  0.33  113H :  0.33  534H :  0.32  601O :  0.32  126H :  0.32  395H :  0.32  550O :  0.31  407H :  0.31  137H :  0.31  182H :  0.31
  635H :  0.31  449H :  0.31  296H :  0.31  320H :  0.31  710H :  0.30   50H :  0.30  450H :  0.29  453H :  0.29  443H :  0.29  204H :  0.28  198H :  0.28  150H :  0.28
  606H :  0.28  567H :  0.27  713H :  0.27  102H :  0.27  203H :  0.27  252H :  0.27  439O :  0.26  588H :  0.26  465H :  0.26  255H :  0.26  128H :  0.26   27H :  0.26
  527H :  0.26  726H :  0.26  226O :  0.25  593H :  0.25  270H :  0.25   32H :  0.25  357H :  0.25  194H :  0.24  288H :  0.24  143H :  0.24  224H :  0.24  273H :  0.24
  333H :  0.24  647H :  0.24   36H :  0.23  332H :  0.23    6H :  0.23  428H :  0.23  501H :  0.22  123H :  0.22   89H :  0.22   57H :  0.22  257H :  0.22  305H :  0.21
   38H :  0.21  711H :  0.21  366H :  0.21  618H :  0.21  412O :  0.20  468H :  0.20  340O :  0.20  486H :  0.20    9H :  0.20  284H :  0.19  756H :  0.18  396H :  0.18
  108H :  0.18  547O :  0.18    2H :  0.18  517O :  0.17  611H :  0.17  437H :  0.17  158H :  0.17  287H :  0.17  372H :  0.17   42H :  0.17  141H :  0.17  609H :  0.17
  140H :  0.17  312H :  0.17  317H :  0.16  702H :  0.16  663H :  0.16  434H :  0.16   86H :  0.16  411H :  0.16  729H :  0.15  168H :  0.15  179H :  0.15   21H :  0.15
  651H :  0.15  230H :  0.15   96H :  0.14  529O :  0.14  425H :  0.14  731H :  0.14  236H :  0.14  500H :  0.14  368H :  0.14  402H :  0.14  426H :  0.14  587H :  0.14
  185H :  0.14  275H :  0.13  560H :  0.13  519H :  0.13  687H :  0.13  345H :  0.13   29H :  0.13  114H :  0.13  558H :  0.13  369H :  0.12  563H :  0.12  690H :  0.12
  716H :  0.12  326H :  0.12  116H :  0.11  515H :  0.11  714H :  0.11  129H :  0.11  419H :  0.11  741H :  0.11  479H :  0.11  536H :  0.11  189H :  0.11   12H :  0.11
  659H :  0.11  510H :  0.11  458H :  0.11  251H :  0.11  161H :  0.10  327H :  0.10  356H :  0.10  537H :  0.10  674H :  0.10  626H :  0.10  435H :  0.10  677H :  0.10
   35H :  0.10   39H :  0.10  282H :  0.09  698H :  0.09  666H :  0.09  371H :  0.09  291H :  0.09  645H :  0.09  743H :  0.09  164H :  0.09  485H :  0.09  594H :  0.09
  173H :  0.09  602H :  0.09  623H :  0.09  696H :  0.08  138H :  0.08  269H :  0.08  738H :  0.08   93H :  0.08  375H :  0.08  389H :  0.08  195H :  0.08  590H :  0.08
  378H :  0.08  243H :  0.08  303H :  0.08  683H :  0.08  134H :  0.08  300H :  0.08  518H :  0.07  572H :  0.07  720H :  0.07  309H :  0.07  362H :  0.07  176H :  0.07
  374H :  0.07
    9 LP   *******   0.00 -12.34428 -15.25044 -13.59632  283O : 14.05  202O : 12.35  610O : 12.14  124O : 11.51   31O : 10.76   40O : 10.22  646O :  9.61  415O :  9.23  598O :  9.08  700O :  9.04  292O :  8.97  301O :  8.69
  343O :  8.51  640O :  8.31  106O :  8.23  160O :  8.09  313O :  7.17  463O :  6.92  583O :  6.78   52O :  6.61  220O :  6.51   13O :  6.23  151O :  6.22   19O :  6.13
  187O :  5.86   73O :  5.76  289O :  5.75    7O :  5.68  148O :  5.67  574O :  5.65  460O :  5.61  370O :  5.54  508O :  5.52  376O :  5.43  331O :  5.43  511O :  5.39
   91O :  5.38  631O :  5.25  349O :  5.17  433O :  5.15   10O :  5.14  751O :  5.05  103O :  5.00  214O :  4.93  337O :  4.86  397O :  4.85  424O :  4.69  217O :  4.69
  280O :  4.65  619O :  4.63  112O :  4.59  241O :  4.55  586O :  4.54   16O :  4.39  322O :  4.38  130O :  4.34  181O :  4.28  748O :  4.27  520O :  4.27  451O :  4.22
  613O :  4.17   22O :  4.07  223O :  4.05  352O :  4.03  562O :  4.03  244O :  4.03  436O :  3.98  703O :  3.94   82O :  3.93  430O :  3.84  502O :  3.79    4O :  3.79
  163O :  3.78  490O :  3.78  316O :  3.68  685O :  3.67  274O :  3.64  205O :  3.64   85O :  3.62  664O :  3.58  400O :  3.55  484O :  3.54   25O :  3.48  544O :  3.45
   43O :  3.32   79O :  3.31  364O :  3.31  580O :  3.30  346O :  3.28  622O :  3.09   46O :  3.07  730O :  3.04  379O :  3.04  118O :  2.96  325O :  2.92  709O :  2.90
  271O :  2.87  100O :  2.86  718O :  2.83  166O :  2.80  538O :  2.80   37O :  2.79  256O :  2.77  454O :  2.75  259O :  2.68  253O :  2.66  457O :  2.64  157O :  2.62
  310O :  2.57  418O :  2.57  448O :  2.57  472O :  2.53  394O :  2.49  145O :  2.46  754O :  2.45  142O :  2.44  238O :  2.42  724O :  2.39  559O :  2.35  190O :  2.31
  655O :  2.30  478O :  2.30  139O :  2.29  532O :  2.27  328O :  2.22  235O :  2.22  565O :  2.21  421O :  2.19  127O :  2.19    1O :  2.16  652O :  2.15  121O :  2.10
  445O :  2.08  109O :  2.08   76O :  2.06  367O :  2.06   58O :  2.01  727O :  2.00   88O :  1.97  682O :  1.97  391O :  1.96  487O :  1.95  334O :  1.93  442O :  1.91
  496O :  1.91  745O :  1.91  643O :  1.89  250O :  1.89  553O :  1.88  604O :  1.85  514O :  1.85  403O :  1.84  475O :  1.82  649O :  1.79   49O :  1.79  208O :  1.77
  556O :  1.77  409O :  1.75  304O :  1.74  673O :  1.72  541O :  1.72  175O :  1.69  634O :  1.69  268O :  1.69   94O :  1.66  697O :  1.64  319O :  1.63  691O :  1.63
   55O :  1.62   34O :  1.61  733O :  1.58  229O :  1.57   28O :  1.55  499O :  1.52  178O :  1.51  493O :  1.50  721O :  1.48  466O :  1.44  351H :  1.37  247O :  1.37
  265O :  1.35  355O :  1.33   14H :  1.29  361O :  1.28  184O :  1.27  315H :  1.25  406O :  1.23  193O :  1.23  589O :  1.20  133O :  1.19  388O :  1.19  373O :  1.19
  385O :  1.17  294H :  1.17  216H :  1.17  592O :  1.16  712O :  1.16  715O :  1.16  125H :  1.15  339H :  1.13  607O :  1.11  577O :  1.10  688O :  1.10  595O :  1.10
  188H :  1.10  307O :  1.08  571O :  1.07  694O :  1.06  154O :  1.06   70O :  1.04  169O :  1.03  742O :  1.03  136O :  1.01  658O :  0.96  706O :  0.95  505O :  0.95
  427O :  0.94  736O :  0.91  676O :  0.91  358O :  0.91  377H :  0.87  211O :  0.87   61O :  0.85  464H :  0.82  295O :  0.81  115O :  0.80  245H :  0.80  461H :  0.77
  286O :  0.77  298O :  0.76  628O :  0.75  285H :  0.75  162H :  0.75  526O :  0.75  679O :  0.72  616O :  0.71  568O :  0.71  535O :  0.71   18H :  0.69  290H :  0.69
   64O :  0.67  277O :  0.67  625O :  0.66  459H :  0.66  199O :  0.66  481O :  0.65  523O :  0.64  545H :  0.64  318H :  0.62   24H :  0.62  642H :  0.60  172O :  0.60
  239H :  0.60  111H :  0.59  540H :  0.58  242H :  0.58   67O :  0.58  232O :  0.58  110H :  0.57  281H :  0.56  101H :  0.54   75H :  0.54   47H :  0.54  360H :  0.52
  201H :  0.51   78H :  0.51  249H :  0.50  620H :  0.50  382O :  0.50  262O :  0.49   97O :  0.49  483H :  0.48  513H :  0.47  234H :  0.47  447H :  0.46  575H :  0.46
  637O :  0.46  254H :  0.46  585H :  0.45  636H :  0.45  578H :  0.45   44H :  0.45  196O :  0.44  416H :  0.44  469O :  0.43  654H :  0.42  657H :  0.42   15H :  0.41
  477H :  0.41  324H :  0.40   74H :  0.40  221H :  0.40  153H :  0.39  576H :  0.39  218H :  0.39  348H :  0.39  739O :  0.39  667O :  0.39  661O :  0.39  746H :  0.38
  543H :  0.38  752H :  0.38   71H :  0.38  498H :  0.37   26H :  0.37  670O :  0.36  650H :  0.36  204H :  0.36  422H :  0.36  405H :  0.35   48H :  0.34  753H :  0.34
  581H :  0.34  566H :  0.34  152H :  0.33  353H :  0.32  113H :  0.32  534H :  0.32  126H :  0.31  395H :  0.31  550O :  0.31  407H :  0.31  137H :  0.31  182H :  0.31
  635H :  0.30  449H :  0.30  296H :  0.30  320H :  0.30  601O :  0.30   50H :  0.29  710H :  0.29  450H :  0.28  453H :  0.28  443H :  0.28  198H :  0.27  150H :  0.27
  606H :  0.27  567H :  0.27  713H :  0.27  102H :  0.27  252H :  0.26  439O :  0.26  588H :  0.26  465H :  0.26  255H :  0.25  128H :  0.25   27H :  0.25  527H :  0.25
  726H :  0.25  226O :  0.25  593H :  0.25  270H :  0.25  357H :  0.24   32H :  0.24  194H :  0.24  288H :  0.24  143H :  0.24  224H :  0.24  273H :  0.23  333H :  0.23
  647H :  0.23  257H :  0.23  332H :  0.23    6H :  0.23  428H :  0.22  501H :  0.22  123H :  0.22   89H :  0.22   57H :  0.21  305H :  0.21   29H :  0.21   38H :  0.21
  711H :  0.21  366H :  0.21  618H :  0.20  468H :  0.20  412O :  0.20  340O :  0.20    9H :  0.19  203H :  0.19  284H :  0.19  486H :  0.18  756H :  0.18  396H :  0.18
  108H :  0.18  547O :  0.17  345H :  0.17    2H :  0.17  517O :  0.17   36H :  0.17  611H :  0.17  437H :  0.17  158H :  0.17  287H :  0.17  372H :  0.17  141H :  0.17
  609H :  0.17  140H :  0.16   42H :  0.16  312H :  0.16  317H :  0.16  702H :  0.16  663H :  0.16  434H :  0.16   86H :  0.15  411H :  0.15  729H :  0.15  168H :  0.15
  179H :  0.15   21H :  0.15  651H :  0.14  230H :  0.14  529O :  0.14   96H :  0.14  425H :  0.14  731H :  0.14  236H :  0.14  500H :  0.14  368H :  0.14  402H :  0.14
  426H :  0.13  587H :  0.13  185H :  0.13  275H :  0.13  560H :  0.13  519H :  0.13  687H :  0.13  114H :  0.12  558H :  0.12  563H :  0.12  369H :  0.12  690H :  0.12
  716H :  0.12  326H :  0.12  116H :  0.11  515H :  0.11  714H :  0.11  129H :  0.11  419H :  0.11  741H :  0.11  479H :  0.11  536H :  0.11   12H :  0.11  189H :  0.11
  659H :  0.11  510H :  0.11  458H :  0.11  251H :  0.10  327H :  0.10  356H :  0.10  537H :  0.10  674H :  0.10  626H :  0.10  435H :  0.10  677H :  0.10   35H :  0.10
   39H :  0.10  161H :  0.09  282H :  0.09  698H :  0.09  485H :  0.09  666H :  0.09  371H :  0.09  291H :  0.09  645H :  0.09  743H :  0.09  164H :  0.09  594H :  0.09
  173H :  0.09  623H :  0.08  696H :  0.08  138H :  0.08  602H :  0.08  269H :  0.08  738H :  0.08   93H :  0.08  375H :  0.08  389H :  0.08  195H :  0.08  590H :  0.08
  378H :  0.08  243H :  0.08  303H :  0.08  683H :  0.07  134H :  0.07  300H :  0.07  518H :  0.07  572H :  0.07  720H :  0.07  362H :  0.07
[...]
   369   1 h    0.868 --   367 o    0.772
   370   8 o    1.856 --   372 h    0.879   371 h    0.854
   371   1 h    0.887 --   370 o    0.854
   372   1 h    0.899 --   370 o    0.879
   373   8 o    1.852 --   374 h    0.817   375 h    0.810
   374   1 h    0.891 --   373 o    0.817
   375   1 h    0.882 --   373 o    0.810
   376   8 o    1.840 --   377 h    0.831   378 h    0.813
   377   1 h    0.884 --   376 o    0.831
   378   1 h    0.879 --   376 o    0.813
   379   8 o    1.885 --   380 h    0.815   381 h    0.791
   380   1 h    0.885 --   379 o    0.815
   381   1 h    0.870 --   379 o    0.791
   382   8 o    1.858 --   384 h    0.864   383 h    0.785
   383   1 h    0.871 --   382 o    0.785
   384   1 h    0.884 --   382 o    0.864
   385   8 o    1.852 --   387 h    0.913   386 h    0.789
   386   1 h    0.879 --   385 o    0.789
   387   1 h    0.917 --   385 o    0.913
   388   8 o    1.849 --   389 h    0.807   390 h    0.798
   389   1 h    0.874 --   388 o    0.807
   390   1 h    0.887 --   388 o    0.798
   391   8 o    1.865 --   393 h    0.834   392 h    0.828
   392   1 h    0.873 --   391 o    0.828
   393   1 h    0.891 --   391 o    0.834
   394   8 o    1.871 --   395 h    0.859   396 h    0.793
   395   1 h    0.892 --   394 o    0.859
   396   1 h    0.870 --   394 o    0.793
   397   8 o    1.813 --   399 h    0.870   398 h    0.841
   398   1 h    0.890 --   397 o    0.841
   399   1 h    0.899 --   397 o    0.870
   400   8 o    1.846 --   402 h    0.858   401 h    0.812
   401   1 h    0.885 --   400 o    0.812
   402   1 h    0.895 --   400 o    0.858
   403   8 o    1.828 --   404 h    0.816   405 h    0.811
   404   1 h    0.886 --   403 o    0.816
   405   1 h    0.874 --   403 o    0.811
   406   8 o    1.859 --   407 h    0.829   408 h    0.806
   407   1 h    0.893 --   406 o    0.829
   408   1 h    0.877 --   406 o    0.806
   409   8 o    1.841 --   410 h    0.855   411 h    0.819
   410   1 h    0.885 --   409 o    0.855
   411   1 h    0.870 --   409 o    0.819
   412   8 o    1.869 --   413 h    0.869   414 h    0.777
   413   1 h    0.893 --   412 o    0.869
   414   1 h    0.867 --   412 o    0.777
   415   8 o    1.817 --   416 h    0.873   417 h    0.828
   416   1 h    0.903 --   415 o    0.873
   417   1 h    0.885 --   415 o    0.828
   418   8 o    1.847 --   419 h    0.882   420 h    0.810
   419   1 h    0.904 --   418 o    0.882
   420   1 h    0.876 --   418 o    0.810
   421   8 o    1.880 --   422 h    0.824   423 h    0.821
   422   1 h    0.881 --   421 o    0.824
   423   1 h    0.878 --   421 o    0.821
   424   8 o    1.838 --   425 h    0.857   426 h    0.801
   425   1 h    0.893 --   424 o    0.857
   426   1 h    0.873 --   424 o    0.801
   427   8 o    1.836 --   429 h    0.854   428 h    0.806
   428   1 h    0.886 --   427 o    0.806
   429   1 h    0.896 --   427 o    0.854
   430   8 o    1.847 --   431 h    0.898   432 h    0.767
   431   1 h    0.911 --   430 o    0.898
   432   1 h    0.870 --   430 o    0.767
   433   8 o    1.854 --   434 h    0.915   435 h    0.807
   434   1 h    0.918 --   433 o    0.915
   435   1 h    0.879 --   433 o    0.807
   436   8 o    1.873 --   437 h    0.829   438 h    0.822
   437   1 h    0.893 --   436 o    0.829
   438   1 h    0.873 --   436 o    0.822
   439   8 o    1.836 --   441 h    0.876   440 h    0.824
   440   1 h    0.882 --   439 o    0.824
   441   1 h    0.902 --   439 o    0.876
   442   8 o    1.830 --   443 h    0.828   444 h    0.807
   443   1 h    0.885 --   442 o    0.828
   444   1 h    0.873 --   442 o    0.807
   445   8 o    1.854 --   446 h    0.866   447 h    0.807
   446   1 h    0.899 --   445 o    0.866
   447   1 h    0.884 --   445 o    0.807
   448   8 o    1.836 --   450 h    0.877   449 h    0.870
   449   1 h    0.895 --   448 o    0.870
   450   1 h    0.897 --   448 o    0.877
   451   8 o    1.862 --   452 h    0.863   453 h    0.816
   452   1 h    0.893 --   451 o    0.863
   453   1 h    0.881 --   451 o    0.816
   454   8 o    1.848 --   456 h    0.852   455 h    0.782
   455   1 h    0.860 --   454 o    0.782
   456   1 h    0.891 --   454 o    0.852
   457   8 o    1.839 --   459 h    0.837   458 h    0.806
   458   1 h    0.878 --   457 o    0.806
   459   1 h    0.896 --   457 o    0.837
   460   8 o    1.882 --   461 h    0.833   462 h    0.779
   461   1 h    0.885 --   460 o    0.833
   462   1 h    0.865 --   460 o    0.779
   463   8 o    1.835 --   464 h    0.838   465 h    0.784
   464   1 h    0.890 --   463 o    0.838
   465   1 h    0.883 --   463 o    0.784
   466   8 o    1.811 --   468 h    0.856   467 h    0.842
   467   1 h    0.895 --   466 o    0.842
   468   1 h    0.893 --   466 o    0.856
   469   8 o    1.838 --   471 h    0.875   470 h    0.837
   470   1 h    0.891 --   469 o    0.837
   471   1 h    0.905 --   469 o    0.875
   472   8 o    1.856 --   474 h    0.869   473 h    0.822
   473   1 h    0.887 --   472 o    0.822
   474   1 h    0.897 --   472 o    0.869
   475   8 o    1.861 --   477 h    0.814   476 h    0.799
   476   1 h    0.867 --   475 o    0.799
   477   1 h    0.883 --   475 o    0.814
   478   8 o    1.861 --   479 h    0.832   480 h    0.821
   479   1 h    0.883 --   478 o    0.832
   480   1 h    0.882 --   478 o    0.821
   481   8 o    1.839 --   482 h    0.848   483 h    0.815
   482   1 h    0.896 --   481 o    0.848
   483   1 h    0.881 --   481 o    0.815
   484   8 o    1.856 --   485 h    0.880   486 h    0.815
   485   1 h    0.903 --   484 o    0.880
   486   1 h    0.877 --   484 o    0.815
   487   8 o    1.831 --   489 h    0.833   488 h    0.821
   488   1 h    0.889 --   487 o    0.821
   489   1 h    0.893 --   487 o    0.833
   490   8 o    1.801 --   491 h    0.846   492 h    0.834
   491   1 h    0.894 --   490 o    0.846
   492   1 h    0.891 --   490 o    0.834
   493   8 o    1.806 --   494 h    0.885   495 h    0.825
   494   1 h    0.903 --   493 o    0.885
   495   1 h    0.891 --   493 o    0.825
   496   8 o    1.869 --   497 h    0.866   498 h    0.841
   497   1 h    0.892 --   496 o    0.866
   498   1 h    0.882 --   496 o    0.841
   499   8 o    1.844 --   501 h    0.897   500 h    0.836
   500   1 h    0.889 --   499 o    0.836
   501   1 h    0.907 --   499 o    0.897
   502   8 o    1.857 --   503 h    0.897   504 h    0.819
   503   1 h    0.908 --   502 o    0.897
   504   1 h    0.879 --   502 o    0.819
   505   8 o    1.840 --   507 h    0.863   506 h    0.842
   506   1 h    0.889 --   505 o    0.842
   507   1 h    0.897 --   505 o    0.863
   508   8 o    1.811 --   509 h    0.848   510 h    0.824
   509   1 h    0.884 --   508 o    0.848
   510   1 h    0.879 --   508 o    0.824
   511   8 o    1.831 --   512 h    0.887   513 h    0.809
   512   1 h    0.907 --   511 o    0.887
   513   1 h    0.872 --   511 o    0.809
   514   8 o    1.849 --   516 h    0.865   515 h    0.844
   515   1 h    0.887 --   514 o    0.844
   516   1 h    0.893 --   514 o    0.865
   517   8 o    1.858 --   518 h    0.850   519 h    0.843
   518   1 h    0.893 --   517 o    0.850
   519   1 h    0.893 --   517 o    0.843
   520   8 o    1.847 --   522 h    0.882   521 h    0.800
   521   1 h    0.875 --   520 o    0.800
   522   1 h    0.901 --   520 o    0.882
   523   8 o    1.845 --   524 h    0.864   525 h    0.853
   524   1 h    0.893 --   523 o    0.864
   525   1 h    0.889 --   523 o    0.853
   526   8 o    1.851 --   528 h    0.854   527 h    0.833
   527   1 h    0.889 --   526 o    0.833
   528   1 h    0.895 --   526 o    0.854
   529   8 o    1.859 --   531 h    0.842   530 h    0.785
   530   1 h    0.876 --   529 o    0.785
   531   1 h    0.890 --   529 o    0.842
   532   8 o    1.845 --   533 h    0.827   534 h    0.804
   533   1 h    0.883 --   532 o    0.827
   534   1 h    0.884 --   532 o    0.804
   535   8 o    1.841 --   537 h    0.848   536 h    0.840
   536   1 h    0.886 --   535 o    0.840
   537   1 h    0.896 --   535 o    0.848
   538   8 o    1.842 --   539 h    0.859   540 h    0.845
   539   1 h    0.895 --   538 o    0.859
   540   1 h    0.890 --   538 o    0.845
   541   8 o    1.847 --   542 h    0.864   543 h    0.830
   542   1 h    0.895 --   541 o    0.864
   543   1 h    0.886 --   541 o    0.830
   544   8 o    1.855 --   546 h    0.913   545 h    0.841
   545   1 h    0.888 --   544 o    0.841
   546   1 h    0.917 --   544 o    0.913
   547   8 o    1.875 --   548 h    0.819   549 h    0.818
   548   1 h    0.887 --   547 o    0.819
   549   1 h    0.889 --   547 o    0.818
   550   8 o    1.868 --   551 h    0.835   552 h    0.791
   551   1 h    0.892 --   550 o    0.835
   552   1 h    0.876 --   550 o    0.791
   553   8 o    1.861 --   554 h    0.840   555 h    0.809
   554   1 h    0.896 --   553 o    0.840
   555   1 h    0.876 --   553 o    0.809
   556   8 o    1.869 --   558 h    0.850   557 h    0.831
   557   1 h    0.888 --   556 o    0.831
   558   1 h    0.882 --   556 o    0.850
   559   8 o    1.861 --   561 h    0.840   560 h    0.835
   560   1 h    0.891 --   559 o    0.835
   561   1 h    0.898 --   559 o    0.840
   562   8 o    1.847 --   563 h    0.838   564 h    0.802
   563   1 h    0.896 --   562 o    0.838
   564   1 h    0.872 --   562 o    0.802
   565   8 o    1.868 --   566 h    0.817   567 h    0.811
   566   1 h    0.888 --   565 o    0.817
   567   1 h    0.888 --   565 o    0.811
   568   8 o    1.865 --   569 h    0.866   570 h    0.782
   569   1 h    0.897 --   568 o    0.866
   570   1 h    0.871 --   568 o    0.782
   571   8 o    1.866 --   572 h    0.886   573 h    0.815
   572   1 h    0.901 --   571 o    0.886
   573   1 h    0.873 --   571 o    0.815
   574   8 o    1.855 --   575 h    0.887   576 h    0.783
   575   1 h    0.904 --   574 o    0.887
   576   1 h    0.870 --   574 o    0.783
   577   8 o    1.835 --   578 h    0.844   579 h    0.832
   578   1 h    0.895 --   577 o    0.844
   579   1 h    0.887 --   577 o    0.832
   580   8 o    1.832 --   581 h    0.838   582 h    0.825
   581   1 h    0.889 --   580 o    0.838
   582   1 h    0.894 --   580 o    0.825
   583   8 o    1.867 --   584 h    0.883   585 h    0.848
   584   1 h    0.899 --   583 o    0.883
   585   1 h    0.891 --   583 o    0.848
   586   8 o    1.851 --   587 h    0.886   588 h    0.837
   587   1 h    0.902 --   586 o    0.886
   588   1 h    0.891 --   586 o    0.837
   589   8 o    1.831 --   590 h    0.861   591 h    0.808
   590   1 h    0.899 --   589 o    0.861
   591   1 h    0.877 --   589 o    0.808
   592   8 o    1.816 --   593 h    0.859   594 h    0.832
   593   1 h    0.895 --   592 o    0.859
   594   1 h    0.883 --   592 o    0.832
   595   8 o    1.855 --   596 h    0.876   597 h    0.864
   596   1 h    0.898 --   595 o    0.876
   597   1 h    0.894 --   595 o    0.864
   598   8 o    1.887 --   600 h    0.877   599 h    0.775
   599   1 h    0.869 --   598 o    0.775
   600   1 h    0.899 --   598 o    0.877
   601   8 o    1.821 --   603 h    0.857   602 h    0.847
   602   1 h    0.890 --   601 o    0.847
   603   1 h    0.897 --   601 o    0.857
   604   8 o    1.851 --   606 h    0.888   605 h    0.835
   605   1 h    0.891 --   604 o    0.835
   606   1 h    0.901 --   604 o    0.888
   607   8 o    1.851 --   609 h    0.870   608 h    0.846
   608   1 h    0.892 --   607 o    0.846
   609   1 h    0.896 --   607 o    0.870
   610   8 o    1.821 --   612 h    0.811   611 h    0.807
   611   1 h    0.884 --   610 o    0.807
   612   1 h    0.885 --   610 o    0.811
   613   8 o    1.844 --   614 h    0.853   615 h    0.852
   614   1 h    0.897 --   613 o    0.853
   615   1 h    0.888 --   613 o    0.852
   616   8 o    1.846 --   618 h    0.891   617 h    0.779
   617   1 h    0.872 --   616 o    0.779
   618   1 h    0.905 --   616 o    0.891
   619   8 o    1.874 --   621 h    0.860   620 h    0.804
   620   1 h    0.883 --   619 o    0.804
   621   1 h    0.892 --   619 o    0.860
   622   8 o    1.824 --   624 h    0.873   623 h    0.853
   623   1 h    0.893 --   622 o    0.853
   624   1 h    0.905 --   622 o    0.873
   625   8 o    1.858 --   627 h    0.852   626 h    0.840
   626   1 h    0.892 --   625 o    0.840
   627   1 h    0.897 --   625 o    0.852
   628   8 o    1.829 --   630 h    0.832   629 h    0.827
   629   1 h    0.882 --   628 o    0.827
   630   1 h    0.881 --   628 o    0.832
   631   8 o    1.847 --   633 h    0.876   632 h    0.845
   632   1 h    0.890 --   631 o    0.845
   633   1 h    0.895 --   631 o    0.876
   634   8 o    1.856 --   635 h    0.823   636 h    0.819
   635   1 h    0.891 --   634 o    0.823
   636   1 h    0.886 --   634 o    0.819
   637   8 o    1.858 --   638 h    0.832   639 h    0.821
   638   1 h    0.894 --   637 o    0.832
   639   1 h    0.885 --   637 o    0.821
   640   8 o    1.861 --   641 h    0.827   642 h    0.804
   641   1 h    0.884 --   640 o    0.827
   642   1 h    0.880 --   640 o    0.804
   643   8 o    1.870 --   644 h    0.901   645 h    0.789
   644   1 h    0.910 --   643 o    0.901
   645   1 h    0.868 --   643 o    0.789
   646   8 o    1.851 --   648 h    0.919   647 h    0.824
   647   1 h    0.881 --   646 o    0.824
   648   1 h    0.924 --   646 o    0.919
   649   8 o    1.850 --   651 h    0.874   650 h    0.811
   650   1 h    0.880 --   649 o    0.811
   651   1 h    0.902 --   649 o    0.874
   652   8 o    1.825 --   654 h    0.876   653 h    0.831
   653   1 h    0.886 --   652 o    0.831
   654   1 h    0.901 --   652 o    0.876
   655   8 o    1.853 --   656 h    0.839   657 h    0.833
   656   1 h    0.884 --   655 o    0.839
   657   1 h    0.885 --   655 o    0.833
   658   8 o    1.862 --   660 h    0.913   659 h    0.785
   659   1 h    0.876 --   658 o    0.785
   660   1 h    0.917 --   658 o    0.913
   661   8 o    1.881 --   663 h    0.852   662 h    0.808
   662   1 h    0.873 --   661 o    0.808
   663   1 h    0.878 --   661 o    0.852
   664   8 o    1.827 --   665 h    0.856   666 h    0.847
   665   1 h    0.899 --   664 o    0.856
   666   1 h    0.889 --   664 o    0.847
   667   8 o    1.850 --   668 h    0.916   669 h    0.790
   668   1 h    0.922 --   667 o    0.916
   669   1 h    0.881 --   667 o    0.790
   670   8 o    1.876 --   672 h    0.861   671 h    0.824
   671   1 h    0.870 --   670 o    0.824
   672   1 h    0.896 --   670 o    0.861
   673   8 o    1.818 --   675 h    0.863   674 h    0.814
   674   1 h    0.883 --   673 o    0.814
   675   1 h    0.901 --   673 o    0.863
   676   8 o    1.808 --   678 h    0.867   677 h    0.832
   677   1 h    0.890 --   676 o    0.832
   678   1 h    0.899 --   676 o    0.867
   679   8 o    1.823 --   681 h    0.831   680 h    0.816
   680   1 h    0.884 --   679 o    0.816
   681   1 h    0.893 --   679 o    0.831
   682   8 o    1.868 --   683 h    0.838   684 h    0.820
   683   1 h    0.887 --   682 o    0.838
   684   1 h    0.884 --   682 o    0.820
   685   8 o    1.858 --   686 h    0.864   687 h    0.854
   686   1 h    0.897 --   685 o    0.864
   687   1 h    0.900 --   685 o    0.854
   688   8 o    1.816 --   689 h    0.831   690 h    0.794
   689   1 h    0.894 --   688 o    0.831
   690   1 h    0.885 --   688 o    0.794
   691   8 o    1.830 --   693 h    0.834   692 h    0.818
   692   1 h    0.892 --   691 o    0.818
   693   1 h    0.892 --   691 o    0.834
   694   8 o    1.811 --   696 h    0.855   695 h    0.841
   695   1 h    0.896 --   694 o    0.841
   696   1 h    0.895 --   694 o    0.855
   697   8 o    1.837 --   699 h    0.871   698 h    0.802
   698   1 h    0.877 --   697 o    0.802
   699   1 h    0.904 --   697 o    0.871
   700   8 o    1.846 --   702 h    0.858   701 h    0.807
   701   1 h    0.878 --   700 o    0.807
   702   1 h    0.894 --   700 o    0.858
   703   8 o    1.874 --   704 h    0.833   705 h    0.799
   704   1 h    0.885 --   703 o    0.833
   705   1 h    0.869 --   703 o    0.799
   706   8 o    1.850 --   707 h    0.844   708 h    0.813
   707   1 h    0.888 --   706 o    0.844
   708   1 h    0.874 --   706 o    0.813
   709   8 o    1.865 --   711 h    0.894   710 h    0.849
   710   1 h    0.882 --   709 o    0.849
   711   1 h    0.905 --   709 o    0.894
   712   8 o    1.855 --   714 h    0.872   713 h    0.798
   713   1 h    0.871 --   712 o    0.798
   714   1 h    0.900 --   712 o    0.872
   715   8 o    1.845 --   717 h    0.879   716 h    0.846
   716   1 h    0.886 --   715 o    0.846
   717   1 h    0.898 --   715 o    0.879
   718   8 o    1.829 --   719 h    0.903   720 h    0.839
   719   1 h    0.912 --   718 o    0.903
   720   1 h    0.880 --   718 o    0.839
   721   8 o    1.842 --   723 h    0.857   722 h    0.842
   722   1 h    0.892 --   721 o    0.842
   723   1 h    0.895 --   721 o    0.857
   724   8 o    1.824 --   726 h    0.825   725 h    0.810
   725   1 h    0.881 --   724 o    0.810
   726   1 h    0.894 --   724 o    0.825
   727   8 o    1.889 --   728 h    0.848   729 h    0.830
   728   1 h    0.887 --   727 o    0.848
   729   1 h    0.874 --   727 o    0.830
   730   8 o    1.880 --   732 h    0.915   731 h    0.807
   731   1 h    0.877 --   730 o    0.807
   732   1 h    0.918 --   730 o    0.915
   733   8 o    1.865 --   734 h    0.910   735 h    0.813
   734   1 h    0.916 --   733 o    0.910
   735   1 h    0.877 --   733 o    0.813
   736   8 o    1.831 --   737 h    0.865   738 h    0.827
   737   1 h    0.901 --   736 o    0.865
   738   1 h    0.891 --   736 o    0.827
   739   8 o    1.840 --   741 h    0.884   740 h    0.861
   740   1 h    0.892 --   739 o    0.861
   741   1 h    0.901 --   739 o    0.884
   742   8 o    1.848 --   743 h    0.856   744 h    0.844
   743   1 h    0.892 --   742 o    0.856
   744   1 h    0.891 --   742 o    0.844
   745   8 o    1.891 --   746 h    0.834   747 h    0.770
   746   1 h    0.882 --   745 o    0.834
   747   1 h    0.869 --   745 o    0.770
   748   8 o    1.863 --   749 h    0.813   750 h    0.802
   749   1 h    0.883 --   748 o    0.813
   750   1 h    0.870 --   748 o    0.802
   751   8 o    1.779 --   753 h    0.839   752 h    0.791
   752   1 h    0.877 --   751 o    0.791
   753   1 h    0.894 --   751 o    0.839
   754   8 o    1.851 --   756 h    0.851   755 h    0.848
   755   1 h    0.886 --   754 o    0.848
   756   1 h    0.887 --   754 o    0.851
 ---------------------------------------------------------------------------

Topologies differ in total number of bonds
Writing topology from bond orders to xtbtopo.mol

molecular dipole:
                 x           y           z       tot (Debye)
 q only:        8.838      -1.514       0.703
   full:       11.252      -2.205       0.348      29.157
molecular quadrupole (traceless):
                xx          xy          yy          xz          yz          zz
 q only:       36.410      33.540     -42.424     107.939     -55.857       6.014
  q+dip:       46.940      68.629     -64.193     154.858     -79.743      17.253
   full:       48.323      69.654     -65.168     154.378     -81.324      16.845


           -------------------------------------------------
          | TOTAL ENERGY            -1283.293192785401 Eh   |
          | GRADIENT NORM               0.106746177338 Eh/α |
          | HOMO-LUMO GAP               5.871495951896 eV   |
           -------------------------------------------------

------------------------------------------------------------------------
 * finished run on 2022/11/24 at 12:22:38.738     
------------------------------------------------------------------------
 total:
 * wall-time:     0 d,  0 h,  0 min, 57.904 sec
 *  cpu-time:     0 d,  0 h,  1 min, 13.989 sec
 * ratio c/w:     1.278 speedup
 SCF:
 * wall-time:     0 d,  0 h,  0 min, 56.883 sec
 *  cpu-time:     0 d,  0 h,  1 min, 12.246 sec
 * ratio c/w:     1.270 speedup

