756
 energy: -1283.279321534476 gnorm: 0.017595762170 xtb: 6.5.1 (579679a)
o            6.64843192707804       -7.28461200255510       -0.39169589465969
h            6.14539255844841       -6.82653680065416       -1.08118770679078
h            7.55470982239633       -7.35572473315726       -0.71649383842590
o           -0.74090778136076        3.22024912483457        4.65895275975578
h            0.06767720462122        2.85985774467053        5.06873527093768
h           -0.48175542700393        3.58855272836484        3.79409256409528
o           -1.50107582783444       -2.72564232452284       -1.93744022914981
h           -0.78310846134555       -3.04340685874158       -2.50403609918312
h           -1.82463069001629       -3.55265993649447       -1.50745630794260
o           -4.69254103384008        2.80981346001368       -0.87939087161256
h           -3.74616575394167        2.71660845036109       -1.10341807452803
h           -5.20415089747425        2.55941615854491       -1.66208665509657
o           -2.25683246041783        2.47239286771855        1.50820055207336
h           -2.48148632007502        3.40863491045708        1.41232546316841
h           -3.07232780365839        2.02464416245951        1.80723455213012
o           -4.28769324190056       -2.89011909066345        3.35444157668467
h           -4.56807694358719       -1.95809613483341        3.49470613577163
h           -5.04750117400786       -3.41171671877106        3.65168510370731
o            0.01621266699594       -4.55029759573658       -3.20370086056994
h           -0.23945226598425       -5.47580670627094       -3.30368306489383
h            0.79228481839437       -4.56937184786729       -2.59836188973163
o            0.25419470391641       -6.05535674740189       -0.34144992482104
h            0.44024726955505       -6.88128928877398        0.14206589771940
h            0.77416405627553       -5.37746339019474        0.12423554097404
o           -1.09033859214168       -3.47392596399945        1.18702303187164
h           -0.95288204089451       -4.29941940351271        1.67561238824171
h           -2.02793655245398       -3.47180572799604        0.95371940601657
o            0.54257485316130        2.38785168116217       -5.44325468629061
h           -0.38188071187032        2.13513469790836       -5.26670989437003
h            0.85650587033616        2.74087898740953       -4.57937511183910
o           -2.69617388405707       -1.01046899785149       -3.61141279454384
h           -2.26880739880661       -1.60405693608053       -2.96624185370082
h           -3.50105091178271       -1.46519153136390       -3.92243938078741
o           -1.46533717245042        4.52377032409765       -4.07623329241912
h           -1.28922902068909        4.98484738262061       -4.90797651265252
h           -1.76295074143887        3.62797218000732       -4.30785299322995
o           -3.79735899879213       -3.64179960462434        0.86515100533384
h           -4.68849077321538       -3.77769739591649        0.49503482517230
h           -3.96827167673527       -3.36117752775988        1.79055582687762
o           -2.16448152148584        2.90791435451247       -1.68319268863835
h           -2.10861521106893        2.59516187852831       -2.59441076699817
h           -2.02280100003051        3.87385478969518       -1.70601345492090
o           -0.01845273868826        2.75044926332114       -0.01825159850660
h           -0.82831351995168        2.67951090190280       -0.55576746873727
h            0.51205924679290        3.47130146184308       -0.40706972493303
o           -0.23303442777955        0.77997566913621       -2.61158347670473
h            0.37772921475559        1.52293265300655       -2.55012002400714
h            0.28238993190094       -0.03089215433412       -2.78952802169563
o           -2.01964084672353       -0.82693491667946        2.53225031786505
h           -2.35569085144607       -0.01564885634840        2.94454086561439
h           -2.32551050674588       -1.55721347512622        3.07359482394075
o           -5.24195751176676       -1.07341199011175        6.92960790649132
h           -5.90112758811059       -0.40245966346089        6.68103581205337
h           -5.49221475894853       -1.83162297166750        6.37568863058236
o           -0.41475956881975       -5.91349749006329        2.44610491775756
h           -0.30727376519210       -6.10285160389546        3.39640407559171
h            0.47822374493156       -5.69671342257558        2.13154175844187
o           -3.47212409796678        0.97249807767468        6.69377510517123
h           -3.97701142552470        0.15860733228483        6.88123061087957
h           -2.59323466120747        0.92432775084370        7.11252675692073
o            0.83240979267138       -0.96078034256137        2.13310432799707
h            0.44871746516936       -1.81647194247286        2.35337425176108
h            0.16188721998033       -0.27621863387312        2.35809722552258
o            2.20656721298094        2.20911300674509        2.20892295996248
h            2.58375325098693        1.51797497736671        2.77925439834880
h            2.23534956581100        3.01813884198620        2.74518475620956
o            0.84561912364574       -2.67840022040581       -0.45608186338595
h            0.19304327219018       -3.01293896336835        0.19228827286017
h            1.31074123409312       -3.46002369528933       -0.80639096868551
o            0.92528066765505        5.22092680101761       -0.59128997524201
h            1.66836389661398        5.21892984220287       -1.22088975082958
h            1.28013659333248        5.58720125953578        0.22800645104620
o           -1.42593951340554       -1.62356089607071        7.69340622272823
h           -1.26004718719664       -0.73624708889308        8.03569292797178
h           -1.97251536769577       -1.48964489309498        6.89442889745510
o           -4.87309048798890       -0.37775730495253        3.94042820131866
h           -4.76107126348169        0.28657417071258        3.23591943418109
h           -5.62267818534452       -0.08331613467037        4.48788270962726
o           -6.93539421655474        1.38708294291030        0.32882114959320
h           -6.29995604470844        2.01945504594085       -0.03174756825466
h           -6.96232185805634        1.56443781205586        1.29494590975849
o            2.72196080596449        3.07392963900985       -0.26964394398334
h            3.30543330603137        3.83053714031387       -0.10782372629628
h            2.51087791274835        2.71618263560068        0.60663329601810
o           -4.16096046485854       -3.77756652702825       -2.26257482858516
h           -5.03090736264734       -3.40035046722532       -2.05132351758412
h           -3.79429680827647       -4.14664811558601       -1.44868722759488
o            1.04405576893545       -1.54952561883968       -2.92533555559610
h            1.99562893445126       -1.30010894767964       -2.78318077548480
h            0.81235736303182       -1.93888879181576       -2.06629912089472
o           -4.98655787946187       -5.89083522126569       -3.62903747790831
h           -4.71734446753839       -5.07772454850371       -3.14052108613147
h           -4.97669443007671       -5.63872577755532       -4.57774397559039
o           -7.29268649690600       -0.37085671579302       -1.63340100105774
h           -7.07176058360264        0.24636296414302       -0.91197319538997
h           -7.16890405249016        0.09351566182401       -2.47637343684918
o            1.52060166602298        2.15790622999566        5.76975193719935
h            1.73386370103716        1.48607186132649        5.08433109719050
h            2.31612402361697        2.70064669254179        5.88396240750300
o            3.21670072716380       -2.11230602422652        0.53584162858593
h            2.29190788806336       -2.27637970670434        0.24013242162123
h            3.41519373164843       -1.19943595632000        0.26511251310378
o            3.17453320177596       -2.25780588842734        3.17000970779573
h            3.23961517363826       -2.32496998739617        2.18853912035358
h            2.23954349452148       -2.39600268410610        3.37382201188681
o            2.47211830504397        4.31180083226377        3.84001364533472
h            2.16621744922493        4.71762416001293        4.67901494029457
h            3.39286024812024        4.03131690268616        3.94323600285819
o           -4.34689944510764        3.35103519150105       -4.09354960771246
h           -3.81736004143665        3.21078048151326       -4.89136599429325
h           -4.35557889110212        2.50100197856463       -3.62550275703634
o           -6.92805385493552        6.16201557790648       -2.98139302199498
h           -6.48035065247229        6.22933503956051       -3.83598736010859
h           -6.24510300739764        5.82303805165587       -2.36117480713731
o            1.64999972251761       -4.26174632120757        5.77623517199797
h            2.59345074068729       -4.27532748674771        5.53622918406514
h            1.46405450266911       -3.41985292471629        6.23451117218024
o           -1.88809643092787       -3.96813295874826        3.97756187277335
h           -1.66992402396926       -3.90585270312623        4.92896197200525
h           -2.76155606049113       -3.55999255651410        3.84120904452383
o            0.66620273869149       -3.30855826384143        3.52473091318608
h           -0.29429388859653       -3.48733588035496        3.51329164894701
h            0.97787121367609       -3.73439542343387        4.35583757797829
o           -0.25952718142186        1.30228890867733        2.69798881438867
h            0.56029180681760        1.76455713818941        2.44718450565732
h           -1.00377760387262        1.75273862938592        2.24146635684352
o           -0.37192893679351       -2.64773254055107       -7.07895305063578
h            0.22438896308171       -2.97828745028301       -6.36976910373174
h            0.22331902078126       -2.19558771899995       -7.69721152737545
o            4.12899445762396       -4.12524265927200        4.74771159522126
h            3.88772055100875       -3.43961180908294        4.07432408169594
h            4.74555330052138       -3.70894805679461        5.36572945168317
o           -7.15757993804088        2.15939414405758        2.87233865611305
h           -6.33133068919768        2.48366584127300        3.26465418521487
h           -7.71752351689071        2.94300377295681        2.73015159720473
o           -8.50018769557749        4.49812796067700        2.50790525482411
h           -7.83485290810529        5.18087886173318        2.66702209836163
h           -9.07476183697011        4.81302753606152        1.77973669588101
o           -8.50843673191239       -2.98722113635426       -0.08095550378906
h           -7.76016109363490       -2.55175559475559        0.37602199871356
h           -9.32978188821050       -2.62872430741452        0.29768202488177
o            2.21977180015624       -6.91048939996527        3.16248260289430
h            3.12691215869434       -6.85582826933622        3.48396475386790
h            1.62796590126197       -6.86819293498940        3.92847525452774
o            5.77397367810776       -2.94378264198435        6.59212736230183
h            6.16571824736257       -2.06516971289946        6.83554216791838
h            5.82627220995551       -3.47049223911812        7.38888971478051
o            3.15165327159894        1.74218891386458       -2.53663751935842
h            2.77846409642222        2.20587875994478       -1.76112797470769
h            2.96532090608607        2.29070661597508       -3.31684688917286
o            5.59976803347017       -5.74321580236125       -2.49340983866876
h            5.02170277190142       -5.14271323577429       -2.99604121553602
h            6.48881436588696       -5.32815756716934       -2.49657512187519
o           -8.80986639714624        4.53778732439726       -4.10437871330792
h           -8.21906942235909        3.97238727465376       -4.62476458142810
h           -8.23390139768283        5.19322979578755       -3.67300885242888
o            5.44104766069538        2.66760578170740        0.68822309384870
h            4.79900862526230        1.96071297389097        0.49816164518183
h            6.31502020221101        2.32157409171140        0.45462229852146
o           -1.70178457371326        1.17463208712101       -7.46144243834913
h           -1.45647518677227        0.58594045153839       -6.71537881886662
h           -2.44407990224545        0.75690512337670       -7.93344060755852
o           -9.83818536224194       -0.34195181537472       -0.73076996140135
h          -10.54412797704700       -0.83376758044527       -1.18790610278930
h           -8.98483785541319       -0.70880288793914       -1.01404213432033
o           -2.76028221980933        1.44390419443878        4.16474847760692
h           -3.04847846297097        1.21479396269504        5.07127005100268
h           -1.99982575246191        2.04345760421427        4.26274961411457
o            4.26030709594124       -5.45282773040282        1.11157328267127
h            4.41764401774398       -6.01368167876842        1.87764746639764
h            3.97362992143808       -6.05182224752967        0.39507446454600
o           -3.79915937892535       -6.29282305707051        0.61868919409993
h           -3.61625552699420       -5.33099108410613        0.66207975797408
h           -4.53899803558509       -6.45139623245865        1.23854243169184
o            1.92463962243762       -0.25270113915524       -5.63664932394817
h            1.04149956137285       -0.10169954796471       -5.26209349099848
h            1.76067058344991       -0.65830454052429       -6.51799967837930
o            1.56427765297087       -1.09905061723331       -8.12330952664333
h            2.46206306437686       -1.43469682879288       -8.34517221545926
h            1.46677974731642       -0.19552204676020       -8.46109197210495
o           -0.37280059971256       -0.13697962539148        4.97654224969128
h           -0.36801521245661        0.46112207681842        4.20460604780912
h           -1.21805899099232       -0.61293543543388        4.95157460610723
o           -0.47403562092043       -5.61227269510982       -5.76570730777479
h           -0.92677570291662       -5.09941651299102       -6.43678947491354
h           -1.14867869222901       -6.01657648809964       -5.20084517388097
o            1.27491095681757        0.47274879053992       -0.12438102376037
h            1.26610354443481        0.04727669791407        0.74874851103315
h            0.87618069111076        1.37327241449194       -0.03919058306392
o           -2.11532836814588       -5.13264966780789       -1.14826209186785
h           -2.13706664702915       -5.57316484363804       -2.01394379405238
h           -1.31546190835526       -5.47078935853601       -0.70352903152886
o            5.51901093266242       -3.27108989821770        2.33600391637262
h            6.08294839024191       -3.74928694895197        2.96592155743031
h            5.04627852242100       -3.94047638571417        1.82621378496906
o           -2.96067157751748       -1.97525269034195       -6.62314679532405
h           -2.14630354407237       -2.18765886763530       -7.09965292711490
h           -2.89308949488757       -2.48632084672625       -5.79648169031960
o           -6.05387489233912       -4.55117270765542       -0.17598207497279
h           -6.35643827286859       -5.46391954947381       -0.30877165965317
h           -6.57830992048377       -3.96851524251287       -0.74077579937313
o           -1.88141548294788        1.85502934109571       -4.32350116047849
h           -2.57369623472019        1.32544098162959       -4.75275384045344
h           -1.33832770763381        1.27087930869156       -3.74374451056656
o           -9.36586734036230        2.47856042574622        0.28864083232090
h           -8.60682472598393        1.86776729151423        0.30242590604170
h           -8.97312208859992        3.31816387035049       -0.00824175333509
o            4.97232168678268       -6.37591730556090        3.66955643954957
h            4.72695407694708       -5.49997945252811        4.06687710638684
h            5.44768736287949       -6.85155658503296        4.34968583144871
o            2.31305866660119        0.32813791235624        7.64628932209964
h            1.75291661076937       -0.45812295659663        7.49811764074648
h            1.89459498992486        1.04054838376114        7.12323929042665
o            3.48789822400316       -0.91999985234537       -2.45931449663186
h            3.37234411072398        0.04313216549852       -2.55072379335135
h            3.92522871862866       -1.21476678259770       -3.27710146646031
o            4.36289908472318        5.18125729509804        0.33151674064295
h            4.72334568858161        5.71217552464123       -0.40517054890945
h            5.12097494189097        4.98685111243451        0.90336297118868
o           -4.43523560061193        0.90246004127267       -2.83741775645292
h           -5.24532590755389        0.71510183105471       -3.33267146370427
h           -3.74330695150696        0.31861727933985       -3.20303138383227
o            7.13469812436341       -5.98537142639482        1.83791549688376
h            6.47540489993110       -6.10014059394684        2.53655815526537
h            6.88752269129593       -6.58093028464051        1.09085128969418
o           -3.85794395467138        0.14937901034082       -8.74344801340864
h           -3.87872922924279       -0.74379534579293       -9.08573056285263
h           -4.70016393143265        0.28614596225239       -8.27076086066294
o            4.00606020192928       -1.77393182492003       -4.93509122813665
h            3.22610368279133       -1.24401002038440       -5.17710136458373
h            4.72823438032834       -1.47208464152431       -5.51311094770971
o          -10.58354459698973       -3.27567630279246        3.47608236829947
h          -10.23981192278041       -4.17443440630819        3.36709699131085
h           -9.85713477578417       -2.80259043868367        3.93655533497805
o          -10.09157767133285        0.00046226635734        1.90024138500136
h          -10.08589117936082       -0.11656918108503        0.92758165194180
h          -10.36707765057274        0.92469889610907        2.07891654132425
o           -7.64521062579998       -6.00537782693849       -2.87248609729904
h           -8.07937703911915       -5.14788463769422       -2.86813050420342
h           -6.75372943460865       -5.89830896587237       -3.25267547642629
o           -7.91126180151624        6.95509283142703       -0.53936605485926
h           -7.11846753406972        7.27735338772870       -0.08659110066643
h           -7.72789778042847        7.00595253110827       -1.48825640052411
o           -5.37736394120393        7.17750972669190        0.60508602496177
h           -4.54329346728667        7.61528972787602        0.81777741582918
h           -5.15847472961192        6.51159493387357       -0.08573975434538
o           -1.64244187671925        5.47220107690527       -1.21564138101621
h           -1.77210459078911        6.32828351628041       -1.64885423712435
h           -0.68810523905954        5.42825460068260       -1.00538298912368
o            0.07981249679516        3.69079128377922        7.80695754099352
h            0.44261161243564        3.90829541969974        8.66467617241666
h            0.64773452030508        4.10511073343982        7.14447219105665
o            2.20776583227000        5.84839038330372        1.72318264872803
h            3.04393169949288        5.75100193993870        1.21788531700818
h            2.40570491240582        5.44121139128045        2.59319540801092
o           -2.95734319622664        3.30599752957949       -6.48798565606356
h           -2.46020271024977        2.53802104182971       -6.85107691797741
h           -2.44526506563544        4.10833182454117       -6.65567112800656
o            0.87225940347418        1.54880167550674       -8.06245563838897
h           -0.07250140457338        1.42652610685130       -8.25138089896116
h            0.87255194534720        1.62356822606992       -7.09084351253248
o            3.89185134882558        0.47375901024590        0.05075927959046
h            4.37858433666780        0.44287447511162       -0.80374670403050
h            2.94457890241087        0.64510918934872       -0.16236934193606
o            0.88150333721696        4.27666781092326       -7.24741277840609
h            0.78296405355892        3.60569802077408       -6.51829583875181
h            0.94715043202596        3.75395531621909       -8.05117026033595
o           -1.34316092898531        5.53659766303092       -6.63023657756627
h           -1.35775946723092        6.46388135929984       -6.86015477173489
h           -0.49528802704889        5.15439980599009       -6.95602810544000
o           -6.39578841401771       -1.90105743112567        1.12216623098859
h           -5.89095879095388       -1.31602321200301        0.54270072384959
h           -6.80382831856095       -1.31747390626886        1.80003171659820
o            0.59687055632389       -7.22050271850298       -2.72485709129583
h            0.06057243618040       -8.01146726401945       -2.64912457332223
h            0.56231718293011       -6.78788548134000       -1.84702929633788
o            8.27575702709944       -2.24962160138674        2.19495467915866
h            7.89770481197409       -2.81091550941167        1.48165751673639
h            8.90027225015910       -2.79901803191528        2.70055327565047
o            1.70839395650014       -4.57450216939097        1.37703281304304
h            1.46873449143509       -4.04196463349850        2.15701801847806
h            2.65238870931931       -4.79686541276117        1.40897599407945
o            0.50510730953763        6.51800309687890       -3.31994032448544
h            1.06815513759986        6.32302155206854       -4.08731519569079
h            1.09486991202102        6.76196203154495       -2.59628217022477
o           -6.22625907614588       -3.13399815733697        5.39765666782150
h           -7.11320587855761       -2.78764579697022        5.18628765343153
h           -6.27197953120407       -4.09268768219226        5.33764127988914
o           -8.30392886438602       -1.17597776559625       -5.68293071375462
h           -7.96242942776918       -2.08657652201373       -5.67419566206489
h           -9.01715722411445       -1.13884585804107       -5.00838275963718
o           -4.91885749064299        5.42668319292815       -1.36287499995656
h           -4.80727299879534        4.47447720647103       -1.14075247536411
h           -4.25753864369790        5.66491848182560       -2.04142156440306
o           -3.45933040515330        6.20371779083738       -3.47214651776425
h           -4.10469078477865        6.13117468306744       -4.18844983590771
h           -2.77455361618505        5.51956729471050       -3.63717019745415
o            2.28747091147519        0.31269139388952        4.05441035604347
h            2.89143352134134       -0.23472905862276        4.57778144308691
h            1.77109838308249       -0.27166068909595        3.47078871459025
o           -6.66233904668792       -2.80915921887424       -2.20076851091918
h           -7.57943658070232       -3.07449161325795       -2.41544653300213
h           -6.77936872442993       -1.89713016618960       -1.84853654059825
o            3.38254132337768       -4.18618268491838       -6.51337240660850
h            3.07686061413786       -5.07079012064707       -6.71407758338759
h            2.65290043797163       -3.73957952655303       -6.03346094233314
o            2.18625171756612       -4.59334586464292       -1.67819050680266
h            2.84094299312569       -4.31374873528317       -2.35244516994699
h            2.46635643627890       -5.46762225142984       -1.34399143330842
o           -3.08112531854237        4.99290470867312        0.96476620599199
h           -3.11153803042069        5.90767377480338        1.28700227179560
h           -2.61016988233611        5.07014087810710        0.11010644968450
o           -6.69201335913479        0.34743958086565       -4.23182576618357
h           -6.77719663883165        1.26193779582106       -4.57685681477266
h           -7.30865800302415       -0.18958899921065       -4.78089746794215
o          -10.01706210994626        5.34959402748030        0.42772182851700
h           -9.51842596210856        6.12435871209991        0.14126201169422
h          -10.27837810530204        4.89059457976498       -0.39306915963243
o            4.70538476404827        6.70845411160956        2.85492036172893
h            4.77163923550145        6.18617506106501        3.67685502437216
h            5.52452001635151        6.50079846207526        2.39053224751356
o           -6.85868429147122        2.66408375503417       -2.49171734712603
h           -7.11818427579593        3.35195238901577       -1.83393496485269
h           -6.76152866248510        3.09483395027027       -3.34598616896933
o            3.69437270074691        3.73523705675591        6.53495085860625
h            4.40412687409803        4.17752325252191        6.02582431104198
h            3.07721729600473        4.44851998397941        6.74574873544938
o            3.33983640193981        1.75299796236207       -6.69217630271957
h            2.80690831378351        1.87380303555428       -7.48176002916442
h            2.92282291902928        1.01454997337304       -6.19031988408034
o           -2.53111248937076       -6.45193272590857        4.88356754271712
h           -2.32250832542442       -5.66894629645166        4.33492171421844
h           -2.75942979828803       -7.18160863761136        4.27030072751406
o            5.70325356476866        0.37223799696492       -1.82616335517409
h            6.47803809818674        0.75981472810638       -1.36775234830399
h            5.89172559478282       -0.54888746717588       -2.02856271459599
o           -7.72459990743418       -0.43686564116894        2.83820580367976
h           -8.62384317360499       -0.29429002319672        2.44681575429176
h           -7.43319584246968        0.45255589491296        3.10564084156786
o           10.60782006633755        4.56502799757012        2.57402179928956
h           10.21173552108508        4.61951957881430        3.44772165473058
h           11.22670512821915        3.81719357955209        2.60923826022269
o          -13.30306746858056        0.94556246807346        2.64620716579255
h          -12.65570656854077        1.66061868513264        2.57321886836416
h          -12.95280520677691        0.36273352354679        3.33744542046153
o           -4.81803948519669        3.16319549672819        3.96380125105033
h           -4.10183323404384        2.49306084050104        3.98141580411616
h           -4.39080229033430        4.03302487332802        3.94988608554121
o           -5.52159307942296        3.88102678512955        1.34917053002804
h           -5.82493964857945        4.50156014065827        2.03850131467370
h           -4.65395322872009        4.22368846293859        1.06438707904935
o           -6.86426388245355        0.58655444758146        5.53609320737749
h           -6.76276871676994        1.54701797427243        5.71424638194908
h           -7.82173057742259        0.45537126405174        5.46601513367906
o           -1.10492963058781       -4.23180277948595        6.55098853671851
h           -1.22801497326821       -3.46170777563279        7.11761448774888
h           -1.84299688871239       -4.81567488011568        6.74494909222367
o            0.20449933242714       -6.47996081020816        5.02787535152872
h            0.51247779725357       -5.69508134542704        5.51029007797121
h           -0.72407120812273       -6.61108740114248        5.28448437482113
o           -5.44962472009983        3.51225052194381       -7.32968123907376
h           -4.50746096891096        3.41087871514854       -7.05910175587711
h           -5.59086482429620        2.91933633165232       -8.06757859621384
o            5.12699018033314        3.48509805076267       -1.92559757384890
h            4.64599425355853        2.67235309876679       -2.16395935173429
h            5.31163219360217        3.41447625281468       -0.97495024884680
o            7.50878423735716       -0.41227883434986       -4.49222416662471
h            7.21562839325501       -1.11343063289905       -3.89420485550735
h            6.74338181126882        0.21782936619066       -4.50106154710457
o            4.05686861311547        8.06868898981092        0.44097143758775
h            4.15215808977504        7.68975748116713        1.32551893322220
h            4.83106146398843        7.80078417976619       -0.06669220311240
o            5.35269180129299        5.01163144403542        4.88179857588090
h            6.22477652578342        5.45827340659734        4.85472472449290
h            5.40081239352868        4.25674871807135        4.25564927397311
o            4.86043027296340        2.97002443925005        3.31946088843003
h            5.12273118352819        2.14248733772636        3.75731195370764
h            5.07858173652419        2.88321144270435        2.37308823783167
o            7.32760356656670       -3.83222481065745        0.28271027887086
h            7.21220895177255       -4.62852315417918        0.83594937664329
h            6.43420782495303       -3.59550705821919       -0.05170850440279
o            6.72308372835181       -1.43897865189601        4.17050289667290
h            7.25066643600435       -1.71282657848905        3.38310221692579