 Entering Gaussian System
 *********************************************
 Gaussian 98:
 frequency output generated by the xtb code
 *********************************************
                         Standard orientation:
 --------------------------------------------------------------------
  Center     Atomic     Atomic              Coordinates (Angstroms)
  Number     Number      Type              X           Y           Z
 --------------------------------------------------------------------
    1          1             0        1.682606   -1.805900   -0.373638
    2          6             0        1.750640   -0.785574   -0.001442
    3          1             0        1.901073   -0.822711    1.075567
    4          1             0        2.619671   -0.312859   -0.453090
    5          6             0        0.486085    0.001520   -0.333158
    6          1             0        0.348598    0.002747   -1.421193
    7          6             0       -0.741353   -0.664914    0.296727
    8          1             0       -0.670965   -0.594948    1.386220
    9          1             0       -0.744862   -1.736256    0.027842
   10          6             0        0.603911    1.446166    0.142230
   11          1             0        0.816673    1.474014    1.208619
   12          1             0       -0.331638    1.968277   -0.036058
   13          1             0        1.405004    1.959729   -0.384438
   14          7             0       -1.957135    0.024887   -0.107386
   15          1             0       -2.078240   -0.045180   -1.112773
   16          1             0       -2.766650   -0.399389    0.331668
 --------------------------------------------------------------------
     1 basis functions        1 primitive gaussians
     1 alpha electrons        1 beta electrons
 
 Harmonic frequencies (cm**-1), IR intensities (km*mol⁻¹),
 Raman scattering activities (A**4/amu), Raman depolarization ratios,
 reduced masses (AMU), force constants (mDyne/A) and normal coordinates:
                      1                      2                      3
                        a                      a                      a 
 Frequencies --   113.2072               203.0086               220.9518
 Red. masses --     8.0774                 1.3692                 2.9056
 Frc consts  --     0.0000                 0.0000                 0.0000
 IR Inten    --     3.5400                 0.1531                 0.7263
 Raman Activ --     0.0000                 0.0000                 0.0000
 Depolar     --     0.0000                 0.0000                 0.0000
 Atom AN      X      Y      Z        X      Y      Z        X      Y      Z
   1   1     0.07  -0.00   0.13     0.17   0.10  -0.30    -0.08  -0.09   0.30
   2   6     0.07   0.07   0.24    -0.00  -0.03   0.10     0.11   0.05  -0.04
   3   1    -0.03   0.09   0.08    -0.24  -0.33   0.05     0.26   0.32  -0.03
   4   1     0.03   0.02   0.09     0.06   0.21   0.37    -0.05  -0.15  -0.33
   5   6     0.06  -0.11  -0.12     0.02  -0.04  -0.02    -0.01  -0.11   0.08
   6   1     0.09  -0.05  -0.04     0.01  -0.03  -0.01    -0.02  -0.04   0.02
   7   6     0.02  -0.23  -0.33     0.00  -0.01  -0.01    -0.05  -0.06   0.05
   8   1     0.07  -0.27  -0.09     0.01  -0.00  -0.00    -0.04  -0.02   0.01
   9   1    -0.07  -0.02  -0.29    -0.01  -0.00  -0.01    -0.05  -0.02   0.01
  10   6    -0.22  -0.07  -0.17    -0.04  -0.00  -0.10    -0.17  -0.10   0.09
  11   1    -0.18   0.00  -0.03     0.38   0.02  -0.11     0.28  -0.03  -0.04
  12   1    -0.05  -0.04  -0.16    -0.15  -0.13   0.32    -0.18  -0.16   0.33
  13   1    -0.02  -0.02   0.03    -0.28   0.12  -0.32    -0.29   0.10  -0.21
  14   7     0.09   0.30   0.39     0.04   0.07   0.02     0.14   0.19  -0.13
  15   1    -0.02   0.30   0.09     0.01   0.03   0.01     0.11   0.11  -0.05
  16   1     0.02   0.02   0.05     0.00   0.03   0.00    -0.01   0.06  -0.12
                      4                      5                      6
                        a                      a                      a 
 Frequencies --   247.9781               266.9651               348.6151
 Red. masses --     5.3897                 4.0132                 7.9048
 Frc consts  --     0.0000                 0.0000                 0.0000
 IR Inten    --    28.5106                21.4970                 0.1339
 Raman Activ --     0.0000                 0.0000                 0.0000
 Depolar     --     0.0000                 0.0000                 0.0000
 Atom AN      X      Y      Z        X      Y      Z        X      Y      Z
   1   1     0.12   0.04  -0.13    -0.10  -0.05   0.20     0.28   0.10   0.00
   2   6     0.16   0.03  -0.11    -0.10  -0.01   0.19     0.23   0.41   0.01
   3   1     0.03  -0.07  -0.03    -0.03   0.14   0.06     0.09   0.15   0.00
   4   1     0.02   0.11   0.02     0.01  -0.13  -0.01    -0.03   0.30  -0.00
   5   6     0.01  -0.16   0.01     0.07   0.14  -0.13    -0.15  -0.19   0.04
   6   1    -0.02  -0.04   0.01     0.07   0.07  -0.04    -0.06  -0.07   0.01
   7   6    -0.01  -0.02   0.11     0.03  -0.00  -0.30    -0.28  -0.10  -0.00
   8   1    -0.01   0.07   0.03     0.05  -0.06  -0.09    -0.10  -0.05   0.00
   9   1    -0.06  -0.02   0.11     0.04   0.01  -0.15    -0.10  -0.02  -0.02
  10   6    -0.32  -0.16   0.08     0.19   0.07   0.06     0.35  -0.24  -0.01
  11   1    -0.23  -0.05   0.05     0.21  -0.03  -0.01     0.15  -0.10  -0.01
  12   1    -0.09  -0.08  -0.10     0.02   0.01   0.17     0.17   0.07   0.03
  13   1    -0.04  -0.01   0.13    -0.03   0.06  -0.07     0.16  -0.18  -0.03
  14   7     0.25   0.26  -0.18    -0.15  -0.14   0.02    -0.25   0.05  -0.03
  15   1    -0.14  -0.35   0.01    -0.36  -0.39   0.07    -0.08   0.00  -0.01
  16   1     0.05   0.46   0.30     0.05   0.21   0.41    -0.08   0.05   0.00
                      7                      8                      9
                        a                      a                      a 
 Frequencies --   432.8652               472.0592               849.9167
 Red. masses --     7.3312                 9.2536                 7.4609
 Frc consts  --     0.0000                 0.0000                 0.0000
 IR Inten    --     3.0330                 1.8625                14.8554
 Raman Activ --     0.0000                 0.0000                 0.0000
 Depolar     --     0.0000                 0.0000                 0.0000
 Atom AN      X      Y      Z        X      Y      Z        X      Y      Z
   1   1     0.10  -0.03   0.11     0.07  -0.04  -0.10    -0.08   0.08  -0.09
   2   6     0.09   0.03   0.07     0.43  -0.24  -0.06    -0.28   0.14   0.04
   3   1    -0.09   0.11   0.04     0.25  -0.16  -0.04     0.11  -0.04  -0.02
   4   1     0.06   0.00   0.08     0.07  -0.04  -0.09    -0.19   0.14  -0.11
   5   6     0.12  -0.10  -0.44     0.30  -0.04   0.28    -0.03  -0.03   0.32
   6   1     0.08  -0.04  -0.13     0.14  -0.02   0.07     0.02  -0.02   0.08
   7   6     0.10   0.38  -0.03    -0.15   0.18  -0.11     0.25   0.36  -0.13
   8   1     0.12   0.32  -0.02    -0.10   0.00  -0.02     0.03  -0.09  -0.02
   9   1    -0.01   0.05   0.22    -0.05   0.06  -0.07     0.09   0.14  -0.22
  10   6    -0.10  -0.31   0.12    -0.08   0.12  -0.03    -0.03  -0.40  -0.05
  11   1    -0.07  -0.27   0.05    -0.06   0.17  -0.01    -0.00   0.03  -0.02
  12   1    -0.06  -0.12   0.11    -0.09  -0.11  -0.09    -0.02  -0.16  -0.09
  13   1    -0.05   0.06   0.16    -0.08   0.09  -0.04    -0.02  -0.18  -0.10
  14   7    -0.22   0.01   0.10    -0.45   0.02   0.02     0.06   0.08  -0.02
  15   1    -0.03   0.07   0.02    -0.17   0.01   0.01    -0.03  -0.18   0.01
  16   1     0.01  -0.20  -0.03    -0.04  -0.11   0.04     0.18  -0.27   0.03
                     10                     11                     12
                        a                      a                      a 
 Frequencies --   885.5954               948.0529               958.0412
 Red. masses --     3.5678                 2.6872                 5.2848
 Frc consts  --     0.0000                 0.0000                 0.0000
 IR Inten    --    44.6034                 0.4186                47.6257
 Raman Activ --     0.0000                 0.0000                 0.0000
 Depolar     --     0.0000                 0.0000                 0.0000
 Atom AN      X      Y      Z        X      Y      Z        X      Y      Z
   1   1    -0.03   0.04  -0.07     0.29  -0.13   0.19    -0.20   0.08  -0.03
   2   6    -0.09   0.03   0.06    -0.10  -0.09  -0.21    -0.13   0.23  -0.07
   3   1     0.14  -0.06  -0.01    -0.31   0.29   0.00    -0.10   0.01  -0.01
   4   1    -0.12   0.08  -0.09    -0.00   0.09   0.12     0.06  -0.07   0.02
   5   6    -0.06  -0.07   0.14     0.05  -0.11   0.00     0.27   0.15   0.07
   6   1     0.15   0.07   0.02    -0.13   0.30   0.02    -0.00   0.01   0.03
   7   6     0.01  -0.05  -0.34     0.02  -0.05  -0.02    -0.09   0.02   0.13
   8   1    -0.01   0.43  -0.11     0.03   0.04  -0.01    -0.16  -0.08   0.05
   9   1     0.06  -0.13   0.34    -0.06  -0.02   0.05     0.15   0.02  -0.06
  10   6    -0.05  -0.02   0.08     0.15  -0.00   0.21     0.21  -0.27  -0.12
  11   1     0.05   0.17   0.00    -0.05   0.47   0.06    -0.12  -0.06   0.00
  12   1     0.03   0.05  -0.05    -0.07  -0.28  -0.23    -0.11  -0.39  -0.11
  13   1     0.00  -0.16  -0.11    -0.09   0.01  -0.13    -0.07   0.22   0.07
  14   7     0.15  -0.18   0.02    -0.02   0.07   0.00    -0.04  -0.22  -0.02
  15   1    -0.22   0.43   0.02    -0.01  -0.05   0.00    -0.03   0.30  -0.01
  16   1     0.04   0.14   0.15     0.03  -0.09  -0.02    -0.17   0.34   0.04
                     13                     14                     15
                        a                      a                      a 
 Frequencies --   979.2402              1005.4386              1055.4255
 Red. masses --     4.2371                 5.1427                 3.0089
 Frc consts  --     0.0000                 0.0000                 0.0000
 IR Inten    --    13.2342                29.6570                22.1410
 Raman Activ --     0.0000                 0.0000                 0.0000
 Depolar     --     0.0000                 0.0000                 0.0000
 Atom AN      X      Y      Z        X      Y      Z        X      Y      Z
   1   1     0.39  -0.10   0.02    -0.16   0.11  -0.14     0.10  -0.01  -0.03
   2   6    -0.18  -0.26   0.07    -0.26   0.17   0.09     0.03  -0.11   0.11
   3   1     0.17   0.07  -0.01     0.17  -0.10  -0.02     0.17  -0.04   0.00
   4   1    -0.34   0.34  -0.12    -0.17   0.09  -0.13    -0.10   0.09  -0.07
   5   6    -0.09  -0.14  -0.03     0.20  -0.08  -0.07    -0.05   0.13  -0.14
   6   1    -0.02  -0.18  -0.01     0.33  -0.02  -0.05     0.21   0.21  -0.06
   7   6    -0.02   0.17  -0.03    -0.06  -0.33  -0.01    -0.01   0.15   0.04
   8   1    -0.04  -0.06   0.00     0.20   0.11  -0.03     0.37  -0.09  -0.01
   9   1     0.11   0.06  -0.11    -0.23  -0.12   0.20     0.03   0.07  -0.11
  10   6     0.15   0.25  -0.05     0.19   0.09   0.01    -0.10  -0.14   0.09
  11   1    -0.09  -0.12   0.02    -0.06   0.05   0.02     0.06   0.16  -0.00
  12   1    -0.06  -0.08   0.06    -0.06  -0.18  -0.05     0.03   0.03  -0.07
  13   1    -0.02   0.35   0.18    -0.03   0.22   0.07    -0.01  -0.22  -0.14
  14   7     0.12  -0.14   0.01    -0.10   0.20   0.05    -0.11  -0.17   0.08
  15   1     0.00   0.10   0.00     0.12  -0.27   0.00     0.33  -0.06  -0.01
  16   1    -0.00   0.09   0.05    -0.02  -0.13  -0.12    -0.33   0.40  -0.14
                     16                     17                     18
                        a                      a                      a 
 Frequencies --  1114.3718              1160.6010              1189.9377
 Red. masses --    10.0986                 7.3878                 6.2086
 Frc consts  --     0.0000                 0.0000                 0.0000
 IR Inten    --    17.2732                 5.6444                 1.9532
 Raman Activ --     0.0000                 0.0000                 0.0000
 Depolar     --     0.0000                 0.0000                 0.0000
 Atom AN      X      Y      Z        X      Y      Z        X      Y      Z
   1   1    -0.07   0.02  -0.02     0.11  -0.03  -0.01    -0.22   0.09  -0.08
   2   6     0.12   0.04   0.02     0.18  -0.18   0.19     0.19   0.12   0.18
   3   1     0.02  -0.05   0.00     0.21  -0.08   0.03     0.13  -0.21   0.02
   4   1     0.07  -0.07   0.01    -0.03   0.02  -0.03     0.10  -0.15  -0.03
   5   6    -0.06   0.03  -0.08    -0.31   0.46   0.00    -0.40  -0.25  -0.19
   6   1     0.08   0.10  -0.03    -0.21   0.37   0.02    -0.33  -0.20  -0.02
   7   6    -0.60   0.27  -0.15     0.00  -0.22  -0.04     0.15   0.10  -0.03
   8   1    -0.13   0.03  -0.03    -0.04   0.13  -0.02     0.21  -0.04  -0.02
   9   1    -0.23   0.05  -0.04     0.17  -0.07   0.11    -0.03   0.04  -0.07
  10   6     0.06  -0.04   0.01     0.12  -0.21  -0.18     0.21   0.10   0.20
  11   1    -0.02   0.05   0.01    -0.09  -0.14  -0.02    -0.08   0.26   0.07
  12   1    -0.02  -0.08  -0.04    -0.06  -0.20  -0.04    -0.05  -0.19  -0.11
  13   1    -0.03   0.04  -0.01    -0.03   0.11   0.03    -0.07   0.14  -0.02
  14   7     0.45  -0.23   0.20     0.00   0.16   0.02    -0.03  -0.03  -0.07
  15   1     0.18  -0.17   0.05    -0.04  -0.08   0.01    -0.04   0.08  -0.02
  16   1     0.14  -0.13   0.02     0.04  -0.10  -0.04     0.00   0.03   0.03
                     19                     20                     21
                        a                      a                      a 
 Frequencies --  1219.8448              1268.0823              1314.4696
 Red. masses --     6.2829                 2.6467                 4.2549
 Frc consts  --     0.0000                 0.0000                 0.0000
 IR Inten    --     0.7225                14.2905                 8.2699
 Raman Activ --     0.0000                 0.0000                 0.0000
 Depolar     --     0.0000                 0.0000                 0.0000
 Atom AN      X      Y      Z        X      Y      Z        X      Y      Z
   1   1    -0.03  -0.04   0.10    -0.00   0.00   0.00     0.08  -0.06   0.10
   2   6     0.06   0.04  -0.18    -0.01  -0.02   0.03     0.06  -0.01  -0.17
   3   1    -0.20   0.07  -0.00     0.02   0.01   0.01    -0.07   0.03  -0.02
   4   1     0.13  -0.07   0.11    -0.03   0.04   0.00     0.13  -0.08   0.10
   5   6    -0.15  -0.11   0.47     0.05   0.00   0.10    -0.39   0.15   0.07
   6   1    -0.09  -0.06   0.12    -0.07   0.36   0.04     0.64  -0.19  -0.07
   7   6     0.02   0.06  -0.35     0.06   0.05   0.17    -0.10  -0.03   0.19
   8   1     0.37   0.18  -0.12     0.37  -0.15   0.03     0.25  -0.08   0.04
   9   1     0.00  -0.02   0.08    -0.63   0.03  -0.02     0.15   0.02  -0.05
  10   6     0.06   0.05  -0.18    -0.01  -0.01  -0.15     0.09  -0.04   0.01
  11   1    -0.06  -0.21  -0.02    -0.01  -0.14  -0.03    -0.05   0.02   0.02
  12   1    -0.03  -0.03   0.10    -0.01   0.03   0.06    -0.03  -0.10  -0.02
  13   1     0.03   0.15   0.12     0.03   0.05   0.06    -0.03   0.04  -0.02
  14   7    -0.04  -0.03   0.12     0.02  -0.15  -0.21     0.03   0.04  -0.14
  15   1     0.22  -0.14   0.01    -0.17   0.25  -0.03    -0.15   0.12  -0.02
  16   1    -0.15   0.14  -0.10     0.13  -0.04   0.15     0.14  -0.11   0.10
                     22                     23                     24
                        a                      a                      a 
 Frequencies --  1339.5816              1372.9824              1404.1487
 Red. masses --     4.6515                 4.8152                 3.4012
 Frc consts  --     0.0000                 0.0000                 0.0000
 IR Inten    --     8.9538                 4.3276                 4.4332
 Raman Activ --     0.0000                 0.0000                 0.0000
 Depolar     --     0.0000                 0.0000                 0.0000
 Atom AN      X      Y      Z        X      Y      Z        X      Y      Z
   1   1    -0.12   0.04  -0.02    -0.01  -0.02   0.04     0.23  -0.03   0.09
   2   6     0.03   0.11   0.04     0.07  -0.01  -0.04    -0.19   0.14  -0.03
   3   1    -0.04  -0.07   0.01    -0.04  -0.01  -0.00     0.22  -0.16  -0.04
   4   1     0.01  -0.05  -0.05     0.03  -0.01   0.01     0.14  -0.20   0.08
   5   6    -0.11  -0.52  -0.02    -0.30   0.00   0.02     0.04  -0.11  -0.02
   6   1     0.21   0.62  -0.03     0.30   0.05  -0.04    -0.03   0.11   0.00
   7   6    -0.00   0.07   0.08     0.46   0.06  -0.08    -0.04   0.02   0.01
   8   1    -0.10  -0.05   0.03    -0.54   0.01   0.02     0.02  -0.02   0.00
   9   1     0.36   0.03  -0.06    -0.44   0.01   0.02     0.07   0.00  -0.00
  10   6    -0.00   0.06  -0.13     0.07   0.05  -0.01    -0.00   0.37   0.08
  11   1    -0.01   0.00  -0.02    -0.06  -0.06   0.01     0.04  -0.41   0.01
  12   1     0.03   0.13   0.11    -0.04  -0.10  -0.01    -0.20  -0.37  -0.13
  13   1     0.00   0.16   0.11    -0.01  -0.00  -0.04     0.16  -0.38  -0.16
  14   7    -0.02   0.05  -0.00    -0.06  -0.07   0.10     0.00   0.00  -0.00
  15   1    -0.01  -0.01   0.00     0.13  -0.06   0.01    -0.01   0.01  -0.00
  16   1     0.01  -0.01   0.01    -0.12   0.13  -0.04     0.01  -0.01   0.00
                     25                     26                     27
                        a                      a                      a 
 Frequencies --  1419.1858              1486.7994              1493.2418
 Red. masses --     3.1236                 1.8071                 1.5890
 Frc consts  --     0.0000                 0.0000                 0.0000
 IR Inten    --     3.5452                 2.3294                 0.5018
 Raman Activ --     0.0000                 0.0000                 0.0000
 Depolar     --     0.0000                 0.0000                 0.0000
 Atom AN      X      Y      Z        X      Y      Z        X      Y      Z
   1   1     0.40  -0.07   0.15     0.03  -0.02   0.06    -0.14  -0.09   0.26
   2   6    -0.32   0.18  -0.08     0.04   0.04   0.01     0.03   0.03  -0.09
   3   1     0.38  -0.22  -0.07    -0.11  -0.11   0.01     0.04  -0.18  -0.02
   4   1     0.25  -0.31   0.19    -0.05  -0.01  -0.12    -0.04   0.18   0.10
   5   6     0.03   0.01   0.01    -0.01   0.00   0.00     0.03  -0.03   0.02
   6   1    -0.04  -0.01   0.01     0.01  -0.01  -0.00    -0.01   0.04   0.01
   7   6     0.05  -0.00  -0.02     0.01  -0.17   0.16    -0.01  -0.05   0.04
   8   1    -0.06   0.04  -0.01    -0.00   0.57  -0.03     0.02   0.15  -0.01
   9   1    -0.08   0.01  -0.02    -0.08   0.15  -0.56    -0.00   0.04  -0.15
  10   6    -0.02  -0.21  -0.06    -0.10   0.01  -0.03     0.04  -0.01   0.19
  11   1    -0.00   0.24  -0.01     0.29   0.08  -0.06    -0.03  -0.36   0.03
  12   1     0.12   0.23   0.09    -0.06  -0.11  -0.07     0.22   0.23  -0.43
  13   1    -0.08   0.23   0.12     0.17  -0.01   0.25    -0.37   0.22  -0.34
  14   7    -0.01  -0.01   0.02     0.03  -0.03   0.01     0.01  -0.00   0.00
  15   1     0.02  -0.01   0.00    -0.05  -0.00   0.01    -0.02  -0.00   0.00
  16   1    -0.02   0.02  -0.01    -0.02   0.00  -0.04    -0.01   0.00  -0.01
                     28                     29                     30
                        a                      a                      a 
 Frequencies --  1500.1698              1505.2003              1508.2403
 Red. masses --     1.6625                 1.5443                 1.5860
 Frc consts  --     0.0000                 0.0000                 0.0000
 IR Inten    --     0.7054                 2.0063                 4.2762
 Raman Activ --     0.0000                 0.0000                 0.0000
 Depolar     --     0.0000                 0.0000                 0.0000
 Atom AN      X      Y      Z        X      Y      Z        X      Y      Z
   1   1     0.05  -0.09   0.26    -0.40  -0.06   0.20    -0.07  -0.16   0.47
   2   6     0.07   0.10  -0.02    -0.01  -0.11  -0.16     0.08   0.11  -0.09
   3   1    -0.18  -0.34   0.01     0.40   0.11  -0.06    -0.12  -0.48  -0.00
   4   1    -0.11   0.03  -0.19     0.07   0.38   0.54    -0.15   0.20  -0.10
   5   6    -0.04   0.05   0.00    -0.02  -0.03  -0.05     0.08   0.05  -0.04
   6   1     0.01  -0.02  -0.00    -0.01   0.01  -0.01    -0.04  -0.02  -0.01
   7   6     0.01   0.08  -0.09     0.00   0.01  -0.00    -0.03  -0.01   0.01
   8   1    -0.00  -0.31   0.02    -0.03  -0.02   0.00     0.01   0.01   0.00
   9   1     0.02  -0.08   0.31     0.03  -0.01   0.02     0.01  -0.00  -0.01
  10   6    -0.15  -0.03   0.03    -0.06   0.02  -0.04     0.09   0.01  -0.09
  11   1     0.49   0.02  -0.10     0.17   0.11  -0.04    -0.37   0.14   0.06
  12   1     0.01  -0.07  -0.31    -0.07  -0.11   0.02    -0.08  -0.02   0.41
  13   1     0.10   0.12   0.29     0.16  -0.04   0.20     0.06  -0.18  -0.10
  14   7    -0.02   0.01  -0.01     0.00   0.00   0.00     0.01   0.00  -0.00
  15   1     0.02   0.01  -0.00    -0.00  -0.00   0.00    -0.02  -0.00   0.00
  16   1     0.01  -0.00   0.02    -0.00  -0.00  -0.01    -0.00  -0.00  -0.01
                     31                     32                     33
                        a                      a                      a 
 Frequencies --  1565.7791              2806.6514              2916.7586
 Red. masses --     2.0779                 1.7336                 1.7356
 Frc consts  --     0.0000                 0.0000                 0.0000
 IR Inten    --    29.6092               120.6222                45.0741
 Raman Activ --     0.0000                 0.0000                 0.0000
 Depolar     --     0.0000                 0.0000                 0.0000
 Atom AN      X      Y      Z        X      Y      Z        X      Y      Z
   1   1     0.00   0.00  -0.01     0.00   0.01   0.01    -0.00  -0.02  -0.01
   2   6     0.00   0.00  -0.00    -0.00  -0.01  -0.00    -0.00   0.00   0.01
   3   1    -0.01   0.01   0.00    -0.00   0.00  -0.00    -0.01   0.00  -0.04
   4   1     0.01  -0.01  -0.00     0.00   0.00  -0.00     0.01   0.01  -0.00
   5   6    -0.01  -0.02   0.01     0.00   0.01  -0.00    -0.03   0.00  -0.25
   6   1     0.02   0.00   0.00     0.00  -0.00   0.02     0.12  -0.00   0.95
   7   6     0.01   0.08   0.02     0.02   0.24   0.10     0.00  -0.00   0.02
   8   1     0.05  -0.08   0.01    -0.00   0.04  -0.08    -0.01  -0.01  -0.11
   9   1    -0.05   0.01   0.03    -0.01  -0.93  -0.25     0.00   0.03   0.01
  10   6    -0.00  -0.00  -0.00     0.00  -0.00  -0.00    -0.00  -0.01   0.01
  11   1     0.00  -0.00  -0.00     0.00  -0.00   0.00    -0.01  -0.00  -0.04
  12   1     0.00   0.01   0.00    -0.01  -0.00  -0.00    -0.01   0.00   0.00
  13   1    -0.00   0.01   0.00    -0.00  -0.00   0.00     0.02   0.01  -0.01
  14   7     0.25  -0.02   0.10    -0.01   0.02  -0.00    -0.00  -0.00   0.00
  15   1    -0.66  -0.13   0.08    -0.00  -0.01   0.00     0.00   0.00  -0.00
  16   1    -0.32   0.02  -0.58     0.00  -0.00  -0.00     0.00   0.00  -0.00
                     34                     35                     36
                        a                      a                      a 
 Frequencies --  2957.1486              3024.8123              3028.7264
 Red. masses --     1.6823                 1.9166                 1.8881
 Frc consts  --     0.0000                 0.0000                 0.0000
 IR Inten    --    52.2781                31.1251                 5.7112
 Raman Activ --     0.0000                 0.0000                 0.0000
 Depolar     --     0.0000                 0.0000                 0.0000
 Atom AN      X      Y      Z        X      Y      Z        X      Y      Z
   1   1    -0.00   0.00   0.00    -0.06  -0.75  -0.27    -0.01  -0.29  -0.14
   2   6    -0.00  -0.00   0.01     0.06   0.21   0.17     0.08   0.13  -0.18
   3   1    -0.00   0.00  -0.04    -0.05   0.04  -0.42     0.09   0.00   0.60
   4   1     0.01   0.01  -0.01    -0.11  -0.03   0.09    -0.34  -0.18   0.16
   5   6    -0.00   0.00  -0.04     0.00   0.01   0.01    -0.00   0.00  -0.00
   6   1     0.01   0.00   0.11    -0.00  -0.00  -0.03    -0.00   0.00   0.00
   7   6    -0.01  -0.00  -0.24     0.00   0.00   0.00     0.00   0.00  -0.00
   8   1     0.06   0.08   0.95     0.00   0.00  -0.00     0.00   0.00   0.01
   9   1    -0.00  -0.08  -0.06    -0.00  -0.01  -0.00    -0.00  -0.01  -0.00
  10   6    -0.00  -0.00   0.01    -0.04  -0.01  -0.06    -0.06  -0.05   0.14
  11   1    -0.01   0.00  -0.03     0.05   0.00   0.25    -0.08  -0.01  -0.32
  12   1     0.00  -0.00   0.00     0.03  -0.02  -0.00    -0.02   0.00   0.02
  13   1     0.01   0.01  -0.01     0.06   0.04  -0.05     0.30   0.18  -0.19
  14   7    -0.01   0.00  -0.00     0.00  -0.00  -0.00     0.00  -0.00  -0.00
  15   1    -0.00  -0.00  -0.02    -0.00   0.00   0.00     0.00  -0.00  -0.00
  16   1    -0.00   0.00  -0.00    -0.00   0.00   0.00     0.00  -0.00   0.00
                     37                     38                     39
                        a                      a                      a 
 Frequencies --  3032.9393              3034.9872              3039.3850
 Red. masses --     1.7865                 1.6045                 1.4153
 Frc consts  --     0.0000                 0.0000                 0.0000
 IR Inten    --    73.1129                45.5151                50.2700
 Raman Activ --     0.0000                 0.0000                 0.0000
 Depolar     --     0.0000                 0.0000                 0.0000
 Atom AN      X      Y      Z        X      Y      Z        X      Y      Z
   1   1    -0.02  -0.22  -0.10    -0.04  -0.29  -0.09     0.03   0.18   0.06
   2   6    -0.00   0.07  -0.11    -0.08   0.02   0.09     0.16   0.04  -0.00
   3   1     0.06  -0.00   0.48    -0.02   0.01  -0.06    -0.03   0.02  -0.37
   4   1    -0.04  -0.02   0.01     0.35   0.21  -0.18    -0.57  -0.33   0.32
   5   6     0.00   0.00  -0.02     0.00   0.00   0.02     0.01   0.00   0.00
   6   1     0.00  -0.00   0.05    -0.01   0.00  -0.05     0.00   0.00  -0.00
   7   6    -0.00   0.00  -0.01     0.00   0.00   0.01    -0.00  -0.00   0.00
   8   1     0.00   0.00   0.04    -0.00  -0.00  -0.03    -0.00  -0.00  -0.01
   9   1     0.00  -0.00  -0.00    -0.00  -0.00  -0.00    -0.00  -0.00   0.00
  10   6     0.13   0.09  -0.17     0.11   0.03   0.16     0.08   0.05   0.04
  11   1     0.08   0.01   0.27    -0.14  -0.01  -0.74    -0.05   0.00  -0.33
  12   1     0.01   0.02  -0.03    -0.05   0.04   0.01     0.03  -0.00   0.01
  13   1    -0.55  -0.34   0.35    -0.19  -0.13   0.16    -0.27  -0.17   0.19
  14   7    -0.00  -0.00   0.00     0.00  -0.00  -0.00    -0.00  -0.00  -0.00
  15   1     0.00   0.00  -0.00    -0.00  -0.00   0.00    -0.00   0.00   0.00
  16   1     0.00   0.00  -0.00    -0.00  -0.00   0.00     0.00   0.00  -0.00
                     40                     41                     42
                        a                      a                      a 
 Frequencies --  3058.4330              3383.5984              3417.1905
 Red. masses --     1.6766                 1.5247                 2.0619
 Frc consts  --     0.0000                 0.0000                 0.0000
 IR Inten    --    18.8719                12.6116                12.8302
 Raman Activ --     0.0000                 0.0000                 0.0000
 Depolar     --     0.0000                 0.0000                 0.0000
 Atom AN      X      Y      Z        X      Y      Z        X      Y      Z
   1   1     0.00   0.00   0.00    -0.00  -0.00  -0.00    -0.00   0.00  -0.00
   2   6     0.01   0.00   0.00    -0.00   0.00   0.00     0.00   0.00  -0.00
   3   1    -0.00   0.00  -0.04    -0.00   0.00  -0.00     0.00  -0.00   0.00
   4   1    -0.04  -0.02   0.02     0.00   0.00  -0.00    -0.00  -0.00   0.00
   5   6     0.01  -0.00   0.00    -0.00  -0.00   0.00     0.00  -0.00  -0.00
   6   1    -0.00  -0.00  -0.01     0.00   0.00  -0.00    -0.00  -0.00   0.01
   7   6     0.00  -0.00  -0.00     0.00   0.01   0.01     0.00   0.00  -0.01
   8   1     0.00  -0.00   0.01     0.00  -0.00  -0.01    -0.00   0.00   0.01
   9   1     0.00   0.00   0.00    -0.00  -0.00  -0.00    -0.00  -0.00   0.00
  10   6     0.21  -0.12   0.03    -0.00  -0.00   0.00    -0.00   0.00  -0.00
  11   1     0.04  -0.01   0.07    -0.00  -0.00  -0.00     0.00   0.00   0.00
  12   1    -0.83   0.45  -0.17     0.00   0.00   0.00     0.00  -0.00  -0.00
  13   1     0.04  -0.01  -0.00    -0.00  -0.00   0.00    -0.00  -0.00   0.00
  14   7     0.00   0.00  -0.00     0.13   0.05   0.14     0.15   0.07  -0.23
  15   1    -0.00  -0.00   0.00    -0.07  -0.02  -0.81     0.08   0.04   0.51
  16   1    -0.00  -0.00   0.00    -0.42  -0.20   0.27    -0.65  -0.33   0.35
