      -----------------------------------------------------------      
     |                   =====================                   |     
     |                           x T B                           |     
     |                   =====================                   |     
     |                         S. Grimme                         |     
     |          Mulliken Center for Theoretical Chemistry        |     
     |                    University of Bonn                     |     
      -----------------------------------------------------------      

   * xtb version 6.5.1 (579679a) compiled by 'ehlert@majestix' on 2022-07-11

   xtb is free software: you can redistribute it and/or modify it under
   the terms of the GNU Lesser General Public License as published by
   the Free Software Foundation, either version 3 of the License, or
   (at your option) any later version.
   
   xtb is distributed in the hope that it will be useful,
   but WITHOUT ANY WARRANTY; without even the implied warranty of
   MERCHANTABILITY or FITNESS FOR A PARTICULAR PURPOSE.  See the
   GNU Lesser General Public License for more details.
   
   Cite this work as:
   * C. Bannwarth, E. Caldeweyher, S. Ehlert, A. Hansen, P. Pracht,
     J. Seibert, S. Spicher, S. Grimme, WIREs Comput. Mol. Sci., 2020, 11,
     e01493. DOI: 10.1002/wcms.1493
   
   for GFN2-xTB:
   * C. Bannwarth, S. Ehlert and S. Grimme., J. Chem. Theory Comput., 2019,
     15, 1652-1671. DOI: 10.1021/acs.jctc.8b01176
   for GFN1-xTB:
   * S. Grimme, C. Bannwarth, P. Shushkov, J. Chem. Theory Comput., 2017,
     13, 1989-2009. DOI: 10.1021/acs.jctc.7b00118
   for GFN0-xTB:
   * P. Pracht, E. Caldeweyher, S. Ehlert, S. Grimme, ChemRxiv, 2019, preprint.
     DOI: 10.26434/chemrxiv.8326202.v1
   for GFN-FF:
   * S. Spicher and S. Grimme, Angew. Chem. Int. Ed., 2020, 59, 15665-15673.
     DOI: 10.1002/anie.202004239
   
   for ALPB and GBSA implicit solvation:
   * S. Ehlert, M. Stahn, S. Spicher, S. Grimme, J. Chem. Theory Comput.,
     2021, 17, 4250-4261. DOI: 10.1021/acs.jctc.1c00471
   
   for DFT-D4:
   * E. Caldeweyher, C. Bannwarth and S. Grimme, J. Chem. Phys., 2017,
     147, 034112. DOI: 10.1063/1.4993215
   * E. Caldeweyher, S. Ehlert, A. Hansen, H. Neugebauer, S. Spicher,
     C. Bannwarth and S. Grimme, J. Chem. Phys., 2019, 150, 154122.
     DOI: 10.1063/1.5090222
   * E. Caldeweyher, J.-M. Mewes, S. Ehlert and S. Grimme, Phys. Chem. Chem. Phys.
     2020, 22, 8499-8512. DOI: 10.1039/D0CP00502A
   
   for sTDA-xTB:
   * S. Grimme and C. Bannwarth, J. Chem. Phys., 2016, 145, 054103.
     DOI: 10.1063/1.4959605
   
   in the mass-spec context:
   * V. Asgeirsson, C. Bauer and S. Grimme, Chem. Sci., 2017, 8, 4879.
     DOI: 10.1039/c7sc00601b
   * J. Koopman and S. Grimme, ACS Omega 2019, 4, 12, 15120-15133.
     DOI: 10.1021/acsomega.9b02011
   
   for metadynamics refer to:
   * S. Grimme, J. Chem. Theory Comput., 2019, 155, 2847-2862
     DOI: 10.1021/acs.jctc.9b00143
   
   for SPH calculations refer to:
   * S. Spicher and S. Grimme, J. Chem. Theory Comput., 2021, 17, 1701-1714
     DOI: 10.1021/acs.jctc.0c01306
   
   with help from (in alphabetical order)
   P. Atkinson, C. Bannwarth, F. Bohle, G. Brandenburg, E. Caldeweyher
   M. Checinski, S. Dohm, S. Ehlert, S. Ehrlich, I. Gerasimov, C. Hölzer
   A. Katbashev, J. Koopman, C. Lavigne, S. Lehtola, F. März, M. Müller,
   F. Musil, H. Neugebauer, J. Pisarek, C. Plett, P. Pracht, F. Pultar,
   J. Seibert, P. Shushkov, S. Spicher, M. Stahn, M. Steiner, T. Strunk,
   J. Stückrath, T. Rose, and J. Unsleber
   
 * started run on 2022/10/12 at 01:32:46.202     

           -------------------------------------------------
          |                Calculation Setup                |
           -------------------------------------------------

          program call               : xtb solute.coord --gfn2 --ohess
          hostname                   : cn0943
          coordinate file            : solute.coord
          omp threads                :                    24

   ID    Z sym.   atoms
    1    1 h      1, 3, 4, 6, 8, 9, 11-13, 15, 16
    2    6 c      2, 5, 7, 10
    3    7 n      14

           -------------------------------------------------
          |                 G F N 2 - x T B                 |
           -------------------------------------------------

        Reference                      10.1021/acs.jctc.8b01176
      * Hamiltonian:
        H0-scaling (s, p, d)           1.850000    2.230000    2.230000
        zeta-weighting                 0.500000
      * Dispersion:
        s8                             2.700000
        a1                             0.520000
        a2                             5.000000
        s9                             5.000000
      * Repulsion:
        kExp                           1.500000    1.000000
        rExp                           1.000000
      * Coulomb:
        alpha                          2.000000
        third order                    shell-resolved
        anisotropic                    true
        a3                             3.000000
        a5                             4.000000
        cn-shift                       1.200000
        cn-exp                         4.000000
        max-rad                        5.000000


          ...................................................
          :                      SETUP                      :
          :.................................................:
          :  # basis functions                  31          :
          :  # atomic orbitals                  31          :
          :  # shells                           21          :
          :  # electrons                        32          :
          :  max. iterations                   250          :
          :  Hamiltonian                  GFN2-xTB          :
          :  restarted?                      false          :
          :  GBSA solvation                  false          :
          :  PC potential                    false          :
          :  electronic temp.          300.0000000     K    :
          :  accuracy                    1.0000000          :
          :  -> integral cutoff          0.2500000E+02      :
          :  -> integral neglect         0.1000000E-07      :
          :  -> SCF convergence          0.1000000E-05 Eh   :
          :  -> wf. convergence          0.1000000E-03 e    :
          :  Broyden damping             0.4000000          :
          ...................................................

 iter      E             dE          RMSdq      gap      omega  full diag
   1    -17.2871300 -0.172871E+02  0.278E+00   10.84       0.0  T
   2    -17.3216272 -0.344972E-01  0.151E+00   11.07       1.0  T
   3    -17.3227122 -0.108496E-02  0.702E-01   11.16       1.0  T
   4    -17.3228188 -0.106681E-03  0.142E-01   11.12       1.0  T
   5    -17.3228952 -0.763678E-04  0.561E-02   11.11       1.0  T
   6    -17.3228972 -0.200786E-05  0.188E-02   11.11       1.3  T
   7    -17.3228974 -0.135143E-06  0.197E-03   11.11      12.7  T
   8    -17.3228974 -0.599526E-08  0.820E-04   11.11      30.5  T
   9    -17.3228974 -0.132975E-08  0.180E-04   11.11     139.2  T

   *** convergence criteria satisfied after 9 iterations ***

         #    Occupation            Energy/Eh            Energy/eV
      -------------------------------------------------------------
         1        2.0000           -0.6281291             -17.0923
       ...           ...                  ...                  ...
        10        2.0000           -0.4634092             -12.6100
        11        2.0000           -0.4579745             -12.4621
        12        2.0000           -0.4514718             -12.2852
        13        2.0000           -0.4321221             -11.7586
        14        2.0000           -0.4268695             -11.6157
        15        2.0000           -0.4199282             -11.4268
        16        2.0000           -0.3619880              -9.8502 (HOMO)
        17                          0.0463407               1.2610 (LUMO)
        18                          0.0917688               2.4972
        19                          0.1092664               2.9733
        20                          0.1290322               3.5111
        21                          0.1392860               3.7902
       ...                                ...                  ...
        31                          0.2990919               8.1387
      -------------------------------------------------------------
                  HL-Gap            0.4083287 Eh           11.1112 eV
             Fermi-level           -0.1578236 Eh           -4.2946 eV

 SCC (total)                   0 d,  0 h,  0 min,  0.011 sec
 SCC setup                      ...        0 min,  0.001 sec (  4.831%)
 Dispersion                     ...        0 min,  0.001 sec ( 10.773%)
 classical contributions        ...        0 min,  0.000 sec (  2.240%)
 integral evaluation            ...        0 min,  0.001 sec (  7.641%)
 iterations                     ...        0 min,  0.006 sec ( 52.825%)
 molecular gradient             ...        0 min,  0.002 sec ( 15.488%)
 printout                       ...        0 min,  0.000 sec (  2.923%)

         :::::::::::::::::::::::::::::::::::::::::::::::::::::
         ::                     SUMMARY                     ::
         :::::::::::::::::::::::::::::::::::::::::::::::::::::
         :: total energy             -17.083932601909 Eh    ::
         :: gradient norm              0.000255384950 Eh/a0 ::
         :: HOMO-LUMO gap             11.111189920903 eV    ::
         ::.................................................::
         :: SCC energy               -17.322897358296 Eh    ::
         :: -> isotropic ES            0.013321103304 Eh    ::
         :: -> anisotropic ES          0.005765249255 Eh    ::
         :: -> anisotropic XC          0.013385760762 Eh    ::
         :: -> dispersion             -0.008365260213 Eh    ::
         :: repulsion energy           0.238946326054 Eh    ::
         :: add. restraining           0.000000000000 Eh    ::
         :: total charge              -0.000000000000 e     ::
         :::::::::::::::::::::::::::::::::::::::::::::::::::::

      ----------------------------------------------------------- 
     |                   =====================                   |
     |                        A N C O P T                        |
     |                   =====================                   |
     |               Approximate Normal Coordinate               |
     |                Rational Function Optimizer                |
      ----------------------------------------------------------- 

          ...................................................
          :                      SETUP                      :
          :.................................................:
          :   optimization level            normal          :
          :   max. optcycles                   200          :
          :   ANC micro-cycles                  20          :
          :   degrees of freedom                42          :
          :.................................................:
          :   RF solver                   davidson          :
          :   write xtbopt.log                true          :
          :   linear?                        false          :
          :   energy convergence         0.5000000E-05 Eh   :
          :   grad. convergence          0.1000000E-02 Eh/α :
          :   maximium RF displ.         1.0000000          :
          :   Hlow (freq-cutoff)         0.1000000E-01      :
          :   Hmax (freq-cutoff)         5.0000000          :
          :   S6 in model hess.         20.0000000          :
          ...................................................

generating ANC from model Hessian ...
Using Lindh-Hessian (1995)
 Shifting diagonal of input Hessian by   5.732887959203133E-003
 Lowest  eigenvalues of input Hessian
    0.000000    0.000000    0.000000    0.000000    0.000000    0.000000
    0.010000    0.012815    0.014395    0.014791    0.016720    0.018330
    0.027838    0.032173    0.058900    0.059591    0.061709    0.064439
 Highest eigenvalues
    1.134002    1.200942    1.236319    1.262294    1.356618    1.451250
 

........................................................................
.............................. CYCLE    1 ..............................
........................................................................
   1    -17.3228974 -0.173229E+02  0.485E-05   11.11       0.0  T
   2    -17.3228974 -0.268585E-11  0.284E-05   11.11     880.6  T
   3    -17.3228974 -0.994760E-13  0.103E-05   11.11    2426.1  T
     SCC iter.                  ...        0 min,  0.002 sec
     gradient                   ...        0 min,  0.001 sec
 * total energy  :   -17.0839326 Eh     change       -0.1911360E-10 Eh
   gradient norm :     0.0002556 Eh/α   predicted     0.0000000E+00 (-100.00%)
   displ. norm   :     0.0048321 α      lambda       -0.2830654E-06
   maximum displ.:     0.0031284 α      in ANC's #1, #3, #6, ...

   *** GEOMETRY OPTIMIZATION CONVERGED AFTER 1 ITERATIONS ***

------------------------------------------------------------------------
 total energy gain   :        -0.0000000 Eh       -0.0000 kcal/mol
 total RMSD          :         0.0000000 a0        0.0000 Å
 total power (kW/mol):        -0.0000001 (step)   -0.0000 (real)
------------------------------------------------------------------------

 ANCopt (total)                0 d,  0 h,  0 min,  0.021 sec
 optimizer setup                ...        0 min,  0.001 sec (  2.840%)
 model hessian                  ...        0 min,  0.014 sec ( 66.624%)
 ANC generation                 ...        0 min,  0.001 sec (  3.746%)
 coordinate transformation      ...        0 min,  0.000 sec (  0.256%)
 single point calculation       ...        0 min,  0.003 sec ( 16.299%)
 optimization log               ...        0 min,  0.001 sec (  6.232%)
 hessian update                 ...        0 min,  0.000 sec (  0.097%)
 rational function              ...        0 min,  0.000 sec (  1.630%)

================
 final structure:
================
$coord
        3.17968383732900       -3.41263736500800       -0.70606809220800      h
        3.30823809801400       -1.48450173744400       -0.00271654746400      c
        3.59250772186400       -1.55468287139600        2.03253643823100      h
        4.95046547620200       -0.59119041071600       -0.85619958879500      h
        0.91857042300300        0.00287922647900       -0.62957327320200      c
        0.65876380202300        0.00519966555700       -2.68566245473900      h
       -1.40094857312800       -1.25651391165500        0.56072523355100      c
       -1.26794364444600       -1.12429990043100        2.61957029283800      h
       -1.40756789130500       -3.28105547292300        0.05260317027100      h
        1.14121124529300        2.73286386133600        0.26878375262100      c
        1.54326560745900        2.78548649551000        2.28396981987100      h
       -0.62672393619000        3.71950090276100       -0.06813547140400      h
        2.65505493640200        3.70336668034500       -0.72646613236200      h
       -3.69844840676300        0.04701058444500       -0.20294238764100      n
       -3.92729575715000       -0.08539388188200       -2.10284903459600      h
       -5.22820876544400       -0.75476355068600        0.62674147761600      h
$end
 
 Bond Distances (Angstroems)
 ---------------------------
H1-C2=1.0882         C2-H1=1.0882         C2-H3=1.0881         C2-H4=1.0875         C2-C5=1.5260         H3-C2=1.0881         
H4-C2=1.0875         C5-C2=1.5260         C5-H6=1.0967         C5-C7=1.5322         C5-C10=1.5254        H6-C5=1.0967         
C7-C5=1.5322         C7-H8=1.0940         C7-H9=1.1046         C7-N14=1.4551        H8-C7=1.0940         H9-C7=1.1046         
C10-C5=1.5254        C10-H11=1.0878       C10-H12=1.0861       C10-H13=1.0876       H11-C10=1.0878       H12-C10=1.0861       
H13-C10=1.0876       N14-C7=1.4551        N14-H15=1.0151       N14-H16=1.0139       H15-N14=1.0151       H16-N14=1.0139       
 C  H  Rav=1.0912 sigma=0.0058  Rmin=1.0861  Rmax=1.1046     9
 C  C  Rav=1.5279 sigma=0.0031  Rmin=1.5254  Rmax=1.5322     3
 N  H  Rav=1.0145 sigma=0.0006  Rmin=1.0139  Rmax=1.0151     2
 N  C  Rav=1.4551 sigma=0.0000  Rmin=1.4551  Rmax=1.4551     1
 
 selected bond angles (degree)
 --------------------
H3-C2-H1=108.37                H4-C2-H1=108.39                H4-C2-H3=108.39                C5-C2-H1=110.94                
C5-C2-H3=110.32                C5-C2-H4=110.35                H6-C5-C2=108.67                C7-C5-C2=110.50                
C7-C5-H6=107.93                C10-C5-C2=110.90               C10-C5-H6=108.53               C10-C5-C7=110.22               
H8-C7-C5=109.27                H9-C7-C5=108.93                H9-C7-H8=107.74                N14-C7-C5=110.43               
N14-C7-H8=107.46               N14-C7-H9=112.93               H11-C10-C5=110.17              H12-C10-C5=109.73              
H12-C10-H11=108.49             H13-C10-C5=110.68              H13-C10-H11=108.58             H13-C10-H12=109.15             
 
 selected dihedral angles (degree)
 ---------------------------------
H6-C5-C2-H1=301.37            H6-C5-C2-H3=181.26            H6-C5-C2-H4= 61.51            C7-C5-C2-H1= 59.62            
C7-C5-C2-H3=299.51            C7-C5-C2-H4=179.76            C10-C5-C2-H1=182.15           C10-C5-C2-H3= 62.04           
C10-C5-C2-H4=302.30           H8-C7-C5-C2= 66.51            H8-C7-C5-H6=185.21            H8-C7-C5-C10=303.59           
H9-C7-C5-C2=309.06            H9-C7-C5-H6= 67.76            H9-C7-C5-C10=186.13           N14-C7-C5-C2=184.51           
N14-C7-C5-H6=303.21           N14-C7-C5-C10= 61.58          H11-C10-C5-C2=303.58          H11-C10-C5-H6=184.28          
H11-C10-C5-C7= 66.27          H12-C10-C5-C2=184.20          H12-C10-C5-H6= 64.90          H12-C10-C5-C7=306.89          
H13-C10-C5-C2= 63.68          H13-C10-C5-H6=304.38          H13-C10-C5-C7=186.37          
           -------------------------------------------------
          |                Final Singlepoint                |
           -------------------------------------------------

          ...................................................
          :                      SETUP                      :
          :.................................................:
          :  # basis functions                  31          :
          :  # atomic orbitals                  31          :
          :  # shells                           21          :
          :  # electrons                        32          :
          :  max. iterations                   250          :
          :  Hamiltonian                  GFN2-xTB          :
          :  restarted?                      false          :
          :  GBSA solvation                  false          :
          :  PC potential                    false          :
          :  electronic temp.          300.0000000     K    :
          :  accuracy                    1.0000000          :
          :  -> integral cutoff          0.2500000E+02      :
          :  -> integral neglect         0.1000000E-07      :
          :  -> SCF convergence          0.1000000E-05 Eh   :
          :  -> wf. convergence          0.1000000E-03 e    :
          :  Broyden damping             0.4000000          :
          ...................................................

 iter      E             dE          RMSdq      gap      omega  full diag
   1    -17.3228974 -0.173229E+02  0.181E-06   11.11       0.0  T
   2    -17.3228974 -0.142109E-13  0.995E-07   11.11   25125.9  T
   3    -17.3228974 -0.710543E-14  0.410E-07   11.11   61003.4  T

   *** convergence criteria satisfied after 3 iterations ***

         #    Occupation            Energy/Eh            Energy/eV
      -------------------------------------------------------------
         1        2.0000           -0.6281286             -17.0922
       ...           ...                  ...                  ...
        10        2.0000           -0.4634090             -12.6100
        11        2.0000           -0.4579746             -12.4621
        12        2.0000           -0.4514715             -12.2852
        13        2.0000           -0.4321215             -11.7586
        14        2.0000           -0.4268690             -11.6157
        15        2.0000           -0.4199278             -11.4268
        16        2.0000           -0.3619880              -9.8502 (HOMO)
        17                          0.0463409               1.2610 (LUMO)
        18                          0.0917694               2.4972
        19                          0.1092668               2.9733
        20                          0.1290326               3.5112
        21                          0.1392862               3.7902
       ...                                ...                  ...
        31                          0.2990926               8.1387
      -------------------------------------------------------------
                  HL-Gap            0.4083289 Eh           11.1112 eV
             Fermi-level           -0.1578236 Eh           -4.2946 eV

 SCC (total)                   0 d,  0 h,  0 min,  0.004 sec
 SCC setup                      ...        0 min,  0.000 sec (  6.690%)
 Dispersion                     ...        0 min,  0.000 sec (  1.912%)
 classical contributions        ...        0 min,  0.000 sec (  0.946%)
 integral evaluation            ...        0 min,  0.000 sec ( 10.627%)
 iterations                     ...        0 min,  0.001 sec ( 41.298%)
 molecular gradient             ...        0 min,  0.001 sec ( 26.919%)
 printout                       ...        0 min,  0.000 sec (  7.074%)

         :::::::::::::::::::::::::::::::::::::::::::::::::::::
         ::                     SUMMARY                     ::
         :::::::::::::::::::::::::::::::::::::::::::::::::::::
         :: total energy             -17.083932601928 Eh    ::
         :: gradient norm              0.000255648591 Eh/a0 ::
         :: HOMO-LUMO gap             11.111196121729 eV    ::
         ::.................................................::
         :: SCC energy               -17.322897358316 Eh    ::
         :: -> isotropic ES            0.013321042592 Eh    ::
         :: -> anisotropic ES          0.005765214775 Eh    ::
         :: -> anisotropic XC          0.013385752510 Eh    ::
         :: -> dispersion             -0.008365254105 Eh    ::
         :: repulsion energy           0.238946326054 Eh    ::
         :: add. restraining           0.000000000000 Eh    ::
         :: total charge              -0.000000000000 e     ::
         :::::::::::::::::::::::::::::::::::::::::::::::::::::

           ------------------------------------------------- 
          |                Numerical Hessian                |
           ------------------------------------------------- 
step length          :   0.00500
SCC accuracy         :   0.30000
Hessian scale factor :   1.00000
frozen atoms in %    :   0.00000    0
RMS gradient         :   0.00026
estimated CPU  time      0.03 min
estimated wall time      0.00 min

writing file <hessian>.

 projected vibrational frequencies (cm⁻¹)
eigval :       -0.00    -0.00    -0.00    -0.00     0.00     0.00
eigval :      113.21   203.01   220.95   247.98   266.97   348.62
eigval :      432.87   472.06   849.92   885.60   948.05   958.04
eigval :      979.24  1005.44  1055.43  1114.37  1160.60  1189.94
eigval :     1219.84  1268.08  1314.47  1339.58  1372.98  1404.15
eigval :     1419.19  1486.80  1493.24  1500.17  1505.20  1508.24
eigval :     1565.78  2806.65  2916.76  2957.15  3024.81  3028.73
eigval :     3032.94  3034.99  3039.38  3058.43  3383.60  3417.19
           -------------------------------------------------
          |                Property Printout                |
           -------------------------------------------------

    * Orbital Energies and Occupations

         #    Occupation            Energy/Eh            Energy/eV
      -------------------------------------------------------------
         1        2.0000           -0.6281286             -17.0922
       ...           ...                  ...                  ...
         4        2.0000           -0.5716159             -15.5545
         5        2.0000           -0.5502468             -14.9730
         6        2.0000           -0.5142819             -13.9943
         7        2.0000           -0.5105811             -13.8936
         8        2.0000           -0.5061054             -13.7718
         9        2.0000           -0.4827726             -13.1369
        10        2.0000           -0.4634090             -12.6100
        11        2.0000           -0.4579746             -12.4621
        12        2.0000           -0.4514715             -12.2852
        13        2.0000           -0.4321215             -11.7586
        14        2.0000           -0.4268690             -11.6157
        15        2.0000           -0.4199277             -11.4268
        16        2.0000           -0.3619880              -9.8502 (HOMO)
        17                          0.0463409               1.2610 (LUMO)
        18                          0.0917694               2.4972
        19                          0.1092668               2.9733
        20                          0.1290326               3.5112
        21                          0.1392862               3.7902
        22                          0.1477189               4.0196
        23                          0.1827026               4.9716
        24                          0.1939835               5.2786
        25                          0.2083767               5.6702
        26                          0.2294894               6.2447
        27                          0.2389741               6.5028
       ...                                ...                  ...
        31                          0.2990926               8.1387
      -------------------------------------------------------------
                  HL-Gap            0.4083289 Eh           11.1112 eV
             Fermi-level           -0.1578236 Eh           -4.2946 eV

     #   Z          covCN         q      C6AA      α(0)
     1   1 h        0.925     0.030     2.581     2.512
     2   6 c        3.756    -0.107    22.608     6.780
     3   1 h        0.925     0.035     2.514     2.479
     4   1 h        0.925     0.038     2.478     2.462
     5   6 c        3.851    -0.013    20.771     6.482
     6   1 h        0.924     0.027     2.629     2.536
     7   6 c        3.735     0.021    20.303     6.431
     8   1 h        0.924     0.033     2.547     2.496
     9   1 h        0.923    -0.002     3.086     2.747
    10   6 c        3.756    -0.112    22.690     6.792
    11   1 h        0.925     0.036     2.497     2.471
    12   1 h        0.925     0.053     2.282     2.362
    13   1 h        0.925     0.033     2.550     2.497
    14   7 n        2.630    -0.340    28.763     7.965
    15   1 h        0.860     0.134     1.517     1.930
    16   1 h        0.860     0.134     1.518     1.930

 Mol. C6AA /au·bohr⁶  :       1662.278973
 Mol. C8AA /au·bohr⁸  :      33703.301685
 Mol. α(0) /au        :         60.871087


Wiberg/Mayer (AO) data.
largest (>0.10) Wiberg bond orders for each atom

 ---------------------------------------------------------------------------
     #   Z sym  total        # sym  WBO       # sym  WBO       # sym  WBO
 ---------------------------------------------------------------------------
     1   1 h    0.999 --     2 c    0.987
     2   6 c    3.997 --     5 c    1.009     3 h    0.987     1 h    0.987
                             4 h    0.987
     3   1 h    0.999 --     2 c    0.987
     4   1 h    0.998 --     2 c    0.987
     5   6 c    3.996 --    10 c    1.010     2 c    1.009     7 c    0.993
                             6 h    0.968
     6   1 h    0.999 --     5 c    0.968
     7   6 c    3.986 --    14 n    1.024     5 c    0.993     8 h    0.975
                             9 h    0.969
     8   1 h    0.999 --     7 c    0.975
     9   1 h    1.000 --     7 c    0.969
    10   6 c    3.996 --     5 c    1.010    13 h    0.987    11 h    0.987
                            12 h    0.984
    11   1 h    0.999 --    10 c    0.987
    12   1 h    0.997 --    10 c    0.984
    13   1 h    0.999 --    10 c    0.987
    14   7 n    3.002 --     7 c    1.024    16 h    0.969    15 h    0.969
    15   1 h    0.982 --    14 n    0.969
    16   1 h    0.982 --    14 n    0.969
 ---------------------------------------------------------------------------

Topologies differ in total number of bonds
Writing topology from bond orders to xtbtopo.mol

molecular dipole:
                 x           y           z       tot (Debye)
 q only:        0.009      -0.094      -0.051
   full:       -0.078      -0.470      -0.168       1.284
molecular quadrupole (traceless):
                xx          xy          yy          xz          yz          zz
 q only:        0.648       0.906      -0.669       0.462      -0.177       0.021
  q+dip:        0.492       3.359      -1.612       0.896      -0.023       1.120
   full:        0.965       3.146      -1.676       0.972      -0.186       0.711

           -------------------------------------------------
          |                Geometry Summary                 |
           -------------------------------------------------

      molecular mass/u    :       73.1369951
   center of mass at/Å    :       -0.0000065      -0.0000002      -0.0000002
  moments of inertia/u·Å² :        0.6670611E+02   0.1449345E+03   0.1891128E+03
rotational constants/cm⁻¹ :        0.2527150E+00   0.1163121E+00   0.8914061E-01

 * 15 selected distances

     #   Z          #   Z                                           value/Å
     1   1 h        2   6 c                                       1.0882201
     2   6 c        3   1 h                                       1.0880983
     2   6 c        4   1 h                                       1.0875010
     2   6 c        5   6 c                                       1.5259919
     5   6 c        6   1 h                                       1.0966881
     5   6 c        7   6 c                                       1.5321532 (max)
     7   6 c        8   1 h                                       1.0940046
     7   6 c        9   1 h                                       1.1045744
     5   6 c       10   6 c                                       1.5254107
    10   6 c       11   1 h                                       1.0877640
    10   6 c       12   1 h                                       1.0861113
    10   6 c       13   1 h                                       1.0876003
     7   6 c       14   7 n                                       1.4550806
    14   7 n       15   1 h                                       1.0150756
    14   7 n       16   1 h                                       1.0139489 (min)

 * 4 distinct bonds (by element types)

   Z      Z             #   av. dist./Å        max./Å        min./Å
   1 H    6 C           9     1.0911736     1.1045744     1.0861113
   6 C    6 C           3     1.5278520     1.5321532     1.5254107
   1 H    7 N           2     1.0145122     1.0150756     1.0139489
   6 C    7 N           1     1.4550806     1.4550806     1.4550806

           -------------------------------------------------
          |               Frequency Printout                |
           -------------------------------------------------
 projected vibrational frequencies (cm⁻¹)
eigval :       -0.00    -0.00    -0.00    -0.00     0.00     0.00
eigval :      113.21   203.01   220.95   247.98   266.97   348.62
eigval :      432.87   472.06   849.92   885.60   948.05   958.04
eigval :      979.24  1005.44  1055.43  1114.37  1160.60  1189.94
eigval :     1219.84  1268.08  1314.47  1339.58  1372.98  1404.15
eigval :     1419.19  1486.80  1493.24  1500.17  1505.20  1508.24
eigval :     1565.78  2806.65  2916.76  2957.15  3024.81  3028.73
eigval :     3032.94  3034.99  3039.38  3058.43  3383.60  3417.19
 reduced masses (amu)
   1: 10.63   2:  9.82   3: 10.66   4:  9.94   5:  9.76   6:  8.80   7:  8.08   8:  1.37
   9:  2.91  10:  5.39  11:  4.01  12:  7.90  13:  7.33  14:  9.25  15:  7.46  16:  3.57
  17:  2.69  18:  5.28  19:  4.24  20:  5.14  21:  3.01  22: 10.10  23:  7.39  24:  6.21
  25:  6.28  26:  2.65  27:  4.25  28:  4.65  29:  4.82  30:  3.40  31:  3.12  32:  1.81
  33:  1.59  34:  1.66  35:  1.54  36:  1.59  37:  2.08  38:  1.73  39:  1.74  40:  1.68
  41:  1.92  42:  1.89  43:  1.79  44:  1.60  45:  1.42  46:  1.68  47:  1.52  48:  2.06
 IR intensities (km·mol⁻¹)
   1:  0.09   2:  0.12   3:  0.08   4:  0.38   5:  0.09   6:  0.61   7:  3.54   8:  0.15
   9:  0.73  10: 28.51  11: 21.50  12:  0.13  13:  3.03  14:  1.86  15: 14.86  16: 44.60
  17:  0.42  18: 47.63  19: 13.23  20: 29.66  21: 22.14  22: 17.27  23:  5.64  24:  1.95
  25:  0.72  26: 14.29  27:  8.27  28:  8.95  29:  4.33  30:  4.43  31:  3.55  32:  2.33
  33:  0.50  34:  0.71  35:  2.01  36:  4.28  37: 29.61  38:120.62  39: 45.07  40: 52.28
  41: 31.13  42:  5.71  43: 73.11  44: 45.52  45: 50.27  46: 18.87  47: 12.61  48: 12.83
 Raman intensities (amu)
   1:  0.00   2:  0.00   3:  0.00   4:  0.00   5:  0.00   6:  0.00   7:  0.00   8:  0.00
   9:  0.00  10:  0.00  11:  0.00  12:  0.00  13:  0.00  14:  0.00  15:  0.00  16:  0.00
  17:  0.00  18:  0.00  19:  0.00  20:  0.00  21:  0.00  22:  0.00  23:  0.00  24:  0.00
  25:  0.00  26:  0.00  27:  0.00  28:  0.00  29:  0.00  30:  0.00  31:  0.00  32:  0.00
  33:  0.00  34:  0.00  35:  0.00  36:  0.00  37:  0.00  38:  0.00  39:  0.00  40:  0.00
  41:  0.00  42:  0.00  43:  0.00  44:  0.00  45:  0.00  46:  0.00  47:  0.00  48:  0.00
 output can be read by thermo (or use thermo option).
 writing <g98.out> molden fake output.
 recommended (thermochemical) frequency scaling factor: 1.0
           -------------------------------------------------
          |             Thermodynamic Functions             |
           -------------------------------------------------

Molecule has no symmetry elements
It seems to be the C1 point group
c1  symmetry found (for desy threshold:  0.10E+00) used in thermo

          ...................................................
          :                      SETUP                      :
          :.................................................:
          :  # frequencies                          42      :
          :  # imaginary freq.                       0      :
          :  linear?                             false      :
          :  only rotor calc.                    false      :
          :  symmetry                               c1      :
          :  rotational number                       1      :
          :  scaling factor                  1.0000000      :
          :  rotor cutoff                   50.0000000 cm⁻¹ :
          :  imag. cutoff                  -20.0000000 cm⁻¹ :
          :.................................................:

    mode    ω/cm⁻¹     T·S(HO)/kcal·mol⁻¹    T·S(FR)/kcal·mol⁻¹   T·S(vib)
   ------------------------------------------------------------------------
       1    113.21    -0.95800 ( 96.33%)    -0.81413 (  3.67%)    -0.95273
       2    203.01    -0.62780 ( 99.63%)    -0.64126 (  0.37%)    -0.62785
       3    220.95    -0.58177 ( 99.74%)    -0.61619 (  0.26%)    -0.58186
       4    247.98    -0.52024 ( 99.83%)    -0.58202 (  0.17%)    -0.52035
       5    266.97    -0.48174 ( 99.88%)    -0.56018 (  0.12%)    -0.48184
   ------------------------------------------------------------------------

   temp. (K)  partition function   enthalpy   heat capacity  entropy
                                   cal/mol     cal/K/mol   cal/K/mol   J/K/mol
 298.15  VIB   19.8                 2579.098     18.474     14.572
         ROT  0.103E+06              888.752      2.981     25.924
         INT  0.205E+07             3467.850     21.455     40.496
         TR   0.605E+27             1481.254      4.968     38.768
         TOT                        4949.1038    26.4228    79.2644   331.6421

       T/K    H(0)-H(T)+PV         H(T)/Eh          T*S/Eh         G(T)/Eh
   ------------------------------------------------------------------------
    298.15    0.788690E-02    0.154944E+00    0.376611E-01    0.117283E+00
   ------------------------------------------------------------------------

         :::::::::::::::::::::::::::::::::::::::::::::::::::::
         ::                  THERMODYNAMIC                  ::
         :::::::::::::::::::::::::::::::::::::::::::::::::::::
         :: total free energy         -16.966649604701 Eh   ::
         ::.................................................::
         :: total energy              -17.083932601928 Eh   ::
         :: zero point energy           0.147057151062 Eh   ::
         :: G(RRHO) w/o ZPVE           -0.029774153835 Eh   ::
         :: G(RRHO) contrib.            0.117282997227 Eh   ::
         :::::::::::::::::::::::::::::::::::::::::::::::::::::

optimized geometry written to: xtbopt.coord


           -------------------------------------------------
          | TOTAL ENERGY              -17.083932601928 Eh   |
          | TOTAL ENTHALPY            -16.928988551888 Eh   |
          | TOTAL FREE ENERGY         -16.966649604701 Eh   |
          | GRADIENT NORM               0.000255649806 Eh/α |
          | HOMO-LUMO GAP              11.111196164320 eV   |
           -------------------------------------------------

------------------------------------------------------------------------
 * finished run on 2022/10/12 at 01:32:46.364     
------------------------------------------------------------------------
 total:
 * wall-time:     0 d,  0 h,  0 min,  0.162 sec
 *  cpu-time:     0 d,  0 h,  0 min,  2.792 sec
 * ratio c/w:    17.254 speedup
 SCF:
 * wall-time:     0 d,  0 h,  0 min,  0.011 sec
 *  cpu-time:     0 d,  0 h,  0 min,  0.255 sec
 * ratio c/w:    23.153 speedup
 ANC optimizer:
 * wall-time:     0 d,  0 h,  0 min,  0.028 sec
 *  cpu-time:     0 d,  0 h,  0 min,  0.570 sec
 * ratio c/w:    20.172 speedup
 analytical hessian:
 * wall-time:     0 d,  0 h,  0 min,  0.060 sec
 *  cpu-time:     0 d,  0 h,  0 min,  1.206 sec
 * ratio c/w:    20.215 speedup

