16
 energy: -17.083932601928 gnorm: 0.000255613614 xtb: 6.5.1 (579679a)
h            1.68261622459585       -1.80588992264339       -0.37363514374329
c            1.75064420971503       -0.78556448900349       -0.00143753501029
h            1.90107321640884       -0.82270274572632        1.07557196344483
h            2.61967351337555       -0.31284449265617       -0.45308131037611
c            0.48608653446409        0.00152362103772       -0.33315582877305
h            0.34860279139937        0.00275154451709       -1.42119136722970
c           -0.74135005854850       -0.66491852723229        0.29672301517429
h           -0.67096688135201       -0.59495388553028        1.38621690133228
h           -0.74485285087950       -1.73625978398431        0.02783639892874
c            0.60390298383699        1.44616927592347        0.14223423654842
h            0.81666098983998        1.47401597470611        1.20862477906937
h           -0.33164802456011        1.96827511367981       -0.03605573872123
h            1.40499456604342        1.95973725086160       -0.38442932173990
n           -1.95713461256501        0.02487692995960       -0.10739248666616
h           -2.07823541516568       -0.04518849624262       -1.11277978708072
h           -2.76664893252408       -0.39940367064439        0.33165730708300
