      -----------------------------------------------------------      
     |                   =====================                   |     
     |                           x T B                           |     
     |                   =====================                   |     
     |                         S. Grimme                         |     
     |          Mulliken Center for Theoretical Chemistry        |     
     |                    University of Bonn                     |     
      -----------------------------------------------------------      

   * xtb version 6.5.1 (579679a) compiled by 'ehlert@majestix' on 2022-07-11

   xtb is free software: you can redistribute it and/or modify it under
   the terms of the GNU Lesser General Public License as published by
   the Free Software Foundation, either version 3 of the License, or
   (at your option) any later version.
   
   xtb is distributed in the hope that it will be useful,
   but WITHOUT ANY WARRANTY; without even the implied warranty of
   MERCHANTABILITY or FITNESS FOR A PARTICULAR PURPOSE.  See the
   GNU Lesser General Public License for more details.
   
   Cite this work as:
   * C. Bannwarth, E. Caldeweyher, S. Ehlert, A. Hansen, P. Pracht,
     J. Seibert, S. Spicher, S. Grimme, WIREs Comput. Mol. Sci., 2020, 11,
     e01493. DOI: 10.1002/wcms.1493
   
   for GFN2-xTB:
   * C. Bannwarth, S. Ehlert and S. Grimme., J. Chem. Theory Comput., 2019,
     15, 1652-1671. DOI: 10.1021/acs.jctc.8b01176
   for GFN1-xTB:
   * S. Grimme, C. Bannwarth, P. Shushkov, J. Chem. Theory Comput., 2017,
     13, 1989-2009. DOI: 10.1021/acs.jctc.7b00118
   for GFN0-xTB:
   * P. Pracht, E. Caldeweyher, S. Ehlert, S. Grimme, ChemRxiv, 2019, preprint.
     DOI: 10.26434/chemrxiv.8326202.v1
   for GFN-FF:
   * S. Spicher and S. Grimme, Angew. Chem. Int. Ed., 2020, 59, 15665-15673.
     DOI: 10.1002/anie.202004239
   
   for ALPB and GBSA implicit solvation:
   * S. Ehlert, M. Stahn, S. Spicher, S. Grimme, J. Chem. Theory Comput.,
     2021, 17, 4250-4261. DOI: 10.1021/acs.jctc.1c00471
   
   for DFT-D4:
   * E. Caldeweyher, C. Bannwarth and S. Grimme, J. Chem. Phys., 2017,
     147, 034112. DOI: 10.1063/1.4993215
   * E. Caldeweyher, S. Ehlert, A. Hansen, H. Neugebauer, S. Spicher,
     C. Bannwarth and S. Grimme, J. Chem. Phys., 2019, 150, 154122.
     DOI: 10.1063/1.5090222
   * E. Caldeweyher, J.-M. Mewes, S. Ehlert and S. Grimme, Phys. Chem. Chem. Phys.
     2020, 22, 8499-8512. DOI: 10.1039/D0CP00502A
   
   for sTDA-xTB:
   * S. Grimme and C. Bannwarth, J. Chem. Phys., 2016, 145, 054103.
     DOI: 10.1063/1.4959605
   
   in the mass-spec context:
   * V. Asgeirsson, C. Bauer and S. Grimme, Chem. Sci., 2017, 8, 4879.
     DOI: 10.1039/c7sc00601b
   * J. Koopman and S. Grimme, ACS Omega 2019, 4, 12, 15120-15133.
     DOI: 10.1021/acsomega.9b02011
   
   for metadynamics refer to:
   * S. Grimme, J. Chem. Theory Comput., 2019, 155, 2847-2862
     DOI: 10.1021/acs.jctc.9b00143
   
   for SPH calculations refer to:
   * S. Spicher and S. Grimme, J. Chem. Theory Comput., 2021, 17, 1701-1714
     DOI: 10.1021/acs.jctc.0c01306
   
   with help from (in alphabetical order)
   P. Atkinson, C. Bannwarth, F. Bohle, G. Brandenburg, E. Caldeweyher
   M. Checinski, S. Dohm, S. Ehlert, S. Ehrlich, I. Gerasimov, C. Hölzer
   A. Katbashev, J. Koopman, C. Lavigne, S. Lehtola, F. März, M. Müller,
   F. Musil, H. Neugebauer, J. Pisarek, C. Plett, P. Pracht, F. Pultar,
   J. Seibert, P. Shushkov, S. Spicher, M. Stahn, M. Steiner, T. Strunk,
   J. Stückrath, T. Rose, and J. Unsleber
   
 * started run on 2022/10/12 at 01:33:02.581     

           -------------------------------------------------
          |                Calculation Setup                |
           -------------------------------------------------

          program call               : xtb solvent_cut.coord --gfn2 --ohess
          hostname                   : cn0943
          coordinate file            : solvent_cut.coord
          omp threads                :                     6

   ID    Z sym.   atoms
    1    8 o      1, 4, 7, 10, 13, 16, 19, 22, 25, 28, 31, 34, 37, 40, 43,
                  46, 49, 52, 55, 58, 61, 64, 67, 70, 73
    2    1 h      2, 3, 5, 6, 8, 9, 11, 12, 14, 15, 17, 18, 20, 21, 23, 24,
                  26, 27, 29, 30, 32, 33, 35, 36, 38, 39, 41, 42, 44, 45, 47,
                  48, 50, 51, 53, 54, 56, 57, 59, 60, 62, 63, 65, 66, 68, 69,
                  71, 72, 74, 75

molecular fragmentation (1/2 indicates fragments):
111222222222222222222222222222222222222222222222222222222222222222222222
222
# atoms in fragment 1/2:     3    72
 fragment masses (1/2) :       18.02      432.37
CMA distance (Bohr)    :   9.052
constraining FC (au)   :  0.0500

           -------------------------------------------------
          |                 G F N 2 - x T B                 |
           -------------------------------------------------

        Reference                      10.1021/acs.jctc.8b01176
      * Hamiltonian:
        H0-scaling (s, p, d)           1.850000    2.230000    2.230000
        zeta-weighting                 0.500000
      * Dispersion:
        s8                             2.700000
        a1                             0.520000
        a2                             5.000000
        s9                             5.000000
      * Repulsion:
        kExp                           1.500000    1.000000
        rExp                           1.000000
      * Coulomb:
        alpha                          2.000000
        third order                    shell-resolved
        anisotropic                    true
        a3                             3.000000
        a5                             4.000000
        cn-shift                       1.200000
        cn-exp                         4.000000
        max-rad                        5.000000


          ...................................................
          :                      SETUP                      :
          :.................................................:
          :  # basis functions                 150          :
          :  # atomic orbitals                 150          :
          :  # shells                          100          :
          :  # electrons                       200          :
          :  max. iterations                   250          :
          :  Hamiltonian                  GFN2-xTB          :
          :  restarted?                      false          :
          :  GBSA solvation                  false          :
          :  PC potential                    false          :
          :  electronic temp.          300.0000000     K    :
          :  accuracy                    1.0000000          :
          :  -> integral cutoff          0.2500000E+02      :
          :  -> integral neglect         0.1000000E-07      :
          :  -> SCF convergence          0.1000000E-05 Eh   :
          :  -> wf. convergence          0.1000000E-03 e    :
          :  Broyden damping             0.4000000          :
          ...................................................

 iter      E             dE          RMSdq      gap      omega  full diag
   1   -127.8697019 -0.127870E+03  0.402E+00   10.93       0.0  T
   2   -127.8796425 -0.994059E-02  0.238E+00   10.24       1.0  T
   3   -127.8830517 -0.340915E-02  0.234E-01    9.00       1.0  T
   4   -127.8837269 -0.675198E-03  0.552E-02    9.23       1.0  T
   5   -127.8837584 -0.314998E-04  0.332E-02    9.18       1.0  T
   6   -127.8837640 -0.565154E-05  0.297E-03    9.20       3.9  T
   7   -127.8837641 -0.104492E-06  0.905E-04    9.20      12.8  T
   8   -127.8837641 -0.458370E-08  0.478E-04    9.20      24.2  T

   *** convergence criteria satisfied after 8 iterations ***

         #    Occupation            Energy/Eh            Energy/eV
      -------------------------------------------------------------
         1        2.0000           -0.7353370             -20.0095
       ...           ...                  ...                  ...
        94        2.0000           -0.4259636             -11.5911
        95        2.0000           -0.4252990             -11.5730
        96        2.0000           -0.4233024             -11.5186
        97        2.0000           -0.4173264             -11.3560
        98        2.0000           -0.4166561             -11.3378
        99        2.0000           -0.4113426             -11.1932
       100        2.0000           -0.4016290             -10.9289 (HOMO)
       101                         -0.0635406              -1.7290 (LUMO)
       102                         -0.0187002              -0.5089
       103                         -0.0006159              -0.0168
       104                          0.0062790               0.1709
       105                          0.0289965               0.7890
       ...                                ...                  ...
       150                          0.3713933              10.1061
      -------------------------------------------------------------
                  HL-Gap            0.3380884 Eh            9.1999 eV
             Fermi-level           -0.2325848 Eh           -6.3290 eV

 SCC (total)                   0 d,  0 h,  0 min,  0.069 sec
 SCC setup                      ...        0 min,  0.001 sec (  0.826%)
 Dispersion                     ...        0 min,  0.001 sec (  1.317%)
 classical contributions        ...        0 min,  0.000 sec (  0.178%)
 integral evaluation            ...        0 min,  0.005 sec (  6.970%)
 iterations                     ...        0 min,  0.043 sec ( 63.305%)
 molecular gradient             ...        0 min,  0.018 sec ( 26.545%)
 printout                       ...        0 min,  0.001 sec (  0.750%)

         :::::::::::::::::::::::::::::::::::::::::::::::::::::
         ::                     SUMMARY                     ::
         :::::::::::::::::::::::::::::::::::::::::::::::::::::
         :: total energy            -127.125088397511 Eh    ::
         :: gradient norm              0.051036610929 Eh/a0 ::
         :: HOMO-LUMO gap              9.199854774745 eV    ::
         ::.................................................::
         :: SCC energy              -127.883764135807 Eh    ::
         :: -> isotropic ES            0.765235237154 Eh    ::
         :: -> anisotropic ES         -0.126342588979 Eh    ::
         :: -> anisotropic XC         -0.016127025445 Eh    ::
         :: -> dispersion             -0.037381775274 Eh    ::
         :: repulsion energy           0.756300167224 Eh    ::
         :: add. restraining           0.000000000000 Eh    ::
         :: total charge               0.000000000000 e     ::
         :::::::::::::::::::::::::::::::::::::::::::::::::::::

      ----------------------------------------------------------- 
     |                   =====================                   |
     |                        A N C O P T                        |
     |                   =====================                   |
     |               Approximate Normal Coordinate               |
     |                Rational Function Optimizer                |
      ----------------------------------------------------------- 

          ...................................................
          :                      SETUP                      :
          :.................................................:
          :   optimization level            normal          :
          :   max. optcycles                   225          :
          :   ANC micro-cycles                  20          :
          :   degrees of freedom               219          :
          :.................................................:
          :   RF solver                   davidson          :
          :   write xtbopt.log                true          :
          :   linear?                        false          :
          :   energy convergence         0.5000000E-05 Eh   :
          :   grad. convergence          0.1000000E-02 Eh/α :
          :   maximium RF displ.         1.0000000          :
          :   Hlow (freq-cutoff)         0.1000000E-01      :
          :   Hmax (freq-cutoff)         5.0000000          :
          :   S6 in model hess.         20.0000000          :
          ...................................................

generating ANC from model Hessian ...
Using Lindh-Hessian (1995)
 Shifting diagonal of input Hessian by   1.076583747337315E-002
 Lowest  eigenvalues of input Hessian
    0.010000    0.010592    0.010627    0.010664    0.010675    0.010698
    0.010721    0.010760    0.000000    0.000000    0.000000    0.000000
    0.000000    0.000000    0.010776    0.010786    0.010837    0.010870
 Highest eigenvalues
    1.409962    1.411049    1.411172    1.416217    1.416338    1.416841
 

........................................................................
.............................. CYCLE    1 ..............................
........................................................................
   1   -127.8837641 -0.127884E+03  0.459E-05    9.20       0.0  T
   2   -127.8837641 -0.100755E-10  0.263E-05    9.20     438.8  T
   3   -127.8837641 -0.243006E-11  0.618E-06    9.20    1868.5  T
     SCC iter.                  ...        0 min,  0.014 sec
     gradient                   ...        0 min,  0.018 sec
 * total energy  :  -127.1250884 Eh     change       -0.2644867E-08 Eh
   gradient norm :     0.0510383 Eh/α   predicted     0.0000000E+00 (-100.00%)
   displ. norm   :     0.3521387 α      lambda       -0.5585904E-02
   maximum displ.:     0.0966456 α      in ANC's #1, #9, #51, ...

........................................................................
.............................. CYCLE    2 ..............................
........................................................................
   1   -127.8893202 -0.127889E+03  0.927E-02    9.75       0.0  T
   2   -127.8893427 -0.225183E-04  0.565E-02    9.81       1.0  T
   3   -127.8893482 -0.554620E-05  0.835E-03    9.87       1.4  T
   4   -127.8893490 -0.746025E-06  0.192E-03    9.86       6.0  T
   5   -127.8893490 -0.798399E-08  0.241E-04    9.86      47.9  T
   6   -127.8893490 -0.213603E-09  0.106E-04    9.86     109.0  T
     SCC iter.                  ...        0 min,  0.026 sec
     gradient                   ...        0 min,  0.018 sec
 * total energy  :  -127.1288458 Eh     change       -0.3757438E-02 Eh
   gradient norm :     0.0254224 Eh/α   predicted    -0.3140027E-02 ( -16.43%)
   displ. norm   :     0.3872437 α      lambda       -0.3062296E-02
   maximum displ.:     0.1260758 α      in ANC's #9, #27, #15, ...

........................................................................
.............................. CYCLE    3 ..............................
........................................................................
   1   -127.8969193 -0.127897E+03  0.694E-02   10.13       0.0  T
   2   -127.8969449 -0.256309E-04  0.406E-02   10.16       1.0  T
   3   -127.8969492 -0.429751E-05  0.940E-03   10.20       1.2  T
   4   -127.8969498 -0.605174E-06  0.160E-03   10.20       7.2  T
   5   -127.8969498 -0.768756E-08  0.265E-04   10.20      43.6  T
   6   -127.8969498 -0.313634E-09  0.978E-05   10.20     118.0  T
     SCC iter.                  ...        0 min,  0.025 sec
     gradient                   ...        0 min,  0.018 sec
 * total energy  :  -127.1306549 Eh     change       -0.1809025E-02 Eh
   gradient norm :     0.0228236 Eh/α   predicted    -0.1760775E-02 (  -2.67%)
   displ. norm   :     0.3696581 α      lambda       -0.1544739E-02
   maximum displ.:     0.1354531 α      in ANC's #9, #1, #15, ...

........................................................................
.............................. CYCLE    4 ..............................
........................................................................
   1   -127.8978652 -0.127898E+03  0.481E-02   10.23       0.0  T
   2   -127.8978715 -0.632120E-05  0.290E-02   10.25       1.0  T
   3   -127.8978726 -0.113168E-05  0.440E-03   10.27       2.6  T
   4   -127.8978729 -0.212874E-06  0.795E-04   10.27      14.5  T
   5   -127.8978729 -0.197709E-08  0.125E-04   10.27      92.2  T
     SCC iter.                  ...        0 min,  0.021 sec
     gradient                   ...        0 min,  0.018 sec
 * total energy  :  -127.1319406 Eh     change       -0.1285783E-02 Eh
   gradient norm :     0.0125835 Eh/α   predicted    -0.8779118E-03 ( -31.72%)
   displ. norm   :     0.6214436 α      lambda       -0.1884876E-02
   maximum displ.:     0.2405057 α      in ANC's #9, #1, #27, ...

........................................................................
.............................. CYCLE    5 ..............................
........................................................................
   1   -127.8939627 -0.127894E+03  0.766E-02   10.24       0.0  T
   2   -127.8939733 -0.106636E-04  0.468E-02   10.26       1.0  T
   3   -127.8939760 -0.261489E-05  0.541E-03   10.28       2.1  T
   4   -127.8939763 -0.374173E-06  0.134E-03   10.28       8.6  T
   5   -127.8939763 -0.409155E-08  0.173E-04   10.28      66.7  T
   6   -127.8939763 -0.116259E-09  0.780E-05   10.28     148.1  T
     SCC iter.                  ...        0 min,  0.025 sec
     gradient                   ...        0 min,  0.018 sec
 * total energy  :  -127.1329224 Eh     change       -0.9817650E-03 Eh
   gradient norm :     0.0269087 Eh/α   predicted    -0.1306410E-02 (  33.07%)
   displ. norm   :     0.3997786 α      lambda       -0.1928116E-02
   maximum displ.:     0.1475762 α      in ANC's #9, #19, #5, ...

........................................................................
.............................. CYCLE    6 ..............................
........................................................................
   1   -127.9008705 -0.127901E+03  0.491E-02   10.38       0.0  T
   2   -127.9008789 -0.837481E-05  0.290E-02   10.38       1.0  T
   3   -127.9008813 -0.239830E-05  0.557E-03   10.38       2.1  T
   4   -127.9008815 -0.255065E-06  0.152E-03   10.38       7.6  T
   5   -127.9008815 -0.649433E-08  0.163E-04   10.38      71.0  T
   6   -127.9008815 -0.177437E-09  0.624E-05   10.38     184.9  T
     SCC iter.                  ...        0 min,  0.025 sec
     gradient                   ...        0 min,  0.018 sec
 * total energy  :  -127.1336144 Eh     change       -0.6919963E-03 Eh
   gradient norm :     0.0270744 Eh/α   predicted    -0.1118156E-02 (  61.58%)
   displ. norm   :     0.3668083 α      lambda       -0.2099273E-02
   maximum displ.:     0.1237929 α      in ANC's #9, #26, #19, ...

........................................................................
.............................. CYCLE    7 ..............................
........................................................................
   1   -127.8995400 -0.127900E+03  0.661E-02   10.41       0.0  T
   2   -127.8995484 -0.846379E-05  0.398E-02   10.41       1.0  T
   3   -127.8995516 -0.311275E-05  0.554E-03   10.41       2.1  T
   4   -127.8995518 -0.260646E-06  0.182E-03   10.41       6.3  T
   5   -127.8995518 -0.889379E-08  0.161E-04   10.41      71.5  T
   6   -127.8995518 -0.162956E-09  0.739E-05   10.41     156.2  T
     SCC iter.                  ...        0 min,  0.025 sec
     gradient                   ...        0 min,  0.018 sec
 * total energy  :  -127.1341741 Eh     change       -0.5596579E-03 Eh
   gradient norm :     0.0346407 Eh/α   predicted    -0.1190864E-02 ( 112.78%)
   displ. norm   :     0.2810804 α      lambda       -0.1929853E-02
   maximum displ.:     0.1519886 α      in ANC's #1, #9, #5, ...

........................................................................
.............................. CYCLE    8 ..............................
........................................................................
   1   -127.8982724 -0.127898E+03  0.469E-02   10.38       0.0  T
   2   -127.8982772 -0.479243E-05  0.278E-02   10.38       1.0  T
   3   -127.8982782 -0.102621E-05  0.401E-03   10.38       2.9  T
   4   -127.8982784 -0.154040E-06  0.939E-04   10.38      12.3  T
   5   -127.8982784 -0.141567E-08  0.949E-05   10.38     121.6  T
     SCC iter.                  ...        0 min,  0.022 sec
     gradient                   ...        0 min,  0.018 sec
 * total energy  :  -127.1353833 Eh     change       -0.1209189E-02 Eh
   gradient norm :     0.0116992 Eh/α   predicted    -0.1041164E-02 ( -13.90%)
   displ. norm   :     0.5701275 α      lambda       -0.1341272E-02
   maximum displ.:     0.2290421 α      in ANC's #9, #1, #5, ...

........................................................................
.............................. CYCLE    9 ..............................
........................................................................
   1   -127.8933706 -0.127893E+03  0.588E-02   10.31       0.0  T
   2   -127.8933779 -0.729407E-05  0.362E-02   10.31       1.0  T
   3   -127.8933801 -0.219795E-05  0.451E-03   10.31       2.6  T
   4   -127.8933803 -0.244909E-06  0.133E-03   10.31       8.7  T
   5   -127.8933803 -0.469976E-08  0.155E-04   10.31      74.6  T
   6   -127.8933803 -0.135941E-09  0.686E-05   10.31     168.2  T
     SCC iter.                  ...        0 min,  0.025 sec
     gradient                   ...        0 min,  0.018 sec
 * total energy  :  -127.1361959 Eh     change       -0.8126735E-03 Eh
   gradient norm :     0.0258536 Eh/α   predicted    -0.8886224E-03 (   9.35%)
   displ. norm   :     0.5139462 α      lambda       -0.1633784E-02
   maximum displ.:     0.2013789 α      in ANC's #9, #19, #26, ...

........................................................................
.............................. CYCLE   10 ..............................
........................................................................
   1   -127.8969817 -0.127897E+03  0.388E-02   10.36       0.0  T
   2   -127.8969855 -0.380598E-05  0.233E-02   10.36       1.0  T
   3   -127.8969865 -0.101405E-05  0.351E-03   10.36       3.3  T
   4   -127.8969866 -0.113076E-06  0.868E-04   10.36      13.3  T
   5   -127.8969866 -0.240679E-08  0.137E-04   10.36      84.5  T
     SCC iter.                  ...        0 min,  0.022 sec
     gradient                   ...        0 min,  0.018 sec
 * total energy  :  -127.1373574 Eh     change       -0.1161449E-02 Eh
   gradient norm :     0.0179447 Eh/α   predicted    -0.1032667E-02 ( -11.09%)
   displ. norm   :     0.6663608 α      lambda       -0.1762944E-02
   maximum displ.:     0.2734646 α      in ANC's #9, #1, #26, ...

........................................................................
.............................. CYCLE   11 ..............................
........................................................................
   1   -127.8944161 -0.127894E+03  0.613E-02   10.36       0.0  T
   2   -127.8944232 -0.712957E-05  0.374E-02   10.36       1.0  T
   3   -127.8944255 -0.228959E-05  0.464E-03   10.36       2.5  T
   4   -127.8944257 -0.225702E-06  0.129E-03   10.36       9.0  T
   5   -127.8944257 -0.479145E-08  0.179E-04   10.36      64.4  T
   6   -127.8944257 -0.155524E-09  0.747E-05   10.36     154.6  T
     SCC iter.                  ...        0 min,  0.025 sec
     gradient                   ...        0 min,  0.018 sec
 * total energy  :  -127.1385907 Eh     change       -0.1233371E-02 Eh
   gradient norm :     0.0134113 Eh/α   predicted    -0.1272884E-02 (   3.20%)
   displ. norm   :     0.6665406 α      lambda       -0.1328993E-02
   maximum displ.:     0.2696382 α      in ANC's #9, #1, #26, ...

........................................................................
.............................. CYCLE   12 ..............................
........................................................................
   1   -127.8941206 -0.127894E+03  0.542E-02   10.33       0.0  T
   2   -127.8941296 -0.904576E-05  0.330E-02   10.33       1.0  T
   3   -127.8941314 -0.173959E-05  0.529E-03   10.33       2.2  T
   4   -127.8941317 -0.306418E-06  0.104E-03   10.33      11.1  T
   5   -127.8941317 -0.340589E-08  0.168E-04   10.33      68.5  T
   6   -127.8941317 -0.144993E-09  0.652E-05   10.33     177.2  T
     SCC iter.                  ...        0 min,  0.025 sec
     gradient                   ...        0 min,  0.018 sec
 * total energy  :  -127.1396318 Eh     change       -0.1041017E-02 Eh
   gradient norm :     0.0146372 Eh/α   predicted    -0.9597181E-03 (  -7.81%)
   displ. norm   :     0.6241977 α      lambda       -0.1371497E-02
   maximum displ.:     0.2527684 α      in ANC's #9, #1, #26, ...

........................................................................
.............................. CYCLE   13 ..............................
........................................................................
   1   -127.8975981 -0.127898E+03  0.549E-02   10.34       0.0  T
   2   -127.8976084 -0.102279E-04  0.326E-02   10.34       1.0  T
   3   -127.8976104 -0.203977E-05  0.593E-03   10.34       1.9  T
   4   -127.8976107 -0.311108E-06  0.114E-03   10.34      10.1  T
   5   -127.8976107 -0.425742E-08  0.199E-04   10.34      58.1  T
   6   -127.8976107 -0.230642E-09  0.664E-05   10.34     174.0  T
     SCC iter.                  ...        0 min,  0.025 sec
     gradient                   ...        0 min,  0.018 sec
 * total energy  :  -127.1404763 Eh     change       -0.8444866E-03 Eh
   gradient norm :     0.0153667 Eh/α   predicted    -0.9529363E-03 (  12.84%)
   displ. norm   :     0.5894066 α      lambda       -0.1003511E-02
   maximum displ.:     0.2403492 α      in ANC's #9, #1, #5, ...

........................................................................
.............................. CYCLE   14 ..............................
........................................................................
   1   -127.8991177 -0.127899E+03  0.433E-02   10.33       0.0  T
   2   -127.8991206 -0.291965E-05  0.264E-02   10.33       1.0  T
   3   -127.8991216 -0.996447E-06  0.300E-03   10.33       3.8  T
   4   -127.8991217 -0.893552E-07  0.923E-04   10.33      12.5  T
   5   -127.8991217 -0.222228E-08  0.113E-04   10.33     102.5  T
     SCC iter.                  ...        0 min,  0.022 sec
     gradient                   ...        0 min,  0.018 sec
 * total energy  :  -127.1411642 Eh     change       -0.6879881E-03 Eh
   gradient norm :     0.0121658 Eh/α   predicted    -0.6760663E-03 (  -1.73%)
   displ. norm   :     0.5829638 α      lambda       -0.8226701E-03
   maximum displ.:     0.2556069 α      in ANC's #9, #1, #5, ...

........................................................................
.............................. CYCLE   15 ..............................
........................................................................
   1   -127.9009088 -0.127901E+03  0.387E-02   10.32       0.0  T
   2   -127.9009115 -0.265830E-05  0.238E-02   10.32       1.0  T
   3   -127.9009125 -0.977867E-06  0.275E-03   10.32       4.2  T
   4   -127.9009125 -0.785679E-07  0.866E-04   10.32      13.3  T
   5   -127.9009125 -0.257126E-08  0.123E-04   10.32      94.0  T
     SCC iter.                  ...        0 min,  0.021 sec
     gradient                   ...        0 min,  0.018 sec
 * total energy  :  -127.1417613 Eh     change       -0.5970127E-03 Eh
   gradient norm :     0.0101663 Eh/α   predicted    -0.5511324E-03 (  -7.68%)
   displ. norm   :     0.5876866 α      lambda       -0.9773081E-03
   maximum displ.:     0.2767659 α      in ANC's #9, #22, #8, ...

........................................................................
.............................. CYCLE   16 ..............................
........................................................................
   1   -127.9078536 -0.127908E+03  0.436E-02   10.35       0.0  T
   2   -127.9078577 -0.419379E-05  0.261E-02   10.35       1.0  T
   3   -127.9078589 -0.113605E-05  0.369E-03   10.34       3.1  T
   4   -127.9078590 -0.133876E-06  0.924E-04   10.34      12.5  T
   5   -127.9078590 -0.297189E-08  0.140E-04   10.34      82.7  T
     SCC iter.                  ...        0 min,  0.021 sec
     gradient                   ...        0 min,  0.018 sec
 * total energy  :  -127.1423265 Eh     change       -0.5652345E-03 Eh
   gradient norm :     0.0168319 Eh/α   predicted    -0.6574257E-03 (  16.31%)
   displ. norm   :     0.6320533 α      lambda       -0.1084532E-02
   maximum displ.:     0.3157380 α      in ANC's #9, #1, #5, ...

........................................................................
.............................. CYCLE   17 ..............................
........................................................................
   1   -127.8987316 -0.127899E+03  0.576E-02   10.27       0.0  T
   2   -127.8987444 -0.127442E-04  0.345E-02   10.27       1.0  T
   3   -127.8987475 -0.310481E-05  0.654E-03   10.26       1.8  T
   4   -127.8987479 -0.388246E-06  0.151E-03   10.26       7.6  T
   5   -127.8987479 -0.703281E-08  0.199E-04   10.26      58.0  T
   6   -127.8987479 -0.248576E-09  0.770E-05   10.26     149.9  T
     SCC iter.                  ...        0 min,  0.025 sec
     gradient                   ...        0 min,  0.018 sec
 * total energy  :  -127.1426366 Eh     change       -0.3101008E-03 Eh
   gradient norm :     0.0209053 Eh/α   predicted    -0.7588984E-03 ( 144.73%)
   displ. norm   :     0.3542423 α      lambda       -0.1269361E-02
   maximum displ.:     0.1199440 α      in ANC's #9, #22, #10, ...

........................................................................
.............................. CYCLE   18 ..............................
........................................................................
   1   -127.9060229 -0.127906E+03  0.495E-02   10.29       0.0  T
   2   -127.9060317 -0.873871E-05  0.296E-02   10.29       1.0  T
   3   -127.9060339 -0.218882E-05  0.542E-03   10.29       2.1  T
   4   -127.9060341 -0.253503E-06  0.132E-03   10.29       8.7  T
   5   -127.9060341 -0.486692E-08  0.190E-04   10.29      60.7  T
   6   -127.9060341 -0.172790E-09  0.714E-05   10.29     161.8  T
     SCC iter.                  ...        0 min,  0.025 sec
     gradient                   ...        0 min,  0.019 sec
 * total energy  :  -127.1430072 Eh     change       -0.3706307E-03 Eh
   gradient norm :     0.0197077 Eh/α   predicted    -0.7143290E-03 (  92.73%)
   displ. norm   :     0.3658655 α      lambda       -0.1002568E-02
   maximum displ.:     0.1877507 α      in ANC's #9, #26, #5, ...

........................................................................
.............................. CYCLE   19 ..............................
........................................................................
   1   -127.9058121 -0.127906E+03  0.405E-02   10.27       0.0  T
   2   -127.9058165 -0.439491E-05  0.240E-02   10.27       1.0  T
   3   -127.9058176 -0.105905E-05  0.378E-03   10.27       3.1  T
   4   -127.9058177 -0.132807E-06  0.972E-04   10.27      11.9  T
   5   -127.9058177 -0.253452E-08  0.116E-04   10.27      99.4  T
     SCC iter.                  ...        0 min,  0.021 sec
     gradient                   ...        0 min,  0.018 sec
 * total energy  :  -127.1433919 Eh     change       -0.3846554E-03 Eh
   gradient norm :     0.0158887 Eh/α   predicted    -0.5683885E-03 (  47.77%)
   displ. norm   :     0.3454687 α      lambda       -0.6629681E-03
   maximum displ.:     0.1667620 α      in ANC's #9, #22, #10, ...

........................................................................
.............................. CYCLE   20 ..............................
........................................................................
   1   -127.9055234 -0.127906E+03  0.333E-02   10.27       0.0  T
   2   -127.9055267 -0.328374E-05  0.200E-02   10.27       1.0  T
   3   -127.9055278 -0.109444E-05  0.338E-03   10.27       3.4  T
   4   -127.9055279 -0.996851E-07  0.938E-04   10.27      12.3  T
   5   -127.9055279 -0.262571E-08  0.103E-04   10.27     112.4  T
     SCC iter.                  ...        0 min,  0.021 sec
     gradient                   ...        0 min,  0.018 sec
 * total energy  :  -127.1436817 Eh     change       -0.2898164E-03 Eh
   gradient norm :     0.0129681 Eh/α   predicted    -0.3710498E-03 (  28.03%)
   displ. norm   :     0.3401136 α      lambda       -0.5898388E-03
   maximum displ.:     0.1612265 α      in ANC's #9, #22, #10, ...
 * RMSD in coord.:     0.9334825 α      energy gain  -0.1859329E-01 Eh

generating ANC from model Hessian ...
Using Lindh-Hessian (1995)
 Shifting diagonal of input Hessian by   1.016606470547974E-002
 Lowest  eigenvalues of input Hessian
    0.010000    0.010021    0.010073    0.010127    0.010156    0.000000
    0.000000    0.000000    0.000000    0.000000    0.000000    0.010207
    0.010225    0.010250    0.010264    0.010311    0.010318    0.010358
 Highest eigenvalues
    1.406037    1.409251    1.411854    1.414010    1.417567    1.426567
 

........................................................................
.............................. CYCLE   21 ..............................
........................................................................
   1   -127.9051079 -0.127905E+03  0.309E-02   10.26       0.0  T
   2   -127.9051095 -0.158829E-05  0.187E-02   10.26       1.0  T
   3   -127.9051100 -0.519647E-06  0.215E-03   10.26       5.4  T
   4   -127.9051100 -0.490697E-07  0.642E-04   10.26      18.0  T
   5   -127.9051100 -0.120976E-08  0.748E-05   10.26     154.5  T
     SCC iter.                  ...        0 min,  0.021 sec
     gradient                   ...        0 min,  0.018 sec
 * total energy  :  -127.1439836 Eh     change       -0.3019377E-03 Eh
   gradient norm :     0.0108374 Eh/α   predicted     0.0000000E+00 (-100.00%)
   displ. norm   :     0.1589891 α      lambda       -0.5506983E-03
   maximum displ.:     0.0585759 α      in ANC's #55, #10, #44, ...

........................................................................
.............................. CYCLE   22 ..............................
........................................................................
   1   -127.9056851 -0.127906E+03  0.286E-02   10.25       0.0  T
   2   -127.9056860 -0.884874E-06  0.175E-02   10.25       1.0  T
   3   -127.9056863 -0.310675E-06  0.153E-03   10.25       7.6  T
   4   -127.9056864 -0.264843E-07  0.451E-04   10.25      25.6  T
   5   -127.9056864 -0.479730E-09  0.586E-05   10.25     196.9  T
     SCC iter.                  ...        0 min,  0.022 sec
     gradient                   ...        0 min,  0.018 sec
 * total energy  :  -127.1443904 Eh     change       -0.4067909E-03 Eh
   gradient norm :     0.0044360 Eh/α   predicted    -0.2823418E-03 ( -30.59%)
   displ. norm   :     0.2861898 α      lambda       -0.5353047E-03
   maximum displ.:     0.0877867 α      in ANC's #10, #21, #55, ...

........................................................................
.............................. CYCLE   23 ..............................
........................................................................
   1   -127.9052816 -0.127905E+03  0.412E-02   10.23       0.0  T
   2   -127.9052837 -0.212491E-05  0.252E-02   10.23       1.0  T
   3   -127.9052844 -0.691384E-06  0.245E-03   10.23       4.7  T
   4   -127.9052845 -0.707516E-07  0.695E-04   10.23      16.6  T
   5   -127.9052845 -0.140659E-08  0.986E-05   10.23     117.1  T
     SCC iter.                  ...        0 min,  0.021 sec
     gradient                   ...        0 min,  0.018 sec
 * total energy  :  -127.1447261 Eh     change       -0.3357141E-03 Eh
   gradient norm :     0.0084816 Eh/α   predicted    -0.2896013E-03 ( -13.74%)
   displ. norm   :     0.2641867 α      lambda       -0.3310194E-03
   maximum displ.:     0.0880685 α      in ANC's #10, #14, #21, ...

........................................................................
.............................. CYCLE   24 ..............................
........................................................................
   1   -127.9053666 -0.127905E+03  0.271E-02   10.22       0.0  T
   2   -127.9053678 -0.114804E-05  0.165E-02   10.22       1.0  T
   3   -127.9053682 -0.376498E-06  0.187E-03   10.22       6.2  T
   4   -127.9053682 -0.384384E-07  0.515E-04   10.22      22.4  T
   5   -127.9053682 -0.837446E-09  0.751E-05   10.22     153.8  T
     SCC iter.                  ...        0 min,  0.022 sec
     gradient                   ...        0 min,  0.018 sec
 * total energy  :  -127.1450161 Eh     change       -0.2900043E-03 Eh
   gradient norm :     0.0087322 Eh/α   predicted    -0.1770720E-03 ( -38.94%)
   displ. norm   :     0.6146784 α      lambda       -0.7914950E-03
   maximum displ.:     0.2078547 α      in ANC's #14, #21, #10, ...

........................................................................
.............................. CYCLE   25 ..............................
........................................................................
   1   -127.9049566 -0.127905E+03  0.571E-02   10.20       0.0  T
   2   -127.9049616 -0.500888E-05  0.349E-02   10.19       1.0  T
   3   -127.9049633 -0.173344E-05  0.391E-03   10.19       3.0  T
   4   -127.9049635 -0.162900E-06  0.111E-03   10.19      10.4  T
   5   -127.9049635 -0.377602E-08  0.154E-04   10.19      74.9  T
   6   -127.9049635 -0.127287E-09  0.611E-05   10.19     189.0  T
     SCC iter.                  ...        0 min,  0.025 sec
     gradient                   ...        0 min,  0.018 sec
 * total energy  :  -127.1456684 Eh     change       -0.6523041E-03 Eh
   gradient norm :     0.0098271 Eh/α   predicted    -0.5452888E-03 ( -16.41%)
   displ. norm   :     0.7012210 α      lambda       -0.7981262E-03
   maximum displ.:     0.2405953 α      in ANC's #14, #10, #15, ...

........................................................................
.............................. CYCLE   26 ..............................
........................................................................
   1   -127.9038128 -0.127904E+03  0.543E-02   10.16       0.0  T
   2   -127.9038174 -0.460774E-05  0.331E-02   10.16       1.0  T
   3   -127.9038190 -0.153474E-05  0.375E-03   10.16       3.1  T
   4   -127.9038191 -0.154720E-06  0.107E-03   10.16      10.8  T
   5   -127.9038191 -0.378004E-08  0.149E-04   10.16      77.5  T
   6   -127.9038191 -0.117268E-09  0.589E-05   10.16     196.0  T
     SCC iter.                  ...        0 min,  0.025 sec
     gradient                   ...        0 min,  0.018 sec
 * total energy  :  -127.1463787 Eh     change       -0.7102386E-03 Eh
   gradient norm :     0.0118451 Eh/α   predicted    -0.5952883E-03 ( -16.18%)
   displ. norm   :     0.7437293 α      lambda       -0.9903641E-03
   maximum displ.:     0.2630433 α      in ANC's #14, #15, #20, ...

........................................................................
.............................. CYCLE   27 ..............................
........................................................................
   1   -127.9058182 -0.127906E+03  0.499E-02   10.13       0.0  T
   2   -127.9058224 -0.426934E-05  0.304E-02   10.13       1.0  T
   3   -127.9058238 -0.140486E-05  0.365E-03   10.13       3.2  T
   4   -127.9058240 -0.137864E-06  0.984E-04   10.13      11.7  T
   5   -127.9058240 -0.293690E-08  0.143E-04   10.13      80.9  T
     SCC iter.                  ...        0 min,  0.021 sec
     gradient                   ...        0 min,  0.018 sec
 * total energy  :  -127.1472576 Eh     change       -0.8788822E-03 Eh
   gradient norm :     0.0133152 Eh/α   predicted    -0.7690854E-03 ( -12.49%)
   displ. norm   :     0.7896143 α      lambda       -0.1121953E-02
   maximum displ.:     0.2852798 α      in ANC's #14, #20, #15, ...

........................................................................
.............................. CYCLE   28 ..............................
........................................................................
   1   -127.9068827 -0.127907E+03  0.511E-02   10.09       0.0  T
   2   -127.9068871 -0.439425E-05  0.310E-02   10.09       1.0  T
   3   -127.9068885 -0.146293E-05  0.373E-03   10.08       3.1  T
   4   -127.9068887 -0.142293E-06  0.997E-04   10.08      11.6  T
   5   -127.9068887 -0.333605E-08  0.145E-04   10.08      79.6  T
     SCC iter.                  ...        0 min,  0.021 sec
     gradient                   ...        0 min,  0.018 sec
 * total energy  :  -127.1482479 Eh     change       -0.9903025E-03 Eh
   gradient norm :     0.0105632 Eh/α   predicted    -0.9107437E-03 (  -8.03%)
   displ. norm   :     0.7266292 α      lambda       -0.1228506E-02
   maximum displ.:     0.2888750 α      in ANC's #20, #14, #15, ...

........................................................................
.............................. CYCLE   29 ..............................
........................................................................
   1   -127.9125053 -0.127913E+03  0.547E-02   10.08       0.0  T
   2   -127.9125123 -0.699599E-05  0.332E-02   10.08       1.0  T
   3   -127.9125144 -0.205875E-05  0.479E-03   10.08       2.4  T
   4   -127.9125146 -0.220089E-06  0.110E-03   10.08      10.5  T
   5   -127.9125146 -0.370861E-08  0.169E-04   10.08      68.2  T
   6   -127.9125146 -0.129475E-09  0.693E-05   10.08     166.6  T
     SCC iter.                  ...        0 min,  0.025 sec
     gradient                   ...        0 min,  0.018 sec
 * total energy  :  -127.1491046 Eh     change       -0.8567814E-03 Eh
   gradient norm :     0.0172277 Eh/α   predicted    -0.9385754E-03 (   9.55%)
   displ. norm   :     0.5841542 α      lambda       -0.9043821E-03
   maximum displ.:     0.2385186 α      in ANC's #20, #14, #15, ...

........................................................................
.............................. CYCLE   30 ..............................
........................................................................
   1   -127.9118527 -0.127912E+03  0.467E-02   10.06       0.0  T
   2   -127.9118573 -0.458800E-05  0.282E-02   10.06       1.0  T
   3   -127.9118587 -0.145542E-05  0.382E-03   10.06       3.0  T
   4   -127.9118589 -0.129220E-06  0.972E-04   10.06      11.9  T
   5   -127.9118589 -0.371024E-08  0.168E-04   10.06      68.7  T
     SCC iter.                  ...        0 min,  0.022 sec
     gradient                   ...        0 min,  0.018 sec
 * total energy  :  -127.1495944 Eh     change       -0.4897342E-03 Eh
   gradient norm :     0.0101428 Eh/α   predicted    -0.6065071E-03 (  23.84%)
   displ. norm   :     0.3285782 α      lambda       -0.6116861E-03
   maximum displ.:     0.1167023 α      in ANC's #14, #20, #16, ...

........................................................................
.............................. CYCLE   31 ..............................
........................................................................
   1   -127.9038737 -0.127904E+03  0.451E-02    9.97       0.0  T
   2   -127.9038767 -0.299228E-05  0.276E-02    9.97       1.0  T
   3   -127.9038782 -0.144559E-05  0.306E-03    9.97       3.8  T
   4   -127.9038782 -0.670252E-07  0.102E-03    9.97      11.3  T
   5   -127.9038783 -0.391417E-08  0.135E-04    9.97      85.8  T
   6   -127.9038783 -0.836451E-10  0.585E-05    9.97     197.5  T
     SCC iter.                  ...        0 min,  0.025 sec
     gradient                   ...        0 min,  0.018 sec
 * total energy  :  -127.1495889 Eh     change        0.5517810E-05 Eh
   gradient norm :     0.0245640 Eh/α   predicted    -0.3388642E-03 (*******%)
   displ. norm   :     0.4299176 α      lambda       -0.1559248E-02
   maximum displ.:     0.1226301 α      in ANC's #36, #10, #21, ...

........................................................................
.............................. CYCLE   32 ..............................
........................................................................
   1   -127.9207799 -0.127921E+03  0.669E-02   10.09       0.0  T
   2   -127.9208050 -0.250859E-04  0.389E-02   10.10       1.0  T
   3   -127.9208085 -0.347339E-05  0.922E-03   10.10       1.3  T
   4   -127.9208090 -0.539242E-06  0.126E-03   10.10       9.2  T
   5   -127.9208090 -0.420097E-08  0.248E-04   10.10      46.5  T
   6   -127.9208090 -0.263711E-09  0.743E-05   10.10     155.5  T
     SCC iter.                  ...        0 min,  0.026 sec
     gradient                   ...        0 min,  0.018 sec
 * total energy  :  -127.1495601 Eh     change        0.2874339E-04 Eh
   gradient norm :     0.0274471 Eh/α   predicted    -0.9237252E-03 (*******%)
   displ. norm   :     0.2557527 α      lambda       -0.1470380E-02
   maximum displ.:     0.0921124 α      in ANC's #21, #36, #32, ...

........................................................................
.............................. CYCLE   33 ..............................
........................................................................
   1   -127.9142424 -0.127914E+03  0.490E-02   10.07       0.0  T
   2   -127.9142552 -0.127765E-04  0.286E-02   10.07       1.0  T
   3   -127.9142574 -0.222759E-05  0.663E-03   10.07       1.7  T
   4   -127.9142578 -0.320261E-06  0.126E-03   10.07       9.2  T
   5   -127.9142578 -0.477219E-08  0.157E-04   10.07      73.6  T
   6   -127.9142578 -0.184542E-09  0.591E-05   10.07     195.4  T
     SCC iter.                  ...        0 min,  0.026 sec
     gradient                   ...        0 min,  0.018 sec
 * total energy  :  -127.1500471 Eh     change       -0.4870025E-03 Eh
   gradient norm :     0.0153463 Eh/α   predicted    -0.7832874E-03 (  60.84%)
   displ. norm   :     0.1213100 α      lambda       -0.6519447E-03
   maximum displ.:     0.0383795 α      in ANC's #34, #55, #88, ...

........................................................................
.............................. CYCLE   34 ..............................
........................................................................
   1   -127.9123640 -0.127912E+03  0.307E-02   10.05       0.0  T
   2   -127.9123668 -0.276626E-05  0.185E-02   10.05       1.0  T
   3   -127.9123677 -0.896176E-06  0.293E-03   10.05       3.9  T
   4   -127.9123677 -0.795318E-07  0.886E-04   10.05      13.0  T
   5   -127.9123677 -0.243475E-08  0.101E-04   10.05     114.2  T
     SCC iter.                  ...        0 min,  0.022 sec
     gradient                   ...        0 min,  0.018 sec
 * total energy  :  -127.1501886 Eh     change       -0.1414851E-03 Eh
   gradient norm :     0.0126077 Eh/α   predicted    -0.3307707E-03 ( 133.78%)
   displ. norm   :     0.1406081 α      lambda       -0.3369155E-03
   maximum displ.:     0.0475612 α      in ANC's #4, #20, #7, ...

........................................................................
.............................. CYCLE   35 ..............................
........................................................................
   1   -127.9124580 -0.127912E+03  0.229E-02   10.04       0.0  T
   2   -127.9124592 -0.118710E-05  0.139E-02   10.04       1.0  T
   3   -127.9124597 -0.476558E-06  0.195E-03   10.04       5.9  T
   4   -127.9124597 -0.323785E-07  0.617E-04   10.04      18.7  T
   5   -127.9124597 -0.123842E-08  0.686E-05   10.04     168.3  T
     SCC iter.                  ...        0 min,  0.022 sec
     gradient                   ...        0 min,  0.018 sec
 * total energy  :  -127.1503320 Eh     change       -0.1433964E-03 Eh
   gradient norm :     0.0094204 Eh/α   predicted    -0.1717892E-03 (  19.80%)
   displ. norm   :     0.1014667 α      lambda       -0.1559127E-03
   maximum displ.:     0.0420722 α      in ANC's #4, #20, #7, ...

........................................................................
.............................. CYCLE   36 ..............................
........................................................................
   1   -127.9133708 -0.127913E+03  0.141E-02   10.05       0.0  T
   2   -127.9133712 -0.403900E-06  0.855E-03   10.05       1.3  T
   3   -127.9133713 -0.154599E-06  0.112E-03   10.05      10.3  T
   4   -127.9133713 -0.117481E-07  0.365E-04   10.05      31.6  T
   5   -127.9133713 -0.460304E-09  0.420E-05   10.05     274.8  T
     SCC iter.                  ...        0 min,  0.022 sec
     gradient                   ...        0 min,  0.018 sec
 * total energy  :  -127.1503994 Eh     change       -0.6736651E-04 Eh
   gradient norm :     0.0059298 Eh/α   predicted    -0.7875997E-04 (  16.91%)
   displ. norm   :     0.1085702 α      lambda       -0.1062829E-03
   maximum displ.:     0.0445371 α      in ANC's #4, #7, #20, ...

........................................................................
.............................. CYCLE   37 ..............................
........................................................................
   1   -127.9134621 -0.127913E+03  0.112E-02   10.06       0.0  T
   2   -127.9134623 -0.160893E-06  0.680E-03   10.06       1.7  T
   3   -127.9134623 -0.588567E-07  0.692E-04   10.06      16.7  T
   4   -127.9134623 -0.447722E-08  0.217E-04   10.06      53.2  T
     SCC iter.                  ...        0 min,  0.018 sec
     gradient                   ...        0 min,  0.018 sec
 * total energy  :  -127.1504777 Eh     change       -0.7834870E-04 Eh
   gradient norm :     0.0038942 Eh/α   predicted    -0.5376827E-04 ( -31.37%)
   displ. norm   :     0.2693910 α      lambda       -0.1796768E-03
   maximum displ.:     0.1204567 α      in ANC's #4, #7, #20, ...

........................................................................
.............................. CYCLE   38 ..............................
........................................................................
   1   -127.9122463 -0.127912E+03  0.261E-02   10.05       0.0  T
   2   -127.9122473 -0.104678E-05  0.159E-02   10.05       1.0  T
   3   -127.9122476 -0.313022E-06  0.170E-03   10.05       6.8  T
   4   -127.9122477 -0.350303E-07  0.500E-04   10.05      23.1  T
   5   -127.9122477 -0.863153E-09  0.725E-05   10.05     159.2  T
     SCC iter.                  ...        0 min,  0.022 sec
     gradient                   ...        0 min,  0.018 sec
 * total energy  :  -127.1505886 Eh     change       -0.1108847E-03 Eh
   gradient norm :     0.0043408 Eh/α   predicted    -0.9635849E-04 ( -13.10%)
   displ. norm   :     0.2321192 α      lambda       -0.1089601E-03
   maximum displ.:     0.1209583 α      in ANC's #4, #7, #16, ...

........................................................................
.............................. CYCLE   39 ..............................
........................................................................
   1   -127.9116973 -0.127912E+03  0.216E-02   10.05       0.0  T
   2   -127.9116979 -0.597557E-06  0.131E-02   10.05       1.0  T
   3   -127.9116982 -0.236283E-06  0.132E-03   10.05       8.7  T
   4   -127.9116982 -0.169290E-07  0.413E-04   10.05      28.0  T
   5   -127.9116982 -0.609404E-09  0.627E-05   10.05     184.2  T
     SCC iter.                  ...        0 min,  0.022 sec
     gradient                   ...        0 min,  0.018 sec
 * total energy  :  -127.1506475 Eh     change       -0.5893947E-04 Eh
   gradient norm :     0.0060758 Eh/α   predicted    -0.5741597E-04 (  -2.58%)
   displ. norm   :     0.2063850 α      lambda       -0.1030902E-03
   maximum displ.:     0.1087321 α      in ANC's #4, #7, #18, ...

........................................................................
.............................. CYCLE   40 ..............................
........................................................................
   1   -127.9119677 -0.127912E+03  0.199E-02   10.05       0.0  T
   2   -127.9119681 -0.436741E-06  0.121E-02   10.05       1.0  T
   3   -127.9119683 -0.175391E-06  0.111E-03   10.05      10.4  T
   4   -127.9119683 -0.126595E-07  0.364E-04   10.05      31.7  T
   5   -127.9119683 -0.423924E-09  0.392E-05   10.05     294.4  T
     SCC iter.                  ...        0 min,  0.022 sec
     gradient                   ...        0 min,  0.018 sec
 * total energy  :  -127.1507112 Eh     change       -0.6365207E-04 Eh
   gradient norm :     0.0042577 Eh/α   predicted    -0.5374411E-04 ( -15.57%)
   displ. norm   :     0.2034763 α      lambda       -0.1070942E-03
   maximum displ.:     0.1091904 α      in ANC's #4, #18, #7, ...

........................................................................
.............................. CYCLE   41 ..............................
........................................................................
   1   -127.9133687 -0.127913E+03  0.186E-02   10.07       0.0  T
   2   -127.9133695 -0.785011E-06  0.112E-02   10.07       1.0  T
   3   -127.9133696 -0.192949E-06  0.158E-03   10.07       7.3  T
   4   -127.9133697 -0.270473E-07  0.373E-04   10.07      31.0  T
   5   -127.9133697 -0.411148E-09  0.488E-05   10.07     236.7  T
     SCC iter.                  ...        0 min,  0.022 sec
     gradient                   ...        0 min,  0.018 sec
 * total energy  :  -127.1507727 Eh     change       -0.6152820E-04 Eh
   gradient norm :     0.0040272 Eh/α   predicted    -0.5576778E-04 (  -9.36%)
   displ. norm   :     0.2371093 α      lambda       -0.1142723E-03
   maximum displ.:     0.1197433 α      in ANC's #4, #18, #7, ...

........................................................................
.............................. CYCLE   42 ..............................
........................................................................
   1   -127.9125786 -0.127913E+03  0.246E-02   10.07       0.0  T
   2   -127.9125797 -0.108876E-05  0.150E-02   10.07       1.0  T
   3   -127.9125801 -0.348868E-06  0.181E-03   10.07       6.4  T
   4   -127.9125801 -0.361232E-07  0.497E-04   10.07      23.2  T
   5   -127.9125801 -0.821018E-09  0.671E-05   10.07     172.0  T
     SCC iter.                  ...        0 min,  0.021 sec
     gradient                   ...        0 min,  0.019 sec
 * total energy  :  -127.1508385 Eh     change       -0.6581568E-04 Eh
   gradient norm :     0.0055471 Eh/α   predicted    -0.6035218E-04 (  -8.30%)
   displ. norm   :     0.1985027 α      lambda       -0.9313074E-04
   maximum displ.:     0.0906214 α      in ANC's #18, #4, #3, ...
 * RMSD in coord.:     0.6233698 α      energy gain  -0.7156848E-02 Eh

generating ANC from model Hessian ...
Using Lindh-Hessian (1995)
 Shifting diagonal of input Hessian by   1.014348021104650E-002
 Lowest  eigenvalues of input Hessian
    0.010000    0.010035    0.010072    0.010120    0.000000    0.000000
    0.000000    0.000000    0.000000    0.000000    0.010153    0.010199
    0.010216    0.010268    0.010297    0.010331    0.010339    0.010433
 Highest eigenvalues
    1.408980    1.413311    1.415591    1.415953    1.418743    1.420284
 

........................................................................
.............................. CYCLE   43 ..............................
........................................................................
   1   -127.9128976 -0.127913E+03  0.188E-02   10.09       0.0  T
   2   -127.9128983 -0.642258E-06  0.114E-02   10.09       1.0  T
   3   -127.9128985 -0.235227E-06  0.143E-03   10.09       8.1  T
   4   -127.9128985 -0.201399E-07  0.424E-04   10.09      27.2  T
   5   -127.9128985 -0.653571E-09  0.559E-05   10.09     206.6  T
     SCC iter.                  ...        0 min,  0.021 sec
     gradient                   ...        0 min,  0.018 sec
 * total energy  :  -127.1508865 Eh     change       -0.4791312E-04 Eh
   gradient norm :     0.0053949 Eh/α   predicted     0.0000000E+00 (-100.00%)
   displ. norm   :     0.0501049 α      lambda       -0.6976080E-04
   maximum displ.:     0.0192853 α      in ANC's #19, #14, #3, ...

........................................................................
.............................. CYCLE   44 ..............................
........................................................................
   1   -127.9127578 -0.127913E+03  0.873E-03   10.08       0.0  T
   2   -127.9127580 -0.165386E-06  0.526E-03   10.08       2.2  T
   3   -127.9127580 -0.465500E-07  0.735E-04   10.08      15.7  T
   4   -127.9127580 -0.546918E-08  0.187E-04   10.08      61.6  T
     SCC iter.                  ...        0 min,  0.018 sec
     gradient                   ...        0 min,  0.018 sec
 * total energy  :  -127.1509385 Eh     change       -0.5208337E-04 Eh
   gradient norm :     0.0021940 Eh/α   predicted    -0.3564848E-04 ( -31.55%)
   displ. norm   :     0.0962330 α      lambda       -0.6677880E-04
   maximum displ.:     0.0407044 α      in ANC's #19, #14, #3, ...

........................................................................
.............................. CYCLE   45 ..............................
........................................................................
   1   -127.9124898 -0.127912E+03  0.122E-02   10.08       0.0  T
   2   -127.9124901 -0.297969E-06  0.742E-03   10.08       1.6  T
   3   -127.9124902 -0.903744E-07  0.964E-04   10.08      12.0  T
   4   -127.9124902 -0.100631E-07  0.251E-04   10.08      46.1  T
     SCC iter.                  ...        0 min,  0.018 sec
     gradient                   ...        0 min,  0.018 sec
 * total energy  :  -127.1509817 Eh     change       -0.4312579E-04 Eh
   gradient norm :     0.0022951 Eh/α   predicted    -0.3369949E-04 ( -21.86%)
   displ. norm   :     0.1014433 α      lambda       -0.3875687E-04
   maximum displ.:     0.0413077 α      in ANC's #19, #14, #3, ...

........................................................................
.............................. CYCLE   46 ..............................
........................................................................
   1   -127.9123855 -0.127912E+03  0.106E-02   10.08       0.0  T
   2   -127.9123857 -0.139464E-06  0.650E-03   10.08       1.8  T
   3   -127.9123857 -0.544219E-07  0.619E-04   10.08      18.6  T
   4   -127.9123857 -0.417529E-08  0.191E-04   10.08      60.5  T
     SCC iter.                  ...        0 min,  0.018 sec
     gradient                   ...        0 min,  0.018 sec
 * total energy  :  -127.1510115 Eh     change       -0.2980448E-04 Eh
   gradient norm :     0.0029058 Eh/α   predicted    -0.1957893E-04 ( -34.31%)
   displ. norm   :     0.1873415 α      lambda       -0.6048826E-04
   maximum displ.:     0.0759577 α      in ANC's #19, #14, #3, ...

........................................................................
.............................. CYCLE   47 ..............................
........................................................................
   1   -127.9121938 -0.127912E+03  0.181E-02   10.08       0.0  T
   2   -127.9121942 -0.398723E-06  0.111E-02   10.08       1.0  T
   3   -127.9121944 -0.176140E-06  0.102E-03   10.09      11.3  T
   4   -127.9121944 -0.102511E-07  0.325E-04   10.09      35.5  T
   5   -127.9121944 -0.330957E-09  0.420E-05   10.09     275.2  T
     SCC iter.                  ...        0 min,  0.021 sec
     gradient                   ...        0 min,  0.018 sec
 * total energy  :  -127.1510556 Eh     change       -0.4414441E-04 Eh
   gradient norm :     0.0031227 Eh/α   predicted    -0.3130637E-04 ( -29.08%)
   displ. norm   :     0.2068584 α      lambda       -0.5734404E-04
   maximum displ.:     0.0809798 α      in ANC's #19, #14, #3, ...

........................................................................
.............................. CYCLE   48 ..............................
........................................................................
   1   -127.9120890 -0.127912E+03  0.185E-02   10.09       0.0  T
   2   -127.9120894 -0.429611E-06  0.113E-02   10.09       1.0  T
   3   -127.9120896 -0.169243E-06  0.108E-03   10.09      10.7  T
   4   -127.9120896 -0.123777E-07  0.329E-04   10.09      35.1  T
   5   -127.9120896 -0.348976E-09  0.453E-05   10.09     255.1  T
     SCC iter.                  ...        0 min,  0.021 sec
     gradient                   ...        0 min,  0.019 sec
 * total energy  :  -127.1510983 Eh     change       -0.4265446E-04 Eh
   gradient norm :     0.0034248 Eh/α   predicted    -0.2989890E-04 ( -29.90%)
   displ. norm   :     0.2464750 α      lambda       -0.6998314E-04
   maximum displ.:     0.0934267 α      in ANC's #19, #14, #3, ...

........................................................................
.............................. CYCLE   49 ..............................
........................................................................
   1   -127.9121352 -0.127912E+03  0.209E-02   10.10       0.0  T
   2   -127.9121358 -0.608467E-06  0.127E-02   10.09       1.0  T
   3   -127.9121360 -0.207742E-06  0.131E-03   10.09       8.8  T
   4   -127.9121361 -0.194850E-07  0.369E-04   10.09      31.3  T
   5   -127.9121361 -0.426382E-09  0.524E-05   10.09     220.6  T
     SCC iter.                  ...        0 min,  0.021 sec
     gradient                   ...        0 min,  0.018 sec
 * total energy  :  -127.1511524 Eh     change       -0.5413274E-04 Eh
   gradient norm :     0.0035010 Eh/α   predicted    -0.3711922E-04 ( -31.43%)
   displ. norm   :     0.3290980 α      lambda       -0.9002414E-04
   maximum displ.:     0.1168398 α      in ANC's #19, #14, #12, ...

........................................................................
.............................. CYCLE   50 ..............................
........................................................................
   1   -127.9118593 -0.127912E+03  0.274E-02   10.10       0.0  T
   2   -127.9118603 -0.104374E-05  0.167E-02   10.10       1.0  T
   3   -127.9118607 -0.345493E-06  0.172E-03   10.10       6.7  T
   4   -127.9118607 -0.334750E-07  0.474E-04   10.10      24.4  T
   5   -127.9118607 -0.697113E-09  0.692E-05   10.10     167.0  T
     SCC iter.                  ...        0 min,  0.021 sec
     gradient                   ...        0 min,  0.018 sec
 * total energy  :  -127.1512231 Eh     change       -0.7071428E-04 Eh
   gradient norm :     0.0041218 Eh/α   predicted    -0.4988986E-04 ( -29.45%)
   displ. norm   :     0.3770042 α      lambda       -0.1061814E-03
   maximum displ.:     0.1281694 α      in ANC's #12, #14, #19, ...

........................................................................
.............................. CYCLE   51 ..............................
........................................................................
   1   -127.9115406 -0.127912E+03  0.308E-02   10.11       0.0  T
   2   -127.9115418 -0.120670E-05  0.188E-02   10.11       1.0  T
   3   -127.9115422 -0.413391E-06  0.186E-03   10.11       6.2  T
   4   -127.9115422 -0.375282E-07  0.523E-04   10.11      22.1  T
   5   -127.9115422 -0.848431E-09  0.769E-05   10.11     150.1  T
     SCC iter.                  ...        0 min,  0.021 sec
     gradient                   ...        0 min,  0.018 sec
 * total energy  :  -127.1513051 Eh     change       -0.8195583E-04 Eh
   gradient norm :     0.0041984 Eh/α   predicted    -0.6065149E-04 ( -25.99%)
   displ. norm   :     0.4122690 α      lambda       -0.1091641E-03
   maximum displ.:     0.1527407 α      in ANC's #12, #14, #4, ...

........................................................................
.............................. CYCLE   52 ..............................
........................................................................
   1   -127.9106791 -0.127911E+03  0.339E-02   10.11       0.0  T
   2   -127.9106805 -0.132315E-05  0.207E-02   10.11       1.0  T
   3   -127.9106810 -0.518645E-06  0.193E-03   10.11       6.0  T
   4   -127.9106810 -0.365871E-07  0.580E-04   10.11      19.9  T
   5   -127.9106810 -0.109712E-08  0.831E-05   10.11     139.0  T
     SCC iter.                  ...        0 min,  0.021 sec
     gradient                   ...        0 min,  0.018 sec
 * total energy  :  -127.1513873 Eh     change       -0.8225871E-04 Eh
   gradient norm :     0.0049822 Eh/α   predicted    -0.6386028E-04 ( -22.37%)
   displ. norm   :     0.3673818 α      lambda       -0.1601616E-03
   maximum displ.:     0.1654382 α      in ANC's #12, #4, #10, ...

........................................................................
.............................. CYCLE   53 ..............................
........................................................................
   1   -127.9136445 -0.127914E+03  0.293E-02   10.14       0.0  T
   2   -127.9136457 -0.119574E-05  0.178E-02   10.14       1.0  T
   3   -127.9136462 -0.437308E-06  0.194E-03   10.13       6.0  T
   4   -127.9136462 -0.332349E-07  0.565E-04   10.14      20.4  T
   5   -127.9136462 -0.105717E-08  0.887E-05   10.14     130.2  T
     SCC iter.                  ...        0 min,  0.022 sec
     gradient                   ...        0 min,  0.018 sec
 * total energy  :  -127.1514208 Eh     change       -0.3351824E-04 Eh
   gradient norm :     0.0106793 Eh/α   predicted    -0.9088951E-04 ( 171.16%)
   displ. norm   :     0.3446864 α      lambda       -0.1966124E-03
   maximum displ.:     0.1286249 α      in ANC's #12, #14, #4, ...

........................................................................
.............................. CYCLE   54 ..............................
........................................................................
   1   -127.9107505 -0.127911E+03  0.335E-02   10.13       0.0  T
   2   -127.9107516 -0.113789E-05  0.205E-02   10.13       1.0  T
   3   -127.9107521 -0.538319E-06  0.183E-03   10.13       6.3  T
   4   -127.9107522 -0.262483E-07  0.591E-04   10.13      19.5  T
   5   -127.9107522 -0.115784E-08  0.742E-05   10.13     155.7  T
     SCC iter.                  ...        0 min,  0.021 sec
     gradient                   ...        0 min,  0.018 sec
 * total energy  :  -127.1515345 Eh     change       -0.1136106E-03 Eh
   gradient norm :     0.0058036 Eh/α   predicted    -0.1099918E-03 (  -3.19%)
   displ. norm   :     0.1441603 α      lambda       -0.8582590E-04
   maximum displ.:     0.0646315 α      in ANC's #12, #4, #3, ...

........................................................................
.............................. CYCLE   55 ..............................
........................................................................
   1   -127.9110054 -0.127911E+03  0.139E-02   10.13       0.0  T
   2   -127.9110057 -0.240002E-06  0.849E-03   10.13       1.4  T
   3   -127.9110058 -0.102102E-06  0.856E-04   10.14      13.5  T
   4   -127.9110058 -0.633224E-08  0.267E-04   10.14      43.2  T
     SCC iter.                  ...        0 min,  0.018 sec
     gradient                   ...        0 min,  0.018 sec
 * total energy  :  -127.1515954 Eh     change       -0.6092880E-04 Eh
   gradient norm :     0.0048300 Eh/α   predicted    -0.4380670E-04 ( -28.10%)
   displ. norm   :     0.3008383 α      lambda       -0.1534069E-03
   maximum displ.:     0.1435327 α      in ANC's #12, #3, #4, ...

........................................................................
.............................. CYCLE   56 ..............................
........................................................................
   1   -127.9119530 -0.127912E+03  0.285E-02   10.14       0.0  T
   2   -127.9119539 -0.931998E-06  0.175E-02   10.14       1.0  T
   3   -127.9119543 -0.382446E-06  0.161E-03   10.15       7.2  T
   4   -127.9119543 -0.251589E-07  0.481E-04   10.15      24.0  T
   5   -127.9119543 -0.688289E-09  0.686E-05   10.15     168.4  T
     SCC iter.                  ...        0 min,  0.021 sec
     gradient                   ...        0 min,  0.019 sec
 * total energy  :  -127.1517004 Eh     change       -0.1050451E-03 Eh
   gradient norm :     0.0037038 Eh/α   predicted    -0.8366011E-04 ( -20.36%)
   displ. norm   :     0.4697962 α      lambda       -0.1271765E-03
   maximum displ.:     0.2241076 α      in ANC's #12, #3, #4, ...

........................................................................
.............................. CYCLE   57 ..............................
........................................................................
   1   -127.9111606 -0.127911E+03  0.373E-02   10.15       0.0  T
   2   -127.9111620 -0.138098E-05  0.229E-02   10.15       1.0  T
   3   -127.9111626 -0.574464E-06  0.194E-03   10.15       5.9  T
   4   -127.9111626 -0.362613E-07  0.606E-04   10.15      19.0  T
   5   -127.9111626 -0.118958E-08  0.877E-05   10.15     131.7  T
     SCC iter.                  ...        0 min,  0.021 sec
     gradient                   ...        0 min,  0.018 sec
 * total energy  :  -127.1517968 Eh     change       -0.9639160E-04 Eh
   gradient norm :     0.0048394 Eh/α   predicted    -0.7762711E-04 ( -19.47%)
   displ. norm   :     0.4393181 α      lambda       -0.1726660E-03
   maximum displ.:     0.2346867 α      in ANC's #12, #3, #10, ...

........................................................................
.............................. CYCLE   58 ..............................
........................................................................
   1   -127.9139665 -0.127914E+03  0.341E-02   10.18       0.0  T
   2   -127.9139679 -0.140190E-05  0.210E-02   10.18       1.0  T
   3   -127.9139684 -0.531071E-06  0.195E-03   10.18       5.9  T
   4   -127.9139684 -0.405453E-07  0.595E-04   10.18      19.4  T
   5   -127.9139684 -0.920878E-09  0.796E-05   10.18     145.1  T
     SCC iter.                  ...        0 min,  0.022 sec
     gradient                   ...        0 min,  0.018 sec
 * total energy  :  -127.1518943 Eh     change       -0.9746939E-04 Eh
   gradient norm :     0.0067722 Eh/α   predicted    -0.1029983E-03 (   5.67%)
   displ. norm   :     0.6367715 α      lambda       -0.2638780E-03
   maximum displ.:     0.3208390 α      in ANC's #12, #3, #10, ...

........................................................................
.............................. CYCLE   59 ..............................
........................................................................
   1   -127.9092307 -0.127909E+03  0.618E-02   10.15       0.0  T
   2   -127.9092358 -0.515850E-05  0.378E-02   10.15       1.0  T
   3   -127.9092377 -0.184779E-05  0.391E-03   10.15       3.0  T
   4   -127.9092378 -0.147459E-06  0.102E-03   10.15      11.4  T
   5   -127.9092378 -0.299346E-08  0.158E-04   10.15      73.1  T
   6   -127.9092378 -0.119954E-09  0.635E-05   10.15     181.8  T
     SCC iter.                  ...        0 min,  0.025 sec
     gradient                   ...        0 min,  0.018 sec
 * total energy  :  -127.1519612 Eh     change       -0.6692257E-04 Eh
   gradient norm :     0.0128106 Eh/α   predicted    -0.1854397E-03 ( 177.10%)
   displ. norm   :     0.0938542 α      lambda       -0.2722209E-03
   maximum displ.:     0.0249020 α      in ANC's #25, #4, #33, ...

........................................................................
.............................. CYCLE   60 ..............................
........................................................................
   1   -127.9102205 -0.127910E+03  0.170E-02   10.17       0.0  T
   2   -127.9102212 -0.757509E-06  0.102E-02   10.16       1.1  T
   3   -127.9102214 -0.202542E-06  0.161E-03   10.16       7.2  T
   4   -127.9102214 -0.222239E-07  0.379E-04   10.16      30.5  T
   5   -127.9102214 -0.357218E-09  0.518E-05   10.16     223.0  T
     SCC iter.                  ...        0 min,  0.021 sec
     gradient                   ...        0 min,  0.019 sec
 * total energy  :  -127.1521257 Eh     change       -0.1644519E-03 Eh
   gradient norm :     0.0058015 Eh/α   predicted    -0.1373123E-03 ( -16.50%)
   displ. norm   :     0.2980892 α      lambda       -0.1901412E-03
   maximum displ.:     0.1493351 α      in ANC's #12, #19, #3, ...

........................................................................
.............................. CYCLE   61 ..............................
........................................................................
   1   -127.9112204 -0.127911E+03  0.254E-02   10.17       0.0  T
   2   -127.9112216 -0.126483E-05  0.155E-02   10.17       1.0  T
   3   -127.9112220 -0.357109E-06  0.195E-03   10.17       5.9  T
   4   -127.9112220 -0.423076E-07  0.505E-04   10.17      22.8  T
   5   -127.9112220 -0.889301E-09  0.817E-05   10.17     141.3  T
     SCC iter.                  ...        0 min,  0.021 sec
     gradient                   ...        0 min,  0.019 sec
 * total energy  :  -127.1522758 Eh     change       -0.1501343E-03 Eh
   gradient norm :     0.0043506 Eh/α   predicted    -0.1035234E-03 ( -31.05%)
   displ. norm   :     0.6497324 α      lambda       -0.3193083E-03
   maximum displ.:     0.3290984 α      in ANC's #12, #19, #10, ...

........................................................................
.............................. CYCLE   62 ..............................
........................................................................
   1   -127.9095822 -0.127910E+03  0.561E-02   10.16       0.0  T
   2   -127.9095874 -0.515676E-05  0.343E-02   10.16       1.0  T
   3   -127.9095890 -0.162721E-05  0.387E-03   10.16       3.0  T
   4   -127.9095892 -0.165972E-06  0.103E-03   10.16      11.2  T
   5   -127.9095892 -0.375456E-08  0.171E-04   10.16      67.4  T
   6   -127.9095892 -0.120409E-09  0.705E-05   10.16     163.8  T
     SCC iter.                  ...        0 min,  0.025 sec
     gradient                   ...        0 min,  0.019 sec
 * total energy  :  -127.1525407 Eh     change       -0.2648852E-03 Eh
   gradient norm :     0.0064973 Eh/α   predicted    -0.2270521E-03 ( -14.28%)
   displ. norm   :     0.6573945 α      lambda       -0.3701766E-03
   maximum displ.:     0.3230008 α      in ANC's #12, #19, #10, ...

........................................................................
.............................. CYCLE   63 ..............................
........................................................................
   1   -127.9090580 -0.127909E+03  0.541E-02   10.15       0.0  T
   2   -127.9090631 -0.509510E-05  0.330E-02   10.15       1.0  T
   3   -127.9090648 -0.168863E-05  0.395E-03   10.15       2.9  T
   4   -127.9090650 -0.164655E-06  0.109E-03   10.15      10.6  T
   5   -127.9090650 -0.423228E-08  0.165E-04   10.15      70.0  T
   6   -127.9090650 -0.123222E-09  0.688E-05   10.15     167.9  T
     SCC iter.                  ...        0 min,  0.025 sec
     gradient                   ...        0 min,  0.018 sec
 * total energy  :  -127.1527968 Eh     change       -0.2561116E-03 Eh
   gradient norm :     0.0084940 Eh/α   predicted    -0.2650742E-03 (   3.50%)
   displ. norm   :     0.5022222 α      lambda       -0.3741726E-03
   maximum displ.:     0.2518192 α      in ANC's #12, #19, #10, ...

........................................................................
.............................. CYCLE   64 ..............................
........................................................................
   1   -127.9096521 -0.127910E+03  0.383E-02   10.15       0.0  T
   2   -127.9096551 -0.298859E-05  0.233E-02   10.16       1.0  T
   3   -127.9096560 -0.974349E-06  0.303E-03   10.16       3.8  T
   4   -127.9096561 -0.907268E-07  0.843E-04   10.16      13.7  T
   5   -127.9096561 -0.226254E-08  0.122E-04   10.16      94.3  T
     SCC iter.                  ...        0 min,  0.022 sec
     gradient                   ...        0 min,  0.018 sec
 * total energy  :  -127.1530042 Eh     change       -0.2073939E-03 Eh
   gradient norm :     0.0105367 Eh/α   predicted    -0.2342766E-03 (  12.96%)
   displ. norm   :     0.3557169 α      lambda       -0.4555541E-03
   maximum displ.:     0.1380505 α      in ANC's #4, #19, #6, ...

........................................................................
.............................. CYCLE   65 ..............................
........................................................................
   1   -127.9173392 -0.127917E+03  0.315E-02   10.20       0.0  T
   2   -127.9173422 -0.306343E-05  0.188E-02   10.20       1.0  T
   3   -127.9173431 -0.851523E-06  0.323E-03   10.21       3.6  T
   4   -127.9173432 -0.922110E-07  0.813E-04   10.21      14.2  T
   5   -127.9173432 -0.199287E-08  0.120E-04   10.21      96.3  T
     SCC iter.                  ...        0 min,  0.022 sec
     gradient                   ...        0 min,  0.018 sec
 * total energy  :  -127.1531158 Eh     change       -0.1116009E-03 Eh
   gradient norm :     0.0166153 Eh/α   predicted    -0.2565984E-03 ( 129.93%)
   displ. norm   :     0.4750145 α      lambda       -0.6402725E-03
   maximum displ.:     0.2503289 α      in ANC's #12, #19, #14, ...

........................................................................
.............................. CYCLE   66 ..............................
........................................................................
   1   -127.9091163 -0.127909E+03  0.477E-02   10.15       0.0  T
   2   -127.9091208 -0.453217E-05  0.286E-02   10.16       1.0  T
   3   -127.9091222 -0.133228E-05  0.391E-03   10.16       3.0  T
   4   -127.9091223 -0.140797E-06  0.100E-03   10.16      11.5  T
   5   -127.9091223 -0.373591E-08  0.168E-04   10.16      68.9  T
   6   -127.9091223 -0.154060E-09  0.619E-05   10.16     186.5  T
     SCC iter.                  ...        0 min,  0.025 sec
     gradient                   ...        0 min,  0.019 sec
 * total energy  :  -127.1533927 Eh     change       -0.2769379E-03 Eh
   gradient norm :     0.0137165 Eh/α   predicted    -0.3923726E-03 (  41.68%)
   displ. norm   :     0.2657656 α      lambda       -0.6900498E-03
   maximum displ.:     0.1199317 α      in ANC's #4, #3, #70, ...
 * RMSD in coord.:     0.7464658 α      energy gain  -0.2554189E-02 Eh

generating ANC from model Hessian ...
Using Lindh-Hessian (1995)
 Shifting diagonal of input Hessian by   1.012761655920840E-002
 Lowest  eigenvalues of input Hessian
    0.010000    0.010012    0.010037    0.010079    0.000000    0.000000
    0.000000    0.000000    0.000000    0.000000    0.010133    0.010153
    0.010197    0.010233    0.010253    0.010275    0.010303    0.010345
 Highest eigenvalues
    1.408820    1.412305    1.413045    1.413992    1.416105    1.427150
 

........................................................................
.............................. CYCLE   67 ..............................
........................................................................
   1   -127.9126647 -0.127913E+03  0.403E-02   10.16       0.0  T
   2   -127.9126688 -0.412658E-05  0.241E-02   10.16       1.0  T
   3   -127.9126701 -0.128068E-05  0.379E-03   10.16       3.0  T
   4   -127.9126703 -0.122920E-06  0.102E-03   10.16      11.4  T
   5   -127.9126703 -0.347686E-08  0.143E-04   10.16      80.6  T
   6   -127.9126703 -0.108855E-09  0.549E-05   10.16     210.3  T
     SCC iter.                  ...        0 min,  0.026 sec
     gradient                   ...        0 min,  0.019 sec
 * total energy  :  -127.1534987 Eh     change       -0.1059968E-03 Eh
   gradient norm :     0.0194029 Eh/α   predicted     0.0000000E+00 (-100.00%)
   displ. norm   :     0.1227802 α      lambda       -0.6052849E-03
   maximum displ.:     0.0342052 α      in ANC's #19, #9, #25, ...

........................................................................
.............................. CYCLE   68 ..............................
........................................................................
   1   -127.9126136 -0.127913E+03  0.245E-02   10.17       0.0  T
[...]
    58   8 o       59   1 h                                       0.9678497
    58   8 o       60   1 h                                       0.9629259
    61   8 o       62   1 h                                       0.9720929
    61   8 o       63   1 h                                       0.9734246
    64   8 o       65   1 h                                       0.9579047
    67   8 o       68   1 h                                       0.9700011
    67   8 o       69   1 h                                       0.9730779
    70   8 o       71   1 h                                       0.9743055
    70   8 o       72   1 h                                       0.9623358
    73   8 o       74   1 h                                       0.9765232
    73   8 o       75   1 h                                       0.9596941

 * 1 distinct bonds (by element types)

   Z      Z             #   av. dist./Å        max./Å        min./Å
   1 H    8 O          48     0.9736529     0.9999825     0.9565943

           -------------------------------------------------
          |               Frequency Printout                |
           -------------------------------------------------
 projected vibrational frequencies (cm⁻¹)
eigval :       -0.00    -0.00    -0.00     0.00     0.00     0.00
eigval :       12.18    23.25    29.10    33.55    35.80    40.88
eigval :       42.11    45.35    46.01    50.56    52.74    53.94
eigval :       54.97    58.16    60.51    63.52    64.48    68.47
eigval :       69.84    70.82    73.91    76.94    77.47    81.35
eigval :       85.45    86.15    88.23    95.57    99.80   120.53
eigval :      132.29   140.44   146.38   150.19   154.96   158.77
eigval :      162.22   169.03   177.09   179.14   186.12   195.24
eigval :      198.91   207.18   211.79   214.16   217.63   219.85
eigval :      228.34   234.70   237.61   249.27   253.46   258.46
eigval :      262.08   265.89   272.45   280.62   290.60   293.58
eigval :      300.35   306.19   310.45   311.54   316.20   317.94
eigval :      321.14   328.45   340.74   344.34   350.92   352.68
eigval :      356.05   370.96   376.93   385.16   389.06   396.24
eigval :      405.79   408.01   413.79   425.94   427.01   430.16
eigval :      452.91   455.36   462.12   476.69   479.43   485.76
eigval :      497.32   503.38   507.45   516.04   519.82   527.67
eigval :      535.36   540.99   548.92   554.09   557.66   562.30
eigval :      565.54   572.38   579.39   588.66   593.66   598.14
eigval :      602.85   617.51   624.61   629.49   636.80   641.48
eigval :      652.98   662.44   666.71   676.74   686.31   689.18
eigval :      706.01   713.14   714.76   729.48   738.94   746.32
eigval :      752.35   759.34   765.92   794.18   799.58   806.07
eigval :      812.42   839.23   852.35   860.55   893.26   898.68
eigval :      916.45   925.19   939.30   961.37  1028.78  1045.38
eigval :     1492.28  1503.87  1505.67  1509.33  1510.95  1515.21
eigval :     1518.50  1520.65  1522.08  1523.18  1525.22  1527.18
eigval :     1528.96  1533.04  1537.47  1538.82  1543.93  1545.45
eigval :     1547.76  1549.75  1552.63  1562.44  1571.24  1578.99
eigval :     1591.37  2646.61  2653.08  2869.22  2898.67  2913.29
eigval :     2963.19  2984.73  3083.34  3113.47  3135.86  3154.87
eigval :     3169.14  3179.53  3213.15  3234.13  3242.97  3284.10
eigval :     3305.39  3317.65  3330.35  3346.09  3350.26  3354.36
eigval :     3358.15  3372.35  3392.39  3402.48  3408.85  3417.41
eigval :     3419.17  3419.72  3428.68  3432.94  3442.34  3448.05
eigval :     3475.83  3494.67  3515.97  3581.41  3582.40  3596.93
eigval :     3643.21  3652.57  3670.48  3674.61  3681.83  3683.28
eigval :     3686.86  3686.99  3687.50
 reduced masses (amu)
   1: 14.29   2: 14.30   3: 14.29   4: 14.32   5: 14.32   6: 14.31   7: 14.26   8: 14.28
   9: 14.23  10: 14.32  11: 14.35  12: 14.25  13: 14.40  14: 14.47  15: 14.45  16: 14.36
  17: 14.30  18: 14.41  19: 14.35  20: 14.56  21: 14.43  22: 14.30  23: 14.39  24: 14.48
  25: 14.35  26: 14.41  27: 14.34  28: 14.49  29: 14.40  30: 14.36  31: 14.48  32: 14.37
  33: 14.36  34: 14.58  35: 14.71  36: 13.81  37: 13.70  38: 13.29  39: 12.87  40: 12.95
  41: 13.37  42: 14.03  43:  7.96  44: 11.97  45: 13.15  46: 12.60  47: 10.36  48: 12.82
  49: 13.78  50:  9.60  51: 13.01  52: 11.96  53: 11.91  54: 11.49  55: 11.86  56: 12.06
  57: 12.83  58: 12.19  59: 10.57  60:  9.89  61: 12.18  62:  9.27  63:  9.33  64: 11.96
  65: 11.00  66:  9.46  67: 12.88  68: 11.67  69: 13.22  70: 12.32  71:  9.04  72: 12.87
  73:  8.54  74: 12.51  75: 10.02  76:  7.65  77: 10.34  78: 11.48  79:  8.55  80: 11.83
  81: 11.24  82: 11.41  83:  6.40  84:  4.74  85:  6.50  86: 10.08  87:  6.01  88:  3.38
  89:  5.10  90:  4.72  91:  3.38  92:  1.80  93:  2.13  94:  2.03  95:  1.91  96:  1.79
  97:  2.04  98:  1.81  99:  1.55 100:  1.80 101:  1.94 102:  1.99 103:  1.69 104:  1.74
 105:  1.95 106:  1.73 107:  1.50 108:  1.88 109:  1.95 110:  1.76 111:  1.86 112:  1.77
 113:  1.97 114:  1.89 115:  1.71 116:  1.76 117:  1.79 118:  1.67 119:  1.71 120:  1.59
 121:  1.76 122:  2.05 123:  1.83 124:  1.78 125:  1.87 126:  1.67 127:  1.92 128:  1.91
 129:  1.96 130:  1.88 131:  2.16 132:  1.98 133:  1.87 134:  1.94 135:  1.88 136:  2.30
 137:  2.18 138:  2.02 139:  2.14 140:  2.29 141:  1.79 142:  1.86 143:  2.17 144:  2.14
 145:  2.15 146:  1.98 147:  1.87 148:  1.91 149:  1.58 150:  1.66 151:  2.00 152:  2.04
 153:  1.92 154:  2.03 155:  1.97 156:  1.99 157:  2.03 158:  2.01 159:  2.00 160:  2.00
 161:  1.96 162:  2.02 163:  2.01 164:  2.01 165:  2.02 166:  2.03 167:  2.04 168:  2.09
 169:  2.10 170:  2.11 171:  2.05 172:  2.10 173:  2.14 174:  2.06 175:  1.89 176:  1.91
 177:  1.91 178:  1.89 179:  1.90 180:  1.88 181:  1.88 182:  1.88 183:  1.99 184:  1.91
 185:  2.03 186:  1.99 187:  2.01 188:  1.94 189:  1.98 190:  1.92 191:  2.02 192:  2.06
 193:  1.72 194:  1.87 195:  1.89 196:  1.96 197:  2.09 198:  1.93 199:  1.85 200:  2.02
 201:  1.72 202:  1.62 203:  1.62 204:  1.79 205:  1.62 206:  1.74 207:  1.89 208:  1.78
 209:  1.75 210:  1.65 211:  1.93 212:  1.76 213:  1.70 214:  1.80 215:  1.75 216:  1.81
 217:  1.83 218:  1.83 219:  1.84 220:  1.84 221:  1.84 222:  1.84 223:  1.84 224:  1.84
 225:  1.84
 IR intensities (km·mol⁻¹)
   1:  0.03   2:  0.12   3:  0.01   4:  0.02   5:  0.02   6:  0.09   7:  0.02   8:  1.92
   9:  0.12  10:  0.76  11:  0.25  12:  0.71  13:  0.30  14:  1.19  15:  0.47  16:  0.17
  17:  0.20  18:  0.14  19:  0.48  20:  1.44  21:  0.04  22:  1.44  23:  1.66  24:  0.39
  25:  1.12  26:  0.41  27:  1.10  28:  0.39  29:  1.27  30:  1.98  31:  0.44  32:  1.76
  33:  1.09  34:  0.96  35:  1.76  36:  3.23  37:  1.71  38:  0.72  39:  2.69  40:  1.31
  41:  4.96  42:  2.73  43: 12.02  44:  3.56  45:  8.66  46: 10.48  47:  7.19  48: 11.04
  49:  9.87  50: 14.97  51:  0.21  52:  3.92  53: 43.44  54: 20.54  55: 17.95  56:  7.63
  57: 18.68  58:  8.61  59: 11.24  60: 45.99  61: 22.90  62: 11.01  63: 50.77  64: 58.38
  65: 98.07  66: 37.28  67: 23.51  68:  9.70  69: 46.03  70: 26.16  71:  3.45  72: 46.40
  73: 99.40  74: 29.85  75: 27.93  76:103.25  77: 13.55  78: 73.01  79: 34.04  80: 26.08
  81:119.04  82: 23.53  83:131.14  84: 58.32  85: 80.58  86: 21.37  87: 61.83  88: 89.26
  89: 32.94  90: 61.27  91: 18.23  92: 36.42  93: 12.68  94: 69.12  95: 32.92  96: 19.98
  97: 98.26  98: 11.49  99: 29.10 100: 28.20 101: 44.50 102: 86.90 103: 67.58 104:  9.52
 105: 26.14 106: 92.15 107: 53.08 108: 34.91 109: 32.17 110: 66.63 111: 82.59 112: 34.66
 113:188.65 114:164.36 115: 21.66 116: 12.01 117: 52.21 118: 59.69 119: 65.52 120:193.36
 121: 75.94 122: 92.57 123: 91.63 124:297.94 125:416.05 126: 70.02 127:594.52 128: 39.86
 129:130.99 130:126.75 131:276.94 132:844.77 133:222.45 134:260.50 135:147.42 136:307.17
 137:870.34 138: 87.98 139:564.85 140:484.27 141:274.42 142:434.07 143: 38.91 144:211.75
 145:125.64 146:313.45 147:225.47 148: 53.94 149:151.13 150:177.95 151:157.22 152:268.72
 153: 33.04 154: 91.19 155:150.25 156:112.76 157:202.80 158: 38.05 159:150.68 160:137.35
 161:139.41 162:170.66 163:368.81 164:269.06 165:348.13 166:228.07 167:255.15 168:397.54
 169: 82.18 170: 88.24 171:163.44 172:489.79 173: 55.26 174: 22.63 175:120.05 176:741.46
 177:****** 178:917.92 179:124.43 180:****** 181:****** 182:****** 183:****** 184:******
 185:876.15 186:148.77 187:812.75 188:****** 189:815.47 190:****** 191:****** 192:358.36
 193:775.91 194:875.85 195:207.11 196:331.98 197:****** 198:802.75 199: 97.49 200:555.15
 201:472.40 202:457.69 203:180.51 204:393.72 205: 40.26 206:187.11 207:492.09 208:201.77
 209:440.64 210:219.05 211:371.90 212:180.06 213:146.28 214: 93.00 215:183.73 216:112.90
 217: 20.49 218: 13.49 219:  7.42 220: 13.75 221: 13.95 222: 11.01 223:  6.92 224: 10.64
 225: 11.17
 Raman intensities (amu)
   1:  0.00   2:  0.00   3:  0.00   4:  0.00   5:  0.00   6:  0.00   7:  0.00   8:  0.00
   9:  0.00  10:  0.00  11:  0.00  12:  0.00  13:  0.00  14:  0.00  15:  0.00  16:  0.00
  17:  0.00  18:  0.00  19:  0.00  20:  0.00  21:  0.00  22:  0.00  23:  0.00  24:  0.00
  25:  0.00  26:  0.00  27:  0.00  28:  0.00  29:  0.00  30:  0.00  31:  0.00  32:  0.00
  33:  0.00  34:  0.00  35:  0.00  36:  0.00  37:  0.00  38:  0.00  39:  0.00  40:  0.00
  41:  0.00  42:  0.00  43:  0.00  44:  0.00  45:  0.00  46:  0.00  47:  0.00  48:  0.00
  49:  0.00  50:  0.00  51:  0.00  52:  0.00  53:  0.00  54:  0.00  55:  0.00  56:  0.00
  57:  0.00  58:  0.00  59:  0.00  60:  0.00  61:  0.00  62:  0.00  63:  0.00  64:  0.00
  65:  0.00  66:  0.00  67:  0.00  68:  0.00  69:  0.00  70:  0.00  71:  0.00  72:  0.00
  73:  0.00  74:  0.00  75:  0.00  76:  0.00  77:  0.00  78:  0.00  79:  0.00  80:  0.00
  81:  0.00  82:  0.00  83:  0.00  84:  0.00  85:  0.00  86:  0.00  87:  0.00  88:  0.00
  89:  0.00  90:  0.00  91:  0.00  92:  0.00  93:  0.00  94:  0.00  95:  0.00  96:  0.00
  97:  0.00  98:  0.00  99:  0.00 100:  0.00 101:  0.00 102:  0.00 103:  0.00 104:  0.00
 105:  0.00 106:  0.00 107:  0.00 108:  0.00 109:  0.00 110:  0.00 111:  0.00 112:  0.00
 113:  0.00 114:  0.00 115:  0.00 116:  0.00 117:  0.00 118:  0.00 119:  0.00 120:  0.00
 121:  0.00 122:  0.00 123:  0.00 124:  0.00 125:  0.00 126:  0.00 127:  0.00 128:  0.00
 129:  0.00 130:  0.00 131:  0.00 132:  0.00 133:  0.00 134:  0.00 135:  0.00 136:  0.00
 137:  0.00 138:  0.00 139:  0.00 140:  0.00 141:  0.00 142:  0.00 143:  0.00 144:  0.00
 145:  0.00 146:  0.00 147:  0.00 148:  0.00 149:  0.00 150:  0.00 151:  0.00 152:  0.00
 153:  0.00 154:  0.00 155:  0.00 156:  0.00 157:  0.00 158:  0.00 159:  0.00 160:  0.00
 161:  0.00 162:  0.00 163:  0.00 164:  0.00 165:  0.00 166:  0.00 167:  0.00 168:  0.00
 169:  0.00 170:  0.00 171:  0.00 172:  0.00 173:  0.00 174:  0.00 175:  0.00 176:  0.00
 177:  0.00 178:  0.00 179:  0.00 180:  0.00 181:  0.00 182:  0.00 183:  0.00 184:  0.00
 185:  0.00 186:  0.00 187:  0.00 188:  0.00 189:  0.00 190:  0.00 191:  0.00 192:  0.00
 193:  0.00 194:  0.00 195:  0.00 196:  0.00 197:  0.00 198:  0.00 199:  0.00 200:  0.00
 201:  0.00 202:  0.00 203:  0.00 204:  0.00 205:  0.00 206:  0.00 207:  0.00 208:  0.00
 209:  0.00 210:  0.00 211:  0.00 212:  0.00 213:  0.00 214:  0.00 215:  0.00 216:  0.00
 217:  0.00 218:  0.00 219:  0.00 220:  0.00 221:  0.00 222:  0.00 223:  0.00 224:  0.00
 225:  0.00
 output can be read by thermo (or use thermo option).
 writing <g98.out> molden fake output.
 recommended (thermochemical) frequency scaling factor: 1.0
           -------------------------------------------------
          |             Thermodynamic Functions             |
           -------------------------------------------------

Molecule has no symmetry elements
It seems to be the C1 point group
c1  symmetry found (for desy threshold:  0.10E+00) used in thermo

          ...................................................
          :                      SETUP                      :
          :.................................................:
          :  # frequencies                         219      :
          :  # imaginary freq.                       0      :
          :  linear?                             false      :
          :  only rotor calc.                    false      :
          :  symmetry                               c1      :
          :  rotational number                       1      :
          :  scaling factor                  1.0000000      :
          :  rotor cutoff                   50.0000000 cm⁻¹ :
          :  imag. cutoff                  -20.0000000 cm⁻¹ :
          :.................................................:

    mode    ω/cm⁻¹     T·S(HO)/kcal·mol⁻¹    T·S(FR)/kcal·mol⁻¹   T·S(vib)
   ------------------------------------------------------------------------
       1     12.18    -2.27174 (  0.35%)    -1.47486 ( 99.65%)    -1.47765
       2     23.25    -1.88896 (  4.46%)    -1.28339 ( 95.54%)    -1.31042
       3     29.10    -1.75604 ( 10.29%)    -1.21686 ( 89.71%)    -1.27236
       4     33.55    -1.67184 ( 16.86%)    -1.17468 ( 83.14%)    -1.25851
       5     35.80    -1.63356 ( 20.81%)    -1.15550 ( 79.19%)    -1.25498
       6     40.88    -1.55507 ( 30.89%)    -1.11615 ( 69.11%)    -1.25175
       7     42.11    -1.53765 ( 33.47%)    -1.10741 ( 66.53%)    -1.25141
       8     45.35    -1.49390 ( 40.36%)    -1.08546 ( 59.64%)    -1.25029
       9     46.01    -1.48535 ( 41.76%)    -1.08116 ( 58.24%)    -1.24995
      10     50.56    -1.42972 ( 51.12%)    -1.05322 ( 48.88%)    -1.24567
      11     52.74    -1.40485 ( 55.32%)    -1.04072 ( 44.68%)    -1.24214
      12     53.94    -1.39159 ( 57.53%)    -1.03406 ( 42.47%)    -1.23974
      13     54.97    -1.38044 ( 59.37%)    -1.02845 ( 40.63%)    -1.23742
      14     58.16    -1.34728 ( 64.67%)    -1.01177 ( 35.33%)    -1.22873
      15     60.51    -1.32390 ( 68.21%)    -1.00000 ( 31.79%)    -1.22093
      16     63.52    -1.29538 ( 72.26%)    -0.98563 ( 27.74%)    -1.20945
      17     64.48    -1.28655 ( 73.45%)    -0.98119 ( 26.55%)    -1.20547
      18     68.47    -1.25133 ( 77.85%)    -0.96342 ( 22.15%)    -1.18757
      19     69.84    -1.23963 ( 79.20%)    -0.95752 ( 20.80%)    -1.18095
      20     70.82    -1.23148 ( 80.10%)    -0.95340 ( 19.90%)    -1.17614
      21     73.91    -1.20645 ( 82.68%)    -0.94076 ( 17.32%)    -1.16044
      22     76.94    -1.18292 ( 84.86%)    -0.92887 ( 15.14%)    -1.14446
      23     77.47    -1.17887 ( 85.21%)    -0.92682 ( 14.79%)    -1.14161
      24     81.35    -1.15025 ( 87.51%)    -0.91233 ( 12.49%)    -1.12054
      25     85.45    -1.12155 ( 89.51%)    -0.89779 ( 10.49%)    -1.09807
      26     86.15    -1.11677 ( 89.81%)    -0.89536 ( 10.19%)    -1.09420
      27     88.23    -1.10283 ( 90.65%)    -0.88829 (  9.35%)    -1.08277
      28     95.57    -1.05623 ( 93.03%)    -0.86461 (  6.97%)    -1.04288
      29     99.80    -1.03105 ( 94.07%)    -0.85178 (  5.93%)    -1.02043
      30    120.53    -0.92181 ( 97.12%)    -0.79587 (  2.88%)    -0.91819
      31    132.29    -0.86834 ( 98.00%)    -0.76830 (  2.00%)    -0.86634
      32    140.44    -0.83417 ( 98.42%)    -0.75059 (  1.58%)    -0.83284
      33    146.38    -0.81061 ( 98.66%)    -0.73833 (  1.34%)    -0.80964
      34    150.19    -0.79601 ( 98.79%)    -0.73072 (  1.21%)    -0.79522
      35    154.96    -0.77829 ( 98.93%)    -0.72145 (  1.07%)    -0.77768
      36    158.77    -0.76458 ( 99.03%)    -0.71426 (  0.97%)    -0.76409
      37    162.22    -0.75247 ( 99.11%)    -0.70790 (  0.89%)    -0.75207
      38    169.03    -0.72935 ( 99.24%)    -0.69571 (  0.76%)    -0.72909
      39    177.09    -0.70330 ( 99.37%)    -0.68191 (  0.63%)    -0.70316
      40    179.14    -0.69687 ( 99.40%)    -0.67849 (  0.60%)    -0.69676
      41    186.12    -0.67563 ( 99.48%)    -0.66717 (  0.52%)    -0.67559
      42    195.24    -0.64922 ( 99.57%)    -0.65300 (  0.43%)    -0.64923
      43    198.91    -0.63897 ( 99.60%)    -0.64748 (  0.40%)    -0.63901
      44    207.18    -0.61668 ( 99.66%)    -0.63541 (  0.34%)    -0.61674
      45    211.79    -0.60469 ( 99.69%)    -0.62889 (  0.31%)    -0.60477
      46    214.16    -0.59865 ( 99.70%)    -0.62560 (  0.30%)    -0.59873
      47    217.63    -0.58995 ( 99.72%)    -0.62084 (  0.28%)    -0.59004
      48    219.85    -0.58447 ( 99.73%)    -0.61784 (  0.27%)    -0.58456
      49    228.34    -0.56408 ( 99.77%)    -0.60660 (  0.23%)    -0.56417
      50    234.70    -0.54941 ( 99.79%)    -0.59848 (  0.21%)    -0.54951
      51    237.61    -0.54284 ( 99.80%)    -0.59482 (  0.20%)    -0.54294
      52    249.27    -0.51752 ( 99.84%)    -0.58063 (  0.16%)    -0.51762
      53    253.46    -0.50876 ( 99.85%)    -0.57569 (  0.15%)    -0.50886
      54    258.46    -0.49855 ( 99.86%)    -0.56990 (  0.14%)    -0.49865
      55    262.08    -0.49130 ( 99.87%)    -0.56578 (  0.13%)    -0.49140
      56    265.89    -0.48383 ( 99.88%)    -0.56151 (  0.12%)    -0.48393
      57    272.45    -0.47127 ( 99.89%)    -0.55429 (  0.11%)    -0.47136
      58    280.62    -0.45614 ( 99.90%)    -0.54554 (  0.10%)    -0.45623
      59    290.60    -0.43842 ( 99.91%)    -0.53519 (  0.09%)    -0.43851
      60    293.58    -0.43328 ( 99.92%)    -0.53216 (  0.08%)    -0.43336
   ------------------------------------------------------------------------

   temp. (K)  partition function   enthalpy   heat capacity  entropy
                                   cal/mol     cal/K/mol   cal/K/mol   J/K/mol
 298.15  VIB  0.211E+29            36127.284    195.163    233.425
         ROT  0.240E+08              888.752      2.981     36.755
         INT  0.507E+36            37016.037    198.143    270.180
         TR   0.925E+28             1481.254      4.968     44.184
         TOT                       38497.2905   203.1116   314.3633  1315.2962

       T/K    H(0)-H(T)+PV         H(T)/Eh          T*S/Eh         G(T)/Eh
   ------------------------------------------------------------------------
    298.15    0.613493E-01    0.659869E+00    0.149364E+00    0.510505E+00
   ------------------------------------------------------------------------

         :::::::::::::::::::::::::::::::::::::::::::::::::::::
         ::                  THERMODYNAMIC                  ::
         :::::::::::::::::::::::::::::::::::::::::::::::::::::
         :: total free energy        -126.663904827130 Eh   ::
         ::.................................................::
         :: total energy             -127.174409843402 Eh   ::
         :: zero point energy           0.598519839446 Eh   ::
         :: G(RRHO) w/o ZPVE           -0.088014823174 Eh   ::
         :: G(RRHO) contrib.            0.510505016272 Eh   ::
         :::::::::::::::::::::::::::::::::::::::::::::::::::::

optimized geometry written to: xtbopt.coord


           -------------------------------------------------
          | TOTAL ENERGY             -127.174409843402 Eh   |
          | TOTAL ENTHALPY           -126.514540666457 Eh   |
          | TOTAL FREE ENERGY        -126.663904827130 Eh   |
          | GRADIENT NORM               0.000519953458 Eh/α |
          | HOMO-LUMO GAP               9.869487560810 eV   |
           -------------------------------------------------

------------------------------------------------------------------------
 * finished run on 2022/10/12 at 01:33:20.393     
------------------------------------------------------------------------
 total:
 * wall-time:     0 d,  0 h,  0 min, 17.812 sec
 *  cpu-time:     0 d,  0 h,  1 min, 46.383 sec
 * ratio c/w:     5.973 speedup
 SCF:
 * wall-time:     0 d,  0 h,  0 min,  0.069 sec
 *  cpu-time:     0 d,  0 h,  0 min,  0.408 sec
 * ratio c/w:     5.885 speedup
 ANC optimizer:
 * wall-time:     0 d,  0 h,  0 min,  9.456 sec
 *  cpu-time:     0 d,  0 h,  0 min, 56.599 sec
 * ratio c/w:     5.985 speedup
 analytical hessian:
 * wall-time:     0 d,  0 h,  0 min,  8.163 sec
 *  cpu-time:     0 d,  0 h,  0 min, 48.704 sec
 * ratio c/w:     5.966 speedup

