75
 energy: -127.125088400156 gnorm: 0.051038254918 xtb: 6.5.1 (579679a)
o           -2.61139295352239        3.60743579011283       -0.34348972113214
h           -2.71648851777242        4.53977277301340       -0.53575071579452
h           -2.15689574238948        3.54284781100474        0.52667693563632
o           -4.24951432914277        0.22026295576487       -2.26399176485340
h           -4.13348040980801       -0.51665718196604       -1.61874341731790
h           -4.80346058384900       -0.11393983542893       -2.96943595660460
o           -2.23371218956283       -3.41008471602219       -1.62753547420198
h           -1.68787094620425       -3.63940635804639       -0.85215786413941
h           -2.99442728648606       -2.92072771912363       -1.28326261084266
o           -2.53835897249844        1.62380998004742        3.47399022939347
h           -1.94730796093435        0.86659501449975        3.61054806962380
h           -3.32635849459008        1.25725142045607        3.02229958980016
o           -3.99685298498376       -1.65759277541350       -0.38053160209522
h           -3.14632349109330       -1.36849957543474        0.07492805514844
h           -4.69403215740147       -1.54337487521045        0.27058088139608
o           -0.57471592617959       -2.00718287257940       -3.10503652522375
h           -1.22111613000825       -2.49214899588580       -2.52899046506747
h           -0.63922806099409       -2.42552936046626       -3.96507910843164
o            2.08240107980112       -2.53521550389016       -2.56131604106874
h            1.12671918816630       -2.34955933271484       -2.59647227880681
h            2.43047474610772       -2.11956387795321       -3.37331163603423
o            4.11601187062875       -1.72452045640400       -0.80871538896990
h            3.45168026456327       -1.97785971170014       -1.47097505852724
h            4.26479861782445       -0.76067724912663       -0.92960399175401
o            2.51346159810857       -0.87287629801716       -4.66706850720309
h            1.61844410804571       -0.60071345586758       -4.89252460528586
h            2.88975874389673       -0.11124547087913       -4.19921540290917
o            4.24701909377424        0.93845877273258       -1.13657512865172
h            3.93535129678948        1.42970518235634       -0.35905672308800
h            3.63273583406529        1.14804412148758       -1.85733943648155
o            1.31079214458842        3.16494608466573        2.78792655404454
h            0.43289578043713        3.22225107454925        2.37605233065710
h            1.94205985932122        2.91265892597189        2.09161903684583
o           -1.40175004254971        3.48536083843838        2.07068885598750
h           -1.56050245232139        4.26592970331940        2.60415619899388
h           -1.82083060226895        2.73255547538148        2.58908308049226
o           -4.88352836562049        2.02611633442282       -0.23671273723850
h           -4.78522584534057        1.46564614882186       -1.02205531377671
h           -4.14153335656084        2.65184383276996       -0.27164337959772
o            0.00329527709432        0.65046941935138       -3.68333661197071
h           -0.74477289990193        1.21708359368263       -3.41299564665247
h           -0.23087456938006       -0.24643178703662       -3.39429715708690
o            1.41942126681016        1.04886307038969        4.33740705418797
h            1.54730436514566        1.32131015321255        5.24573937761593
h            1.35807033230197        1.88286895391292        3.79711016111513
o            3.44451181212854        2.18108016764591        1.25329517762300
h            4.21289437824015        2.67691152424378        1.53943101507596
h            3.45483674907035        1.34314842808653        1.78869626084992
o           -0.70835875158040       -0.46683578508827        3.50270336312966
h           -0.31323636703911       -1.34621359600242        3.35721237812768
h            0.02303876286239        0.06653411052739        3.85746539901550
o            2.49359811115141        1.51563786398374       -3.23100580173667
h            2.54493334018862        2.39251208722962       -3.61155971683029
h            1.55130412847460        1.23576468264947       -3.30179728696889
o           -0.59476252101968       -3.95537300483227        0.50549310890162
h           -0.85001028103828       -4.82584766727226        0.81453699902951
h            0.31899136070476       -4.06608509856068        0.10961199343032
o            0.61309725611837       -2.73126156330176        2.72212029004955
h            0.10218689841936       -3.15532166135854        2.01473750977841
h            1.50476419019245       -2.60595495632740        2.37121115250604
o            3.42422751401010        0.01738281588746        2.75701769781187
h            3.21822627252217       -0.83050791374767        2.33134725450435
h            2.70185933392942        0.21122134560328        3.37884132342112
o            3.19599047568550       -2.47404904066511        1.46854353315267
h            3.92109186361240       -2.93015776324845        1.89829024618237
h            3.57703336353340       -2.11702194198883        0.60157038558819
o            1.85139769233265       -4.17657573300960       -0.34179683878887
h            2.36139070571736       -3.66464664220481        0.30823664780260
h            2.01469281378258       -3.74979586250482       -1.19836970191903
o           -2.14759539325263        2.02966412159348       -2.72725850207271
h           -2.88143631356881        1.40294078073906       -2.63869958048897
h           -2.17211758927736        2.57613489389358       -1.93032220521038
o           -4.30619835548363        0.40632757580214        1.82815905428883
h           -3.50974091417673        0.01705546311769        1.45062532951520
h           -4.64290693744484        1.03775091922058        1.15519857152394
75
 energy: -127.128845838020 gnorm: 0.025422418684 xtb: 6.5.1 (579679a)
o           -2.61259465229125        3.59645586289390       -0.34175709606856
h           -2.70831639004084        4.53019262868055       -0.53387522851035
h           -2.13369483077643        3.52933210424098        0.51573500870560
o           -4.26123228386404        0.22297531009169       -2.26875722727794
h           -4.14114385362784       -0.52298197455133       -1.64140998085036
h           -4.80320765001605       -0.10411412742004       -2.98705770699642
o           -2.22769710134328       -3.42529199104734       -1.62946467676712
h           -1.67649365943107       -3.64217987430200       -0.85184539751885
h           -2.99627295001033       -2.94821467597592       -1.29174596844223
o           -2.54240898328555        1.62058914819449        3.47856007158490
h           -1.94063224745693        0.86766350411839        3.60274819701243
h           -3.33043520768763        1.25010514840173        3.03378867495723
o           -3.97873701171475       -1.65045989313153       -0.35312511993572
h           -3.14000327099181       -1.41691479015482        0.09289009396962
h           -4.67599880629124       -1.53390556611089        0.30102206476257
o           -0.58095594136978       -2.00501419798632       -3.11224869651090
h           -1.21469777802488       -2.50196039362612       -2.53508861705147
h           -0.63247827763409       -2.42990106118558       -3.97021674034992
o            2.07885192752516       -2.53093231911449       -2.55906864037083
h            1.12730331819011       -2.32558719383132       -2.58679928009253
h            2.43006848623714       -2.11271571923785       -3.36858337766118
o            4.11071638546707       -1.71991320652634       -0.80884921614244
h            3.44628839848395       -1.97173620025450       -1.47139889758130
h            4.25487710251612       -0.75441085401269       -0.92192591503211
o            2.51630641024496       -0.87132153718396       -4.67266764166697
h            1.61819670322315       -0.60211558965700       -4.88825519114040
h            2.88852372096458       -0.11414541901506       -4.19465865445546
o            4.24286222305420        0.94063564459765       -1.13242872055760
h            3.91415677299648        1.41750756986999       -0.35250778809894
h            3.63316238674834        1.14903623979256       -1.85677122635736
o            1.30965022137288        3.16732978125383        2.78140607166057
h            0.43082860908978        3.21593322831429        2.37053177276648
h            1.94203743217730        2.90924770222782        2.08784298722203
o           -1.40181543091131        3.47778384372385        2.06594422681913
h           -1.55474974996180        4.26174895968797        2.59669524353056
h           -1.81835456762821        2.72937770227095        2.59205562270591
o           -4.87543758731523        2.01697812737008       -0.22891140080223
h           -4.78672014529395        1.48141902231001       -1.03272031258295
h           -4.14261541178241        2.65523236267015       -0.26235059691466
o            0.00314666496597        0.65001911860382       -3.69688262189585
h           -0.72861198389489        1.22150031650739       -3.39539275786535
h           -0.21807491399282       -0.24160870198930       -3.38275244767973
o            1.42752455795014        1.05115813143690        4.34236586866249
h            1.54850345823658        1.32917061807213        5.25002457649491
h            1.35558528983850        1.88064582142794        3.79733266303460
o            3.43040470213706        2.17913160253279        1.25249143794043
h            4.20385363191183        2.67160224998047        1.53200008065433
h            3.44760795610117        1.33794926702826        1.78251732236656
o           -0.72336392802209       -0.45724703028135        3.50419150968645
h           -0.33822246384968       -1.33190166404823        3.30781800842230
h            0.02518053974315        0.05816685152400        3.84875506348088
o            2.48737939371938        1.51689643628374       -3.22647895803099
h            2.54010144880014        2.39172712262126       -3.61167350023235
h            1.54571490678559        1.23589426395245       -3.30012990436671
o           -0.61219536199819       -3.97072056811579        0.49734983292865
h           -0.83472465976876       -4.84666379733791        0.81812042452965
h            0.30995581498123       -4.04970132173086        0.11146721201852
o            0.61228439451980       -2.75119544807682        2.72574083405474
h            0.09361020518641       -3.12324275492132        1.99318603906910
h            1.49555028504314       -2.59298032208770        2.36649615659143
o            3.42840330285165        0.01652146098004        2.76145125299204
h            3.21973337896432       -0.82641178937386        2.32780266102097
h            2.70000986256137        0.21116047468240        3.37623112414671
o            3.19301636892756       -2.47156346516913        1.46664722437756
h            3.91888676385419       -2.92630418554152        1.89691495482966
h            3.57473171345119       -2.11184447018018        0.60185769998343
o            1.84749546141803       -4.18118169039000       -0.33987701579160
h            2.34734625815071       -3.66403546955651        0.31407136044377
h            2.01004043697941       -3.74922402155300       -1.19389625446025
o           -2.14185318983834        2.02798805496258       -2.71588601982556
h           -2.87892254734713        1.40510721839193       -2.63594062638305
h           -2.17343821395311        2.57912523115724       -1.92240133020527
o           -4.31900567092981        0.37600555512512        1.80496445241369
h           -3.44937849131288        0.09050898520096        1.48334049060108
h           -4.62956788680791        1.05251918480625        1.15856366345737
75
 energy: -127.130654862714 gnorm: 0.022823794134 xtb: 6.5.1 (579679a)
o           -2.60058849661511        3.58318099922833       -0.34427603938331
h           -2.69287583642308        4.51931202097555       -0.52757390293379
h           -2.11178726943679        3.50767898835982        0.50723819395961
o           -4.27182293481117        0.22374681256052       -2.27375747749521
h           -4.14845515181641       -0.52677390167966       -1.65974761525735
h           -4.80222605874034       -0.09830503872754       -3.00369338431281
o           -2.21900160366273       -3.44488122440041       -1.63348110295035
h           -1.66225896081186       -3.65864235135358       -0.85569784889331
h           -2.99891494491498       -2.98928164268559       -1.29744568558441
o           -2.53769300566329        1.62158618708130        3.49229891833708
h           -1.93221308688132        0.86519319208058        3.59446173574735
h           -3.34147396694803        1.25638017661005        3.07913686567761
o           -3.95096992932226       -1.64766077907657       -0.30793483612773
h           -3.13317302831166       -1.44287383437603        0.13009091935885
h           -4.65685989621885       -1.50287670722453        0.33532251275688
o           -0.58363441803619       -2.00508517014725       -3.11745647916662
h           -1.21287448836956       -2.51317689286227       -2.54826856241666
h           -0.61974446961145       -2.42949242563374       -3.97682274402423
o            2.07626654752949       -2.50783283352136       -2.54688974264343
h            1.12479253011626       -2.30738403802371       -2.57616558527603
h            2.42273151618818       -2.11110163569259       -3.36950066253162
o            4.10295353545673       -1.71079073015627       -0.80606896236941
h            3.44387644823738       -1.96550564780034       -1.47251746372532
h            4.24377204810058       -0.74429140833682       -0.91558510787262
o            2.51671461472190       -0.86947289530942       -4.67009759405803
h            1.61934696372473       -0.60018718688129       -4.88821170965595
h            2.88836611504346       -0.11046821330857       -4.19519199060775
o            4.23193292960913        0.94175080517517       -1.12423796631699
h            3.88891687429828        1.40974379522306       -0.34456801051072
h            3.63384227478014        1.15582994679922       -1.85601437426008
o            1.30686729809546        3.16619018714597        2.77329579999886
h            0.42948623968613        3.20831774853625        2.35954865579050
h            1.94512590953745        2.90879891709769        2.08411973064793
o           -1.39575492726509        3.46561756600199        2.05840245155409
h           -1.54374943422054        4.25595687959063        2.58168380044178
h           -1.81881908713637        2.72691402411521        2.59103359871333
o           -4.86689567321470        2.01939183121098       -0.21754154622466
h           -4.79335326918484        1.49570099705429       -1.03091487877411
h           -4.13099054302351        2.65477414101348       -0.25192952759089
o            0.00805826630997        0.65053672572636       -3.69531714277650
h           -0.71962223168869        1.22317718645663       -3.39083021115935
h           -0.21401686433827       -0.23930164621966       -3.37984143623782
o            1.43093979565989        1.05166348311196        4.34706691304660
h            1.54818726825169        1.33092549004752        5.25482857699594
h            1.36265813923696        1.87914007549532        3.80099632182756
o            3.40543982385527        2.17204457001261        1.24806616506060
h            4.18219238412388        2.66787184703282        1.51395216886002
h            3.43850288428122        1.33211102140015        1.77897679880529
o           -0.73114942990170       -0.42897760529495        3.45943691166442
h           -0.36929860915226       -1.31212263818438        3.26903372730502
h            0.01927784185068        0.05560435589418        3.84320661448223
o            2.47949368763824        1.52067443750013       -3.21483703192135
h            2.53826100604823        2.38952359573832       -3.61293861601269
h            1.53835061286197        1.23979882406488       -3.29737254124212
o           -0.62736965285274       -3.98202604160253        0.48549500326680
h           -0.83297284078438       -4.85563514642871        0.82514130973494
h            0.29916138716431       -4.05499265209955        0.11164123632620
o            0.59380309015469       -2.73474217405801        2.70785800345576
h            0.08617837962789       -3.12132161744464        1.97896278132564
h            1.48512641660032       -2.59835865421629        2.36343380864593
o            3.43111649920734        0.01726823275727        2.76480869170255
h            3.22075785863192       -0.82593958752266        2.33324801916392
h            2.70754371838320        0.21105551254999        3.38584480426132
o            3.18246721920762       -2.46159784079368        1.46494348033393
h            3.90460918618279       -2.92117344623361        1.89680081266507
h            3.56945784872650       -2.10563951599191        0.60183116871919
o            1.84085209367247       -4.17815665500593       -0.33772287503566
h            2.33662784825191       -3.66043196342873        0.31903153472922
h            2.00576538425794       -3.74566363823590       -1.19062788580402
o           -2.13010642285580        2.02344657922183       -2.69500309953409
h           -2.87299540836269        1.40647018972210       -2.63031886545309
h           -2.17363867012714        2.57894668423411       -1.90490377295637
o           -4.28716253969175        0.35773354348032        1.77618194118140
h           -3.38901593854740        0.13888541970967        1.47586069860904
h           -4.63049760146372        1.02192096125181        1.13314480137125
75
 energy: -127.131940645444 gnorm: 0.012583641890 xtb: 6.5.1 (579679a)
o           -2.58679474468393        3.57170394724372       -0.34831247337539
h           -2.67511096014296        4.51022352368316       -0.52164184169123
h           -2.09915717342762        3.48523178832653        0.50280053977715
o           -4.27991635593360        0.22727313810041       -2.27856249621291
h           -4.13886621828692       -0.51947156738058       -1.66784374512842
h           -4.80022970352147       -0.10390237421530       -3.01177532041349
o           -2.21636686480143       -3.46041881614450       -1.63925272656695
h           -1.65550123705058       -3.67644991761650       -0.86312032671884
h           -3.00177227195844       -3.01901620645092       -1.29899964033918
o           -2.53629836625472        1.62494908196231        3.51065431721116
h           -1.92511186242165        0.86716234654745        3.58651852645953
h           -3.34768754980310        1.26468466752078        3.11445020638761
o           -3.94218420278988       -1.64129940869865       -0.28345094993948
h           -3.09899553403845       -1.52214100068788        0.15613318045379
h           -4.63308706644187       -1.45522478369672        0.36871180884878
o           -0.58546567251052       -2.00692817960966       -3.12087817904260
h           -1.21201233966774       -2.52097044004156       -2.55515580652462
h           -0.61166469712939       -2.43175275326968       -3.98052344721399
o            2.07207598277019       -2.49581877890388       -2.53998928718704
h            1.12280902180351       -2.28435485758380       -2.56508594481582
h            2.42119572566801       -2.09808520783372       -3.36079674062969
o            4.09518201235429       -1.70311369769300       -0.80143407030214
h            3.43614704083154       -1.95662452979621       -1.46858826238702
h            4.23396294644206       -0.73532499025590       -0.90739704699319
o            2.51634137703690       -0.86615671884609       -4.67113174504258
h            1.61829746519430       -0.59651956761117       -4.88637492737273
h            2.88735054089851       -0.10951377232660       -4.19197951280014
o            4.22196327717705        0.94568087941953       -1.11929283815763
h            3.86578259645662        1.40462767158213       -0.33954128812998
h            3.62676214557438        1.15651129764604       -1.85405000933404
o            1.30553593907021        3.16385398616135        2.76902363197130
h            0.42828017690414        3.19925110686015        2.35482118742846
h            1.94459883108539        2.89998096163562        2.08240060447406
o           -1.39233104887240        3.45228697500258        2.05195819041908
h           -1.53308338153619        4.24910169322050        2.56772017156492
h           -1.81667351390642        2.72215371815950        2.59427446344609
o           -4.86869831891536        2.03061752017237       -0.21496088449117
h           -4.80040029632782        1.50181762351783       -1.02370693217032
h           -4.12022155553219        2.65158223689685       -0.24612836717843
o            0.01088936652232        0.65062868208836       -3.69554976231442
h           -0.71135194811127        1.22546738754227       -3.38308220821771
h           -0.21191224988772       -0.23822713944838       -3.37871145008690
o            1.43353014998495        1.05120158758364        4.35124382660847
h            1.54672109092185        1.33472866022768        5.25830729067056
h            1.36299179831411        1.87566800211977        3.80230581516233
o            3.38413868208086        2.16382082791762        1.24231276682381
h            4.16172065037133        2.66319375161250        1.49944710088458
h            3.42424110059101        1.32694003853598        1.77801280981671
o           -0.73725404349242       -0.40590665003284        3.42608323550219
h           -0.38722003544122       -1.29222599985937        3.23225659647418
h            0.01493745410414        0.06325890414586        3.82487714007805
o            2.47507968680688        1.52394988575419       -3.20984708641055
h            2.53280584417804        2.39028871064720       -3.61330998272004
h            1.53451345121615        1.23948087797955       -3.29476020803061
o           -0.63503944494769       -3.99557188910430        0.48038617219805
h           -0.83415878235577       -4.86800463920429        0.82557576967052
h            0.29021450057284       -4.06665825573654        0.10650263679496
o            0.57581060902422       -2.72376245716960        2.69322896570743
h            0.07138163531817       -3.10799657200550        1.96140221159756
h            1.47008956036997       -2.59083649085099        2.35439198161005
o            3.43537196181269        0.01802968171246        2.76933307426900
h            3.22088703780746       -0.82303463991988        2.33521414721530
h            2.71360834009679        0.21253572128796        3.39225444613278
o            3.17133809000297       -2.45511961122535        1.46654962160775
h            3.89558826962434       -2.91506984715036        1.89452809504928
h            3.55469069675530       -2.09779886068461        0.60181216809140
o            1.83562760297122       -4.17363186299795       -0.33474469477804
h            2.32760350835416       -3.65216795824767        0.32196527150867
h            2.00038982676950       -3.74220929659564       -1.18790040878070
o           -2.12115378505619        2.02069002198770       -2.67895721094881
h           -2.86356938371657        1.40311707352209       -2.62278162266011
h           -2.16945745286483        2.57237837969766       -1.88618226481850
o           -4.25027206627507        0.34924362667650        1.75323095127066
h           -3.34385933119917        0.17155041861576        1.46551126669358
h           -4.61173273962903        1.00914190688970        1.11472271747492
75
 energy: -127.132922410457 gnorm: 0.026908937249 xtb: 6.5.1 (579679a)
o           -2.56497309417468        3.55226730795378       -0.35069310444395
h           -2.64295043321383        4.49288220170431       -0.51663332365097
h           -2.07844403045512        3.45384523701309        0.49999688906302
o           -4.28425375017100        0.22678881529718       -2.27891863054967
h           -4.11752392990549       -0.50951153253516       -1.66531434773587
h           -4.79333395084362       -0.12139528078839       -3.01200263831030
o           -2.21487623444506       -3.48712596085645       -1.65382203560690
h           -1.65541614052694       -3.70710425228579       -0.87636328348447
h           -3.01010597624764       -3.06662382010228       -1.31186836906128
o           -2.54285409689885        1.62969690805665        3.53998109954312
h           -1.91980187639652        0.87484229593066        3.57910797097638
h           -3.35604587133933        1.27044035101568        3.15715043118292
o           -3.91624450935824       -1.63890923868717       -0.24462244628004
h           -3.04081304618257       -1.64174217448335        0.19486235761828
h           -4.57521732323786       -1.36620491190606        0.42141855075125
o           -0.58799928631423       -2.00990634260672       -3.12414111194014
h           -1.21281322915307       -2.53095968278417       -2.56442528277973
h           -0.59903398849835       -2.43502989888286       -3.98396337143276
o            2.06568033706983       -2.46971950027910       -2.52492374183997
h            1.11604399690094       -2.26159340294966       -2.55001293722489
h            2.41299980285063       -2.08087818112719       -3.35084881008670
o            4.08154937910819       -1.68894573730561       -0.79027763329796
h            3.42178007270641       -1.94184123031531       -1.45747388613591
h            4.21929491971374       -0.71994612960431       -0.89602483145864
o            2.51354783398700       -0.86001595037384       -4.66741145800431
h            1.61744919655227       -0.58669080528570       -4.88659793789778
h            2.88711468201816       -0.10358268312190       -4.19007616749554
o            4.20294197699105        0.95140427924690       -1.11321451739582
h            3.83402210624110        1.40275488673642       -0.33477348842712
h            3.61186755940392        1.16030064112041       -1.85183695811321
o            1.30326817903867        3.15733791146148        2.76580245855974
h            0.42581461345951        3.18269316050808        2.35174448462198
h            1.94151547069567        2.88358776821303        2.08108281934728
o           -1.38785577489325        3.42668261662000        2.04644635071598
h           -1.51638247509261        4.23501956931916        2.54779671329191
h           -1.81694817248504        2.71132340112967        2.60373662180204
o           -4.87344320907795        2.04796442904060       -0.21302536202862
h           -4.81543951169631        1.50896680274230       -1.01396406237151
h           -4.10837783820730        2.64928801672401       -0.24667715090957
o            0.01434516375387        0.64892580491691       -3.69295575911683
h           -0.70172269323084        1.22704281812145       -3.37254254340062
h           -0.21363752155898       -0.23964764314010       -3.38034223453254
o            1.43545045070051        1.04961208661653        4.35740163781303
h            1.54247237159768        1.33864894696229        5.26357180374992
h            1.36377520754807        1.87081773089313        3.80524671316905
o            3.34910766671405        2.14670721237945        1.23303889411269
h            4.12543770338334        2.65682711425807        1.47308478712229
h            3.40381476879647        1.31682788664171        1.78033223192468
o           -0.74033321160262       -0.36483208877392        3.36458013812584
h           -0.40593936263160       -1.25754938080429        3.17671099409834
h            0.00986725801267        0.08574824897189        3.78535728710651
o            2.46946016014349        1.52840254929960       -3.20539420815976
h            2.52424524699978        2.39276093457379       -3.61262886889823
h            1.52908380133370        1.23940369960998       -3.29124512137472
o           -0.64697193567556       -4.01909514575010        0.47331804458346
h           -0.83861333567300       -4.89031883726233        0.82350337311236
h            0.27647006467893       -4.08595627353277        0.09707643507236
o            0.54041312871196       -2.69760079444969        2.66268777462072
h            0.04502468301239       -3.09683481167305        1.93352148926007
h            1.44085567223136       -2.57430735441942        2.33430573068332
o            3.44033747694611        0.01935754555495        2.77750501693112
h            3.21952970074312       -0.81977048539211        2.34172750624785
h            2.72345479743798        0.21478033217510        3.40562716716667
o            3.15000391777729       -2.44389603402570        1.46953205471095
h            3.87456566379736       -2.90579382359757        1.89481095380213
h            3.53409468398315       -2.08394348333692        0.60443299553372
o            1.82620490278517       -4.16562668934582       -0.33116362711109
h            2.31276260549937       -3.64026106013503        0.32663584233182
h            1.99160523611722       -3.73410031736983       -1.18384002882074
o           -2.10274441334718        2.00846918467292       -2.65144246409556
h           -2.85334957953646        1.40028043624431       -2.60777444787554
h           -2.15948322402680        2.56296267053531       -1.85992371517360
o           -4.19372980789992        0.32270206369683        1.70753445961369
h           -3.25717577076494        0.24008737831813        1.45026418931575
h           -4.56658005977073        1.00150826631835        1.09334683627332
75
 energy: -127.133614406733 gnorm: 0.027075494677 xtb: 6.5.1 (579679a)
o           -2.55022709161032        3.53985681382974       -0.35019505826233
h           -2.61730268160432        4.48119828198305       -0.51561211665481
h           -2.06493062429001        3.43500831924388        0.50069292054450
o           -4.28355198493337        0.21662340786866       -2.26856204011718