      -----------------------------------------------------------      
     |                   =====================                   |     
     |                           x T B                           |     
     |                   =====================                   |     
     |                         S. Grimme                         |     
     |          Mulliken Center for Theoretical Chemistry        |     
     |                    University of Bonn                     |     
      -----------------------------------------------------------      

   * xtb version 6.5.1 (579679a) compiled by 'ehlert@majestix' on 2022-07-11

   xtb is free software: you can redistribute it and/or modify it under
   the terms of the GNU Lesser General Public License as published by
   the Free Software Foundation, either version 3 of the License, or
   (at your option) any later version.
   
   xtb is distributed in the hope that it will be useful,
   but WITHOUT ANY WARRANTY; without even the implied warranty of
   MERCHANTABILITY or FITNESS FOR A PARTICULAR PURPOSE.  See the
   GNU Lesser General Public License for more details.
   
   Cite this work as:
   * C. Bannwarth, E. Caldeweyher, S. Ehlert, A. Hansen, P. Pracht,
     J. Seibert, S. Spicher, S. Grimme, WIREs Comput. Mol. Sci., 2020, 11,
     e01493. DOI: 10.1002/wcms.1493
   
   for GFN2-xTB:
   * C. Bannwarth, S. Ehlert and S. Grimme., J. Chem. Theory Comput., 2019,
     15, 1652-1671. DOI: 10.1021/acs.jctc.8b01176
   for GFN1-xTB:
   * S. Grimme, C. Bannwarth, P. Shushkov, J. Chem. Theory Comput., 2017,
     13, 1989-2009. DOI: 10.1021/acs.jctc.7b00118
   for GFN0-xTB:
   * P. Pracht, E. Caldeweyher, S. Ehlert, S. Grimme, ChemRxiv, 2019, preprint.
     DOI: 10.26434/chemrxiv.8326202.v1
   for GFN-FF:
   * S. Spicher and S. Grimme, Angew. Chem. Int. Ed., 2020, 59, 15665-15673.
     DOI: 10.1002/anie.202004239
   
   for ALPB and GBSA implicit solvation:
   * S. Ehlert, M. Stahn, S. Spicher, S. Grimme, J. Chem. Theory Comput.,
     2021, 17, 4250-4261. DOI: 10.1021/acs.jctc.1c00471
   
   for DFT-D4:
   * E. Caldeweyher, C. Bannwarth and S. Grimme, J. Chem. Phys., 2017,
     147, 034112. DOI: 10.1063/1.4993215
   * E. Caldeweyher, S. Ehlert, A. Hansen, H. Neugebauer, S. Spicher,
     C. Bannwarth and S. Grimme, J. Chem. Phys., 2019, 150, 154122.
     DOI: 10.1063/1.5090222
   * E. Caldeweyher, J.-M. Mewes, S. Ehlert and S. Grimme, Phys. Chem. Chem. Phys.
     2020, 22, 8499-8512. DOI: 10.1039/D0CP00502A
   
   for sTDA-xTB:
   * S. Grimme and C. Bannwarth, J. Chem. Phys., 2016, 145, 054103.
     DOI: 10.1063/1.4959605
   
   in the mass-spec context:
   * V. Asgeirsson, C. Bauer and S. Grimme, Chem. Sci., 2017, 8, 4879.
     DOI: 10.1039/c7sc00601b
   * J. Koopman and S. Grimme, ACS Omega 2019, 4, 12, 15120-15133.
     DOI: 10.1021/acsomega.9b02011
   
   for metadynamics refer to:
   * S. Grimme, J. Chem. Theory Comput., 2019, 155, 2847-2862
     DOI: 10.1021/acs.jctc.9b00143
   
   for SPH calculations refer to:
   * S. Spicher and S. Grimme, J. Chem. Theory Comput., 2021, 17, 1701-1714
     DOI: 10.1021/acs.jctc.0c01306
   
   with help from (in alphabetical order)
   P. Atkinson, C. Bannwarth, F. Bohle, G. Brandenburg, E. Caldeweyher
   M. Checinski, S. Dohm, S. Ehlert, S. Ehrlich, I. Gerasimov, C. Hölzer
   A. Katbashev, J. Koopman, C. Lavigne, S. Lehtola, F. März, M. Müller,
   F. Musil, H. Neugebauer, J. Pisarek, C. Plett, P. Pracht, F. Pultar,
   J. Seibert, P. Shushkov, S. Spicher, M. Stahn, M. Steiner, T. Strunk,
   J. Stückrath, T. Rose, and J. Unsleber
   
 * started run on 2022/11/03 at 00:49:15.949     

           -------------------------------------------------
          |                Calculation Setup                |
           -------------------------------------------------

          program call               : xtb cluster.xyz --gfn2 --ohess
          hostname                   : cn0272
          coordinate file            : cluster.xyz
          omp threads                :                     1

   ID    Z sym.   atoms
    1    1 H      1, 3, 5, 6, 8, 10-12, 14, 15, 17, 18, 20, 21, 23, 24, 26,
                  27, 29, 30, 32, 33, 35, 36, 38, 39, 41, 42, 44, 45, 47, 48,
                  50, 51, 53, 54, 56, 57, 59, 60, 62, 63, 65, 66, 68, 69, 71,
                  72, 74, 75, 77, 78, 80, 81, 83, 84, 86, 87, 89, 90, 92, 93,
                  95, 96, 98, 99, 101, 102, 104, 105, 107, 108, 110, 111,
                  113, 114, 116, 117, 119, 120, 122, 123, 125, 126, 128, 129,
                  131, 132, 134, 135, 137, 138, 140, 141, 143, 144, 146, 147,
                  149, 150, 152, 153, 155, 156, 158, 159, 161, 162, 164, 165,
                  167, 168, 170, 171, 173, 174, 176, 177, 179, 180, 182, 183,
                  185, 186, 188, 189, 191, 192, 194, 195, 197, 198, 200, 201,
                  203, 204, 206, 207, 209, 210, 212, 213, 215, 216, 218, 219,
                  221, 222, 224, 225, 227, 228, 230, 231, 233, 234, 236, 237,
                  239, 240, 242, 243, 245, 246, 248, 249, 251, 252, 254, 255,
                  257, 258, 260, 261, 263, 264, 266, 267, 269, 270, 272, 273,
                  275, 276, 278, 279, 281, 282, 284, 285, 287, 288, 290, 291,
                  293, 294, 296, 297, 299, 300, 302, 303, 305, 306, 308, 309,
                  311, 312, 314, 315, 317, 318, 320, 321, 323, 324, 326, 327,
                  329, 330, 332, 333, 335, 336, 338, 339, 341, 342, 344, 345,
                  347, 348, 350, 351, 353, 354, 356, 357, 359, 360, 362, 363,
                  365, 366, 368, 369, 371, 372, 374, 375, 377, 378, 380, 381,
                  383, 384, 386, 387, 389, 390, 392, 393, 395, 396, 398, 399,
                  401, 402, 404, 405, 407, 408, 410, 411, 413, 414, 416, 417,
                  419, 420, 422, 423, 425, 426, 428, 429, 431, 432, 434, 435,
                  437, 438, 440, 441, 443, 444, 446, 447, 449, 450, 452, 453,
                  455, 456, 458, 459, 461, 462, 464, 465, 467, 468, 470, 471,
                  473, 474, 476, 477, 479, 480, 482, 483, 485, 486, 488, 489,
                  491, 492, 494, 495, 497, 498, 500, 501, 503, 504, 506, 507,
                  509, 510, 512, 513, 515, 516, 518, 519, 521, 522, 524, 525,
                  527, 528, 530, 531, 533, 534, 536, 537, 539, 540, 542, 543,
                  545, 546, 548, 549, 551, 552, 554, 555, 557, 558, 560, 561,
                  563, 564, 566, 567, 569, 570, 572, 573, 575, 576, 578, 579,
                  581, 582, 584, 585, 587, 588, 590, 591, 593, 594, 596, 597,
                  599, 600, 602, 603, 605, 606, 608, 609, 611, 612
    2    6 C      2, 4
    3    8 O      7, 13, 16, 19, 22, 25, 28, 31, 34, 37, 40, 43, 46, 49, 52,
                  55, 58, 61, 64, 67, 70, 73, 76, 79, 82, 85, 88, 91, 94, 97,
                  100, 103, 106, 109, 112, 115, 118, 121, 124, 127, 130, 133,
                  136, 139, 142, 145, 148, 151, 154, 157, 160, 163, 166, 169,
                  172, 175, 178, 181, 184, 187, 190, 193, 196, 199, 202, 205,
                  208, 211, 214, 217, 220, 223, 226, 229, 232, 235, 238, 241,
                  244, 247, 250, 253, 256, 259, 262, 265, 268, 271, 274, 277,
                  280, 283, 286, 289, 292, 295, 298, 301, 304, 307, 310, 313,
                  316, 319, 322, 325, 328, 331, 334, 337, 340, 343, 346, 349,
                  352, 355, 358, 361, 364, 367, 370, 373, 376, 379, 382, 385,
                  388, 391, 394, 397, 400, 403, 406, 409, 412, 415, 418, 421,
                  424, 427, 430, 433, 436, 439, 442, 445, 448, 451, 454, 457,
                  460, 463, 466, 469, 472, 475, 478, 481, 484, 487, 490, 493,
                  496, 499, 502, 505, 508, 511, 514, 517, 520, 523, 526, 529,
                  532, 535, 538, 541, 544, 547, 550, 553, 556, 559, 562, 565,
                  568, 571, 574, 577, 580, 583, 586, 589, 592, 595, 598, 601,
                  604, 607, 610
    4    7 N      9

molecular fragmentation (1/2 indicates fragments):
111111111111222222222222222222222222222222222222222222222222222222222222
222222222222222222222222222222222222222222222222222222222222222222222222
222222222222222222222222222222222222222222222222222222222222222222222222
222222222222222222222222222222222222222222222222222222222222222222222222
222222222222222222222222222222222222222222222222222222222222222222222222
222222222222222222222222222222222222222222222222222222222222222222222222
222222222222222222222222222222222222222222222222222222222222222222222222
222222222222222222222222222222222222222222222222222222222222222222222222
222222222222222222222222222222222222
# atoms in fragment 1/2:    12   600
 fragment masses (1/2) :       62.09     3603.06
CMA distance (Bohr)    :   1.652
constraining FC (au)   :  0.0500

           -------------------------------------------------
          |                 G F N 2 - x T B                 |
           -------------------------------------------------

        Reference                      10.1021/acs.jctc.8b01176
      * Hamiltonian:
        H0-scaling (s, p, d)           1.850000    2.230000    2.230000
        zeta-weighting                 0.500000
      * Dispersion:
        s8                             2.700000
        a1                             0.520000
        a2                             5.000000
        s9                             5.000000
      * Repulsion:
        kExp                           1.500000    1.000000
        rExp                           1.000000
      * Coulomb:
        alpha                          2.000000
        third order                    shell-resolved
        anisotropic                    true
        a3                             3.000000
        a5                             4.000000
        cn-shift                       1.200000
        cn-exp                         4.000000
        max-rad                        5.000000


          ...................................................
          :                      SETUP                      :
          :.................................................:
          :  # basis functions                1224          :
          :  # atomic orbitals                1224          :
          :  # shells                          816          :
          :  # electrons                      1626          :
          :  max. iterations                   250          :
          :  Hamiltonian                  GFN2-xTB          :
          :  restarted?                      false          :
          :  GBSA solvation                  false          :
          :  PC potential                    false          :
          :  electronic temp.          300.0000000     K    :
          :  accuracy                    1.0000000          :
          :  -> integral cutoff          0.2500000E+02      :
          :  -> integral neglect         0.1000000E-07      :
          :  -> SCF convergence          0.1000000E-05 Eh   :
          :  -> wf. convergence          0.1000000E-03 e    :
          :  Broyden damping             0.4000000          :
          ...................................................

 iter      E             dE          RMSdq      gap      omega  full diag
   1  -1039.6468518 -0.103965E+04  0.407E+00    7.99       0.0  T
   2  -1039.7670174 -0.120166E+00  0.241E+00    8.06       1.0  T
   3  -1039.7920288 -0.250115E-01  0.231E-01    7.84       1.0  T
   4  -1039.7961595 -0.413068E-02  0.913E-02    7.86       1.0  T
   5  -1039.7966817 -0.522164E-03  0.295E-02    7.90       1.0  T
   6  -1039.7967111 -0.294493E-04  0.134E-02    7.90       1.0  T
   7  -1039.7967160 -0.487788E-05  0.191E-03    7.90       2.1  T
   8  -1039.7967165 -0.473572E-06  0.628E-04    7.90       6.4  T
   9  -1039.7967165 -0.195078E-07  0.204E-04    7.90      19.8  T

   *** convergence criteria satisfied after 9 iterations ***

         #    Occupation            Energy/Eh            Energy/eV
      -------------------------------------------------------------
         1        2.0000           -0.7453689             -20.2825
       ...           ...                  ...                  ...
       807        2.0000           -0.4570649             -12.4374
       808        2.0000           -0.4557465             -12.4015
       809        2.0000           -0.4555354             -12.3957
       810        2.0000           -0.4554166             -12.3925
       811        2.0000           -0.4552083             -12.3868
       812        2.0000           -0.4528316             -12.3222
       813        2.0000           -0.4371373             -11.8951 (HOMO)
       814                         -0.1467621              -3.9936 (LUMO)
       815                         -0.1327788              -3.6131
       816                         -0.1250683              -3.4033
       817                         -0.1194650              -3.2508
       818                         -0.1123915              -3.0583
       ...                                ...                  ...
      1224                          0.3778633              10.2822
      -------------------------------------------------------------
                  HL-Gap            0.2903752 Eh            7.9015 eV
             Fermi-level           -0.2919497 Eh           -7.9444 eV

 SCC (total)                   0 d,  0 h,  0 min, 17.023 sec
 SCC setup                      ...        0 min,  0.036 sec (  0.210%)
 Dispersion                     ...        0 min,  0.087 sec (  0.509%)
 classical contributions        ...        0 min,  0.021 sec (  0.122%)
 integral evaluation            ...        0 min,  0.713 sec (  4.187%)
 iterations                     ...        0 min,  6.402 sec ( 37.606%)
 molecular gradient             ...        0 min,  9.694 sec ( 56.945%)
 printout                       ...        0 min,  0.071 sec (  0.420%)

         :::::::::::::::::::::::::::::::::::::::::::::::::::::
         ::                     SUMMARY                     ::
         :::::::::::::::::::::::::::::::::::::::::::::::::::::
         :: total energy           -1033.459129195583 Eh    ::
         :: gradient norm              0.000353571971 Eh/a0 ::
         :: HOMO-LUMO gap              7.901512064996 eV    ::
         ::.................................................::
         :: SCC energy             -1039.796716512421 Eh    ::
         :: -> isotropic ES            5.734055803532 Eh    ::
         :: -> anisotropic ES         -1.306756954571 Eh    ::
         :: -> anisotropic XC         -0.098428310738 Eh    ::
         :: -> dispersion             -0.634752648469 Eh    ::
         :: repulsion energy           6.214124455865 Eh    ::
         :: add. restraining           0.000000000000 Eh    ::
         :: total charge               1.000000000000 e     ::
         :::::::::::::::::::::::::::::::::::::::::::::::::::::

      ----------------------------------------------------------- 
     |                       L-ANC optimizer                     |
      ----------------------------------------------------------- 
          low memory version by Sebastian Ehlert

          ...................................................
          :                      SETUP                      :
          :.................................................:
          :   energy convergence        0.5000000E-05 Eh    :
          :   grad. convergence         0.1000000E-02 Eh/a0 :
          :   optimization log               true           :
          :   writing optlog all                1     steps :
          :   Hessian reset                    20     steps :
          :   maximium step len.        1.0000000     a0    :
          :   LBFGS images                     20           :
          ...................................................
 * calculating model hessian...
Using Lindh-Hessian (1995)
 Shifting diagonal of input Hessian by   1.004232855280861E-002
 Lowest  eigenvalues of input Hessian
    0.010000    0.000000    0.000000    0.000000    0.000000    0.000000
    0.000000    0.010052    0.010059    0.010081    0.010135    0.010148
    0.010160    0.010173    0.010203    0.010217    0.010234    0.010241
 Highest eigenvalues
    1.441192    1.443194    1.443322    1.449934    1.461098    1.501689
 

........................................................................
.............................. CYCLE    1 ..............................
........................................................................
   1  -1039.7967542 -0.103980E+04  0.165E-03    7.90       0.0  T
   2  -1039.7967542 -0.417547E-07  0.100E-03    7.90       4.0  T
   3  -1039.7967542 -0.137902E-07  0.116E-04    7.90      35.0  T
     SCC iter.                  ...        0 min,  1.796 sec
     gradient                   ...        0 min,  9.529 sec
 * total energy  : -1033.4591256 Eh     change        0.3628996E-05 Eh
   gradient norm :     0.0007793 Eh/a0  converged?    E=F G=T D=F
   step length   :     0.0233138 a0

........................................................................
.............................. CYCLE    2 ..............................
........................................................................
   1  -1039.7967778 -0.103980E+04  0.110E-03    7.90       0.0  T
   2  -1039.7967778 -0.194475E-07  0.670E-04    7.90       6.0  T
   3  -1039.7967778 -0.689806E-08  0.778E-05    7.90      52.0  T
     SCC iter.                  ...        0 min,  1.837 sec
     gradient                   ...        0 min,  9.517 sec
 * total energy  : -1033.4591300 Eh     change       -0.4466807E-05 Eh
   gradient norm :     0.0002036 Eh/a0  converged?    E=T G=T D=F
   step length   :     0.0167144 a0

   *** GEOMETRY OPTIMIZATION CONVERGED AFTER 2 CYCLES ***

------------------------------------------------------------------------
 total energy gain   :        -0.0000008 Eh       -0.0005 kcal/mol
 total RMSD          :         0.0004470 a0        0.0002 Å
 total power (kW/mol):        -0.0010998 (step)   -0.0001 (real)
------------------------------------------------------------------------

 L-ANCopt (total)              0 d,  0 h,  0 min, 30.711 sec
 setup                          ...        0 min,  0.021 sec (  0.069%)
 model hessian                  ...        0 min,  4.683 sec ( 15.250%)
 ANC generation                 ...        0 min,  1.521 sec (  4.953%)
 coordinate transformation      ...        0 min,  0.013 sec (  0.042%)
 Rational function              ...        0 min,  0.003 sec (  0.009%)
 singlepoint calculation        ...        0 min, 24.449 sec ( 79.610%)
 optimization log               ...        0 min,  0.016 sec (  0.052%)
 hessian update                 ...        0 min,  0.000 sec (  0.000%)

================
 final structure:
================
612
 xtb: 6.5.1 (579679a)
H           -1.79270603510009       -0.14595137746691       -0.97568710126499
C           -0.83835746104916        0.18923203324930       -1.37610414499486
H           -0.73602095121692       -0.17309106337387       -2.39555665441572
C            0.30794042765037       -0.36400763888348       -0.53889023295822
H            1.26322703150265       -0.06028047241502       -0.95358387817761
H            0.24773462401652       -1.44555456657651       -0.54896487740173
O           -0.82778908444019        1.59879312582920       -1.42504493107633
H           -1.30063145620976        1.91656191582729       -0.63403595256947
N            0.23899602678432        0.11116344411593        0.85283601033153
H            0.33756299482697        1.14727159547886        0.88829247245046
H            1.05493619722638       -0.33252453925480        1.36984366815692
H           -0.65589688023220       -0.17802371217327        1.27923095126159
O            3.10014680586984        5.54104086116115        4.22389300106798
H            2.75506710032292        5.47521317561204        5.12561724009011
H            4.04824125505045        5.38210037824115        4.31037851927814
O            2.62505065390552        3.22083066923990       -4.05413852015718
H            2.17511172942424        2.35187625632954       -4.11516614666413
H            2.67066923252864        3.58476349704775       -4.94019615782727
O            8.38565102122388        4.32663549424487        0.00483232008169
H            8.09711873502859        5.09421916665435       -0.49851268755258
H            7.56317437512019        3.81961114787975        0.16772215133804
O           -3.42054170470517        1.47753720245595        4.12825295638578
H           -3.41059282535482        0.76845330486552        3.47660358228817
H           -4.34191841523660        1.78337301153819        4.21483552483015
O           -4.76417481333496        4.79008120144230       -0.81910760538867
H           -4.27326594177099        4.69747022836291        0.01674801983378
H           -5.04980893680115        3.89896437252890       -1.08080849169837
O           -1.59662863964365       -3.33386765759743       -5.09895662308720
H           -0.82037413976375       -3.67521676209522       -5.56243753814079
H           -2.34645681268074       -3.92082589429711       -5.30631431280292
O            2.70373860133559        1.31366974426816        1.05735653170679
H            3.40089039908152        1.00410793555838        0.45617705363094
H            3.15488643221513        1.66430819416549        1.83502634395139
O            4.95612981013327        6.17425440373057        0.81980568725338
H            4.25124314950991        5.52597907157265        0.99239042581304
H            5.62971879559728        5.99259424384943        1.49557409631065
O            2.16237318539343       -1.32661921147945        1.92932158424530
H            1.82609589536958       -2.22800878079695        2.04164464628218
H            3.00353336972995       -1.38856347710216        1.43859014929277
O            1.48157638645175       -2.25855102187359       -3.73308872325580
H            2.10078065090479       -1.85512038042216       -3.10954936728912
H            1.96524910299921       -2.98832701133713       -4.15766679312379
O            4.07605381968165        3.74965699218677       -1.23252950259454
H            4.22442937740825        4.35386683744732       -1.99005727046328
H            3.35248022761307        3.14453967803769       -1.49378700390485
O            7.10678497092364        3.33586884664645       -2.62001611060900
H            6.90639018778837        4.21041884241159       -2.24077521452675
H            6.25752049164497        2.93402733435387       -2.90389359508661
O           -2.33793617462157       -0.21157231963972        1.96499228677708
H           -2.38314255717288        0.65971292017974        1.49178869570326
H           -3.14835906402815       -0.67839768611931        1.70923536785248
O           -1.32948393803188        2.45111840037755        6.05476032987641
H           -1.26419313099332        1.82575017044405        5.30109040437189
H           -2.27472276300446        2.55263541122884        6.24957152350068
O           -1.51533130794788        3.21710939983342        3.11533356090721
H           -2.24841751592972        2.77609189637972        3.58274990556337
H           -1.68722793895168        4.16333523178667        3.04168043954049
O            3.68318753785459       -0.26889743630008       -3.91613519158137
H            3.79302918475476       -0.34731993595605       -4.88638766090951
H            4.25854101444842        0.48983213389017       -3.67139181257945
O           -1.10522764305411       -4.54851458904610        3.94190096846579
H           -2.07200083806303       -4.48797004241702        3.85499444010650
H           -0.74794015286108       -3.73479527506462        3.52823352468437
O            0.10303245769093       -5.70492817631836        1.07163610464806
H            0.87499729059157       -5.90601912892524        0.52900341701775
H           -0.31188875188158       -6.55833290496404        1.27045447044708
O            1.66979399228078       -1.75502374878676        4.62306753791775
H            0.90226054541432       -1.97902499619120        4.06156470376025
H            2.43870728274007       -2.21513706091368        4.23976033139873
O           -0.65174379589133       -0.79808514422285        6.42632311861927
H           -0.50905040850993       -1.76190320234683        6.41032589631165
H           -0.80841462683973       -0.53091182422661        5.49887974810047
O            4.11205476014247        2.67551615595024        3.03326833260545
H            5.06839552581368        2.48172128624781        3.14359768333884
H            3.75133047129431        2.60843774560693        3.92697803801370
O           -0.20230873250588        6.10013098551219       -3.41045422319694
H           -0.20629760398265        5.12702497469684       -3.26574197317464
H           -0.33061144709394        6.48098754049690       -2.51744750534209
O           -3.23192006993460        4.79000538621226        1.34999214555460
H           -3.16234446877684        5.69100524461666        1.68702558569576
H           -3.75783161950031        4.31112961244426        2.04002462466782
O           -2.86786511826890       -2.32959539486448       -0.90030629729206
H           -2.17060009711035       -2.56321819738884       -0.25475917525141
H           -2.37844194693608       -2.22443692683970       -1.72984800536207
O            2.92380452072140       -1.77701562773939       -1.42727495679701
H            3.61110535891243       -1.86858456287133       -0.74439314024424
H            2.33744934361425       -2.53828748214159       -1.27139211297794
O            9.36544333455547       -0.34052697946853       -4.28991193159220
H            9.02670813864195       -0.65263661612217       -5.17167388629780
H            9.30328910746570        0.63666164979261       -4.32890580773598
O           -2.26736132762986        2.11670644002919        0.86494231716337
H           -3.22459376681372        2.28390148639331        0.89316623140630
H           -1.89203320197374        2.61033924020485        1.62545731344180
O            1.85938515661574        2.31667242720471       -1.35479077322130
H            1.47487034349891        3.20397423374420       -1.23330011656379
H            2.01221506949195        1.96056191167243       -0.46346396988169
O            2.03659587247643       -2.35010982677598        7.17870053393800
H            1.83427383069436       -2.07724271817466        6.25313669774908
H            1.26238845083853       -2.85835510771120        7.43927049819459
O           -2.50769853698107       -5.02242434001418        0.93013641997134
H           -3.40513446429878       -4.62987290707001        0.92288733735238
H           -2.49652039341351       -5.69119861019404        1.63402361972328
O           -1.43781063875174       -1.16933581001882       -7.20582618922030
H           -1.15445791661886       -0.99293618195269       -6.28299978898158
H           -1.53446416448814       -0.28656919951855       -7.62844303936755
O            2.71089947782906        7.20459382536130       -0.48822695603112
H            3.63067405108800        7.08158782269176       -0.21839716143334
H            2.20620711235031        7.22983990047835        0.33934914676997
O           -2.03650530883781        4.33223587648820       -6.43283892233953
H           -2.72201962021908        4.00847707481820       -7.02032522863696
H           -1.58526180481548        3.53903425338414       -6.06778343557046
O            6.67355700211471       -5.15390064154600       -4.03649747356043
H            6.83931416086330       -4.40466652086779       -3.40849890301897
H            6.64280060334454       -4.72344500049413       -4.89961048040854
O           -1.38555716006137       -5.22622227281150       -1.48832304211194
H           -1.78268614305011       -5.18135090671979       -0.59550408667067
H           -1.15008388100839       -4.31830746134072       -1.77258041788637
O          -10.08759282964185       -2.34773363339119        2.99323343931558
H          -10.88420646780236       -1.95428490456612        2.59001618540113
H           -9.99190463827002       -3.22751421227901        2.57407473308344
O           -9.74207438411810       -4.59172178591130        1.52885553666368
H           -8.78883510091155       -4.90456533219545        1.50862473262769
H          -10.26391435132570       -5.37730504718951        1.68997907092125
O           -0.41647870465930       -2.13109845819379        3.02209696460966
H           -0.56970073074374       -2.34435203577861        2.08509443388949
H           -1.26250297353493       -1.86196697055937        3.44377614634104
O           -0.02341570966410        3.46205069164696       -3.28782235039086
H            0.94520968615380        3.51555741966246       -3.22889230127566
H           -0.32687457505062        2.87743533417749       -2.56854216293751
O            0.55315342699503        5.31152100141898       -6.11898260314792
H           -0.35526718516925        5.10974745838000       -6.38346696767213
H            0.49540752404250        5.73209852764562       -5.25336541241733
O           -6.57596447328276        0.43316987221162        2.53280550146825
H           -6.97355609636886       -0.24697402882109        1.95895055903572
H           -7.34519695822325        0.94433453626884        2.85483868420624
O            6.98213334052267        2.32228589259886        6.41661865257316
H            7.85647068277614        2.09844543657911        6.73430908349689
H            6.47674438447155        1.48397919742385        6.37626248714201
O           -6.39765655818054       -5.91745805188451       -1.00424624306554
H           -6.00396850545045       -6.77561389052684       -0.83181274301850
H           -5.65301125150319       -5.34310422923023       -1.27783522977022
O            2.95932689511062        4.22618630626553        1.12160662923464
H            3.32513962879676        4.02980491049055        0.23142309899465
H            3.42760886357828        3.67474265457406        1.77378334378577
O            6.69167904842110       -0.59609632743004       -3.71034457575517
H            7.64795913327503       -0.49578611547180       -3.82920800181511
H            6.51284451964237       -0.43278387845279       -2.76004698475039
O            0.27100460720990       -6.87724400377075        4.06614644233423
H            0.74254576964101       -7.18525132576616        3.27523413021776
H           -0.22732122626553       -6.07228577974292        3.83324598303167
O           -3.84095700119535       -4.26489091212532        3.67117496441650
H           -4.50891847986341       -4.29668700910395        4.37267554018914
H           -4.32765106200373       -4.17108765095344        2.84538160920506
O            4.76102595047463       -4.00987727082071       -1.11214179483239
H            4.41921353452102       -4.06358803385632       -0.19435201512641
H            5.71771618502331       -4.09938378060057       -1.02600587302846
O            2.44953279288978        3.65767064959344       -6.91362684650940
H            2.69039107526484        3.96620761569787       -7.78720133573114
H            1.72986157753884        4.26779054185521       -6.61364479099039
O            5.98786818238251        3.16844616414914        0.52742577574396
H            5.36943586694222        3.40200258820675       -0.18844650646862
H            5.79342850354287        2.24365919900685        0.76847755925446
O            1.16162592352153       -1.68983082169256       -7.38270974017266
H            0.20184944646641       -1.62867346469805       -7.57135294325866
H            1.38051256813488       -0.80050423672022       -7.06772726599523
O           -0.91595917054860       -2.84980187491455       -2.62510421468948
H           -1.27491911196534       -3.09189379102681       -3.50825923278555
H            0.01063359863658       -2.62450744924289       -2.81291595698195
O            0.77828674636315       -4.08478667804081       -6.21947707507206
H            0.98606778659656       -3.18058445009344       -6.53839093942630
H            0.94287726824676       -4.68308655651768       -6.94669403546979
O            1.99279364246428        4.70477008675341        6.66610714341949
H            1.88298381277402        5.01434909387809        7.56326990757652
H            1.09842506145647        4.72507738427378        6.23268506573470
O           -1.62294712692561        1.35446910655977       -8.00908843119782
H           -1.04107262479151        1.75558638684070       -7.35194628734810
H           -2.52623033141040        1.63609473931629       -7.77631470757094
O            4.13066821631500        0.69046590493060       -1.10478482367918
H            3.60047406674287       -0.05275861980535       -1.42098395123309
H            5.02915909695560        0.32761436727988       -0.96308822312179
O           -4.01225486401280        2.94241397546259        6.72063178334631
H           -4.73215040299521        2.73657514594807        6.09484924077206
H           -3.87678304489343        2.11362543494154        7.19833848712560
O            3.52405820906569        2.62578319464415        5.75703864886626
H            2.91130874967739        3.26232424786290        6.16538181026460
H            3.68707215069590        1.92545096600210        6.39434245796329
O            1.35294886582730        0.93922793625375       -3.62243578532599
H            2.14219796547299        0.36135479566197       -3.69592110364563
H            1.34840686574033        1.28952416570330       -2.71232866883728
O           -3.82511584101795       -2.09510130109353       -6.49097179612193
H           -3.88256266883375       -3.05517004797065       -6.48413642114962
H           -2.94077504210378       -1.86261309658412       -6.85683656025812
O           -0.45304175858417       -0.68232547574189       -4.73387437281747
H            0.05493464353351        0.08157316582549       -4.39931693830135
H            0.15312356648148       -1.42511759957102       -4.57834457769921
O           -0.51312080156775       -7.76979723448394       -1.40225789887664
H            0.33593963858395       -7.88933735822109       -1.84138238982006
H           -0.68547739909455       -6.80619169705543       -1.40889899568091
O            8.96953522191687       -4.68547966946159        2.03199174479583
H            9.30136186199319       -5.53673624658047        2.31727942133459
H            8.78907355531969       -4.18213525887828        2.85740089892759
O            2.48702422430916       -6.25188099906589       -0.23544351451148
H            2.28364672483131       -6.71503948425556       -1.07929043585733
H            3.46143018176524       -6.33808358240673       -0.12480861816334
O           -4.91180440603810        2.01236337095173        1.13927070150418
H           -5.41216216447366        1.38604321889828        1.69423171328064
H           -5.49345559894549        2.79149195389293        1.08000221846508
O            8.88051485148133        3.50657358978372        2.55997158583521
H            9.07977925978683        3.95916221034701        1.72764723705964
H            8.03748248148714        3.91532925904734        2.83567028480484
O            8.68388843740201        2.26472891457044       -4.53625695203423
H            8.06817916152500        2.15196390086226       -5.26685552308071
H            8.16933539067369        2.73593761995248       -3.84939257542653
O           10.89174157201369        3.43743077489562       -0.50060699594624
H           11.05935893953302        2.78947103299562        0.20170161312278
H            9.98922415727474        3.78049658870385       -0.35777545150661
O           -3.76938946586742        0.81016509939637       -1.01144563626342
H           -4.30791278538739        1.17888309554531       -0.29053026163598
H           -4.30158230753580        0.14113085971071       -1.47189145203030
O            5.10470154755603        3.68048000060003       -5.59984403524843
H            5.56668070441946        2.82442579747839       -5.59056777427991
H            4.35964319451835        3.59011073539741       -6.20081644255454
O           -0.80315663876094        0.62526163958168        4.12549077820397
H            0.10115358208074        0.76328093069382        3.81195977035352
H           -1.34537574787400        0.26802747023601        3.40953816556396
O           -8.04291639450332       -1.53163688275342        1.38268170383970
H           -8.54079886377648       -1.03456328330208        0.68410614654302
H           -8.72860454035086       -1.75378399851567        2.03871880248656
O           -7.46145950409177        1.91145691428762       -5.66113958481668
H           -7.30267167787579        1.36405015342469       -6.43382105235851
H           -6.96625013199463        2.76058133057209       -5.82013685963205
O            7.20683223868904       -4.97970285530144       -0.08873007624842
H            7.72985774503678       -5.05194589015652        0.72536445789473
H            7.73674785843112       -5.40124936555381       -0.81175822456558
O            7.86703155570221       -2.36355476474730        0.13932892192144
H            7.64947511498898       -3.26754421000733       -0.15777435296226
H            8.45794940662704       -1.99448910585416       -0.55262733179622
O           -5.93254535189047        2.03865734656427        4.97304531933463
H           -6.44165871948580        1.21689579003830        5.05844621352428
H           -6.49014055221490        2.68436707861226        4.50365312972106
O            1.34459534574737        3.53664777972245        3.52154293622066
H            1.62876558262333        2.62651895700085        3.67676244629422
H            2.11201226030251        4.12366928213401        3.62115262271558
O           -6.23319388021399        6.23095856282461        2.94882128568061
H           -6.63788337145128        6.27381360507130        2.07507688434567
H           -5.53882961545360        6.89529111260632        2.94769833561597
O           -1.39002882422815        4.28469919998055       -0.64190771665876
H           -0.73445628168753        3.77501666569296       -0.13529027429562
H           -2.03940072105481        4.56642488123858        0.01710317209650
O           -0.85345783794312        6.02063222505998        2.91912385222088
H           -0.58285973926009        5.82091227181029        3.82380827684979
H           -0.02324866961915        6.19632135123603        2.43235393108769
O            1.55769640715969       -3.95047701165596        2.41852614808612
H            1.77125872412448       -4.32813638534195        3.28874127947184
H            0.90672353628516       -4.55040833047452        2.00688547035784
O            6.43934090343924       -2.65314147479080        2.41328671652754
H            6.76481484694654       -1.87552459908348        2.91335701393779
H            7.03134211763799       -2.72395999378194        1.65402947072257
O           -3.06342464563295       -1.21192849841125       -4.04167441052053
H           -2.10202150744562       -1.30675415168512       -4.15206933053645
H           -3.44093985771808       -1.57431910287655       -4.87051425431791
O           -8.91061654054724        1.62722430245199        2.96471860103942
H           -9.01223277693669        1.80835138976386        2.00735756154328
H           -8.73642963867014        2.49290269122943        3.36197637729042
O            4.01911313975809       -0.24093013243345       -6.53448746251075
H            3.17135297423475        0.18747243286446       -6.72718785110169
H            3.96125486238287       -1.17665170172785       -6.81591351200764
O           -4.63502692311071        4.57804246956269       -3.67604590244557
H           -3.95210544728275        5.21887751312440       -3.96141643134572
H           -4.14662903762096        3.93913908028723       -3.10694584959476
O            6.25943483295442       -2.54376350950627        5.49385631003439
H            5.79013442636841       -3.12254415281999        6.11631843154701
H            5.71681984772993       -2.59681502697418        4.68436760348583
O            4.04368006824524       -3.92401971037627        6.30543151241728
H            3.97595532816718       -3.62374622797164        5.38470009009454
H            3.39398472529316       -3.38490673489755        6.79442910986615
O            0.58445056229084       -5.17465835614913       -3.63644786232886
H           -0.31658068369391       -5.50085962465239       -3.79628453405582
H            0.88250554203474       -4.78158695686907       -4.46937616971946
O            4.89556946553667        1.98655583621405       -3.25851288138525
H            4.20631123408288        2.60062048261358       -3.58143972997217
H            4.63268411965591        1.72740824866385       -2.34793954805824
O            8.55003918143358       -6.00373642505325       -2.11712727731619
H            7.96701325976258       -5.97278714590646       -2.88924804153995
H            9.22611592577750       -5.32598014199981       -2.27536582599354
O            4.45395721712963       -0.09173619144279        3.57586601651318
H            4.90590340517401        0.06008154212764        4.43093201433744
H            3.57224999534742        0.31545644233120        3.64124516242182
O           -0.74940327638652       -3.09600847531941        0.56390827501635
H            0.00407812059843       -3.44402823663183        0.05596365952446
H           -1.23116942475994       -3.89203470818168        0.87720678568785
O            5.69658834600524        0.64740220982566        1.34514082197546
H            5.31079010856435        0.48912917202599        2.23137356482910
H            6.66348529146283        0.69290771875836        1.44260519991386
O           11.87020174173529       -0.21293301085871       -1.22410562285910
H           12.17474883791892       -0.88359346140434       -1.84730013386282
H           11.60543719045545        0.54834805281090       -1.77425762330617
O           -5.71232561578914       -4.16715321305677        5.74552719470067
H           -6.64458103497841       -4.27531085849932        5.54317776527607
H           -5.64286915979099       -3.28281652968300        6.13681526814834
O           -3.11570970769449       -3.41065501047322        6.65866949097148
H           -3.79025657516518       -2.72029049641939        6.81077846983052
H           -3.60509643102096       -4.20776663149147        6.44366095657311
O           -9.13675370110997        1.85156733324855       -3.49130083755167
H           -8.75397716486173        1.91819293103211       -4.37859801872134
H           -8.77647010560566        1.00737557541168       -3.12345133913877
O           -4.23719357263818       -4.46480501712715       -1.78809332916464
H           -3.73057765319780       -5.28183743446025       -1.63528654284608
H           -3.75391813055035       -3.72158381214169       -1.36726380752755
O           -3.06573993428596        5.17803886695445        5.30655612434580
H           -3.39005563785565        4.60199943269517        6.01382815114030
H           -2.09970764772819        5.11511277007334        5.32879045869749
O          -10.64879708298155        3.58312293900373        1.95509060287221
H          -11.27871800390079        4.18245408658395        2.35173297576443
H          -10.19408269206875        4.08804617576350        1.24588751304285
O           -5.14296139853697       -1.10801864853843       -2.34284621669610
H           -5.56556816777307       -0.43614027240824       -2.90547168948043
H           -4.37645469357555       -1.41652220117120       -2.85100618599218
O           -5.95985041113213        2.45441150361080       -1.52128935880119
H           -6.80375091546096        2.94483669190118       -1.58425216530707
H           -5.81098250420472        2.04616870943668       -2.39655999486081
O           -3.18249321078836        0.30364336471957        6.66831923062775
H           -2.31768144313945       -0.13379720311318        6.76064117286618
H           -3.22418227583487        0.58053675983753        5.73190414196671
O            6.42110510755775       -5.16967129322825        3.54259760755207
H            7.10966614284912       -5.08799996756071        4.20286301150144
H            6.37452546813103       -4.30767066007675        3.08976040062151
O            6.52257340121579       -0.33963167255197       -1.10575678021450
H            7.25018168733130        0.31921551857970       -1.06398605148037
H            6.82728051915661       -1.12680293104769       -0.62486161232374
O           -6.52128650508915       -3.22592491905406        2.84665912692364
H           -6.94911154643928       -2.63437767942162        2.20923497222677
H           -7.09506512014641       -3.23141432281952        3.64153472698469
O            1.63454759122591        6.39985833904838        1.96817981326926
H            2.14044870774878        6.45789213316211        2.78913794232600
H            1.93962084848864        5.56050201594497        1.57249006859959
O           -3.73320502548548       -4.89771106284155       -5.55113327198432
H           -3.28951342455810       -5.55937175609547       -4.99689294515438
H           -4.48753718094984       -4.56854180696990       -5.02763314684813
O           -9.67826203239221       -0.44601284984273       -0.30001921689279
H          -10.17738766463088       -1.25758947739304       -0.48214132572174
H          -10.27689300942808        0.15698623814378        0.16918068645633
O           -7.43702842778149       -0.28040758626557        5.46984836269792
H           -8.39618282814369       -0.07811354268738        5.35058107517167
H           -7.24305974793400       -0.34073444394692        6.40707618264760
O           -8.09705728466475       -2.87286431448885        4.93933520541238
H           -7.76893218728988       -1.97237541060683        5.14732175141476
H           -8.96021790469582       -2.75592905748263        4.52862993575947
O           -4.84616799929000       -3.82646318867611        0.97625536003227
H           -4.70120791967910       -2.87499879151610        1.14153390675942
H           -5.43783472160130       -3.82580495427605        0.20829063893774
O           -5.60698202041589       -3.75344443277080       -3.94787759523226
H           -6.47737073475577       -4.07717819803940       -3.64102013211798
H           -5.02274887267959       -3.88373683373605       -3.17128527938735
O           11.59577912426955       -1.71600574004224       -3.61042437467058
H           12.10081170453785       -1.96154236220781       -4.38461873548215
H           10.85352097252182       -1.15608359063720       -3.92350778309248
O            1.34822817881845       -3.95524803894471       -1.11205297601388
H            1.03451807395918       -4.29477973979059       -1.96427335915373
H            1.89683347001848       -4.66526033620767       -0.73152548703639
O           -5.02223316642304       -1.23969026316257        3.85256128615694
H           -5.55441139213317       -0.51674758117312        3.46436070775655
H           -5.38875228495116       -2.06079248947534        3.47464674067982
O           11.65721435776532        1.27041640865179        1.10880836698626
H           11.68594745768191        0.60313832864611        0.40220013931469
H           12.57034879266156        1.47738110109657        1.31094788984905
O           -3.50652756222547       -7.02657742779714       -1.14812236183157
H           -3.92363630125181       -7.08009961622367       -0.26952106343509
H           -2.68606006173637       -7.52071074663669       -1.08597483780105
O           -5.59442734448040       -0.06126441530415       -6.74817986334320
H           -4.95821589396109       -0.76499718509741       -6.95088021645969
H           -6.04167688520052       -0.40362173338200       -5.95391798531724
O            1.28332231717184        4.91494211716033       -1.11847305580205
H            1.88303894539769        5.66380502760563       -0.98665899742022
H            0.39649282628918        5.23696251031625       -0.91575766525449
O            4.53828237485212       -1.65073326446706        0.71073097970495
H            4.98389193695240       -0.78717745014329        0.81236988799468
H            5.05818729419036       -2.27726405944665        1.23729650940444
O            0.40379355309658        2.94961284214525        1.04122141829483
H            0.09628310346454        3.10882664620279        1.94450247693903
H            1.28764366290365        3.35244686584856        1.01320482358060
O            1.58192233012795        1.03678593656145       -6.61596205009507
H            0.78991054891061        1.22110671196874       -6.08280230455527
H            1.91535566192077        1.91710338643379       -6.85276586241375
O           -6.73274900946297        5.88910208997108       -2.75600660678377
H           -6.84106647435249        6.57163539528452       -3.41659417586734
H           -5.90317232159332        5.39928039710230       -2.98643274651656
O           -8.63253244982864        2.06256726012686        0.33958544566988
H           -9.34161237231285        2.14613431541129       -0.31475358950118
H           -8.08475628467099        1.29057045295326        0.09069657204107
O            8.33527118386465        1.57359698011551       -1.13310089606160
H            7.85652708482624        2.31316150660184       -1.57370108701371
H            9.17090749351819        1.47049744175840       -1.62268203305712
O           -4.69975809435369        7.74285399390584        0.61118395247000
H           -4.15951686566587        7.56125398787142       -0.17313733029108
H           -4.12659277537419        7.65615357878345        1.38185139678556
O            9.91693431964731       -1.19694475272937        1.55616983579850
H            9.71153171626697       -0.25677095000342        1.43329550137785
H            9.13737180711996       -1.67138724435025        1.22077038722669
O            1.96389157590826       -7.82343823117593        1.99015765901501
H            2.16302862399553       -7.32653631668383        1.17730591750626
H            2.77259418148738       -7.72551187214353        2.50946107033763
O           10.02773018003399       -1.11135624711492        4.25469677520677
H           10.30846314170846       -0.18707297251656        4.36390440891420
H           10.17862261552438       -1.28530475529978        3.30294166813595
O           -2.02183521185765       -6.26049332798296       -3.83028705014937
H           -2.07974956824303       -7.20845926491853       -3.71042649192942
H           -2.01618163959715       -5.88205723798795       -2.92207400756204
O            7.35162175820809       -3.14160875980238       -2.47817303870232
H            8.32535294180195       -3.21593316404480       -2.49707178318745
H            7.09301347740372       -2.35531012456714       -2.97972257432835
O           -5.09737858286708       -1.52654029428334        6.52325000078154
H           -5.18136681148185       -1.38513387540412        5.55409268241526
H           -4.46267999340618       -0.82478932311620        6.78159937257030
O           10.74239334084286       -3.50239922644236        0.22322541163925
H           10.82035560129589       -2.61312772288401        0.59199207649541
H           10.14480286139811       -3.97734503795365        0.82333769810085
O           10.00405862123486       -3.65620143795038       -2.34757032278782
H           10.29965005205311       -3.61735389762301       -1.41127597562941
H           10.61423671593262       -3.07839447802344       -2.82976178038364
O            3.34711699505272        0.04502740742402        7.49162088975481
H            3.02650125029929       -0.86713491723302        7.57629277353176
H            2.53292040105543        0.55427918753885        7.34317801569126
O            8.61900262088195       -3.49779103589951        4.43934733277865
H            7.81256931213217       -3.12624988852427        4.84474421218471
H            9.29575880507736       -2.81894896402714        4.55214357086535
O           -2.51016210414802       -7.08655267392311        2.73897660071512
H           -1.92357613684065       -7.70186685134885        2.26490990034528
H           -2.11835097070663       -6.95422608899023        3.60609514932021
O           -9.96607437395852       -0.03299543053224        4.75453530034543
H          -10.12856547614947       -0.84300852721232        4.26043435869725
H           -9.75631353370378        0.64459222425743        4.08092514949074
O           -4.62599893610244       -1.17890923268423        0.81721912012843
H           -5.39860155902865       -0.68980507829576        0.48804275162200
H           -4.08329757478713       -1.39160535960827        0.03730977526029
O           -9.88012175937355       -2.43556073627943       -2.80755010980635
H          -10.46065005131104       -2.63552878691501       -2.06453125165713
H           -9.26903142061085       -3.18835485387734       -2.87102544809885
O            4.60296510860035        5.26322294653516       -3.35293827512436
H            4.79743171198400        4.79968321886555       -4.18299711967669
H            3.82686259663878        5.84104577763735       -3.49706286736085
O            3.18193591514647       -4.12049357068260       -4.71763013795482
H            3.84474341958999       -3.52636872218789       -4.26768765482307
H            3.37512888387001       -4.98292135287576       -4.31672048527302
O           -8.09822434506255       -0.44433152660459       -2.65504127528613
H           -7.56319143199608       -0.75251707308510       -3.40962486507602
H           -8.84171807913212       -1.08071404135164       -2.59314250887482
O           -7.57102920147373        3.84555229430911        3.68389504955663
H           -7.25193201747155        3.85619818561664        2.74973035904785
H           -7.51534632469954        4.75502506986985        3.98137313500595
O           -4.84545885503377       -7.12586216892539        1.23867096625268
H           -4.16550932015348       -7.15341561076017        1.92671181505687
H           -5.60279743144152       -6.65333361137243        1.60321243371661
O           10.47994319819030        1.51282948473932        3.70416595293361
H           10.91215019458111        1.37334494355893        2.85052562258479
H            9.91908579281353        2.28863097510602        3.56849824964111
O           -2.66681822944844        6.18851195461404       -4.47029653600701
H           -2.53402390018943        5.67981331455290       -5.28573243624761
H           -1.77096371632511        6.23389486533523       -4.07168859807542
O          -11.50757302841334        1.22894514739196        0.93656497866160
H          -11.17852172437468        1.98365266263338        1.46894516750336
H          -11.61469118409591        1.59769810370290        0.04770572119831
O           -6.78228419622284        0.20710166537309       -0.38560611952738
H           -6.34814305800651        1.03016012588730       -0.70037441060366
H           -7.27087388434637       -0.12863992126819       -1.16076370217615
O           -3.29270316660386        7.03410342286968        3.02372757923089
H           -2.32570660647786        6.90428397493615        2.94483314629102
H           -3.50168905562822        6.65800762506244        3.88745284800103
O            5.09825227483548       -6.73994677029286       -0.20784411144806
H            5.27994471084111       -7.07966407618328       -1.08640123119644
H            5.81047880336875       -6.10520385429805       -0.00568657009922
O            2.47353059499169        6.88071980963171       -3.32014006942026
H            2.56886882419210        7.20595301442443       -2.41630554013947
H            1.55176602284917        6.58649115612444       -3.40195895631352
O           -0.64288063696886       -8.34173684707158        1.22509854421047
H           -0.60560003623500       -8.32191395236775        0.24764061297646
H            0.24222669665810       -8.56909479387832        1.53893609197918
O          -12.22886244494969       -1.23279540629303        1.73647646036644
H          -13.08108564713750       -1.18003648852720        2.16881630197624
H          -11.99651311935521       -0.31601756149740        1.47348054155635
O            2.27274664863390       -5.26556159168932        4.66660610331985
H            1.55535155216221       -5.93337717464888        4.72577409633794
H            2.65975681444386       -5.11719049914258        5.53772448332834
O            4.09643443509281       -6.43866656075659        3.02705742137412
H            5.00054542108921       -6.22134276109638        3.29970068560861
H            3.50821975574402       -6.01305606034222        3.68069476441589
O            4.81899965656832       -2.59932711340967       -3.44096148323402
H            4.43027818114922       -1.70065353721286       -3.43703572290332
H            4.78802544783169       -2.93818861081409       -2.52951080820503
O            8.05082421740791       -0.95538385740174       -6.45145773207351
H            7.48451817995395       -1.72621154281041       -6.24883215585411
H            7.45811400501739       -0.18657686601167       -6.44431709076161
O           -9.52350510032925        5.06084918352319        0.00417586194595
H           -8.88773121686358        5.74939162449820        0.22779794909809
H           -9.07219183416646        4.53031995292655       -0.68151654049663
O           -8.19773126646695        3.79976551266052       -1.97168433070365
H           -8.55028629307362        3.17243755848810       -2.64119152388930
H           -7.78639682346939        4.55933880257921       -2.42194135810432
O            6.60317463413062        2.07808785754230        3.71290092562259
H            6.84544219402002        1.13856453145197        3.74890096153585
H            6.77386058589489        2.41495538915475        4.60325822928431
O            7.55776339112479       -0.48239189860813        3.49990215233403
H            7.95021483882008       -0.04471303172918        2.72530771704659
H            8.33429095988771       -0.76310097097340        4.02480838798485
O           -7.27884932682327       -5.44128095827999        1.51262140091081
H           -6.99656174589103       -5.50925732842140        0.57780890569324
H           -6.79362040752261       -4.69132310854785        1.91535920493851
O           -0.23160108845547        4.64043651779941        5.29043061481745
H           -0.67988385064698        3.83017423573668        5.65424001090841
H            0.27866276793075        4.24350556500550        4.53611704776109
O           -5.82854744020494        3.91175957341753       -5.98928814933910
H           -5.13407495283220        3.40069372774927       -6.44095178208973
H           -5.44022334104562        4.17408392476929       -5.12962548267847
O           -6.82656390527827        3.87250688007166        1.12312020697700
H           -6.79624461377464        4.70889841256658        0.61928367849860
H           -7.53036601406669        3.31520833553860        0.73672993630943
O          -10.99551099340123       -2.84599672289579       -0.23763791073874
H          -11.64760405275647       -2.46296471881940        0.36370821324774
H          -10.48917651769598       -3.49622631223736        0.27935492637661
O            3.98770967886477       -4.26287509689762        1.45675686191665
H            4.18729354152919       -5.14436028449659        1.82998736254141
H            3.02900206578674       -4.13957560633923        1.62494578859742
O            6.47792297167733        5.75057160630805       -1.46139597339467
H            5.86858727814297        5.87568632645738       -2.20572130949337
H            5.94505323037382        5.90144722300045       -0.65885766110713
O            4.32680849315104       -5.92057023589851       -3.01085900527488
H            5.18807324700246       -5.80154712446648       -3.46022188701964
H            4.35662966481492       -5.27368113958970       -2.27525103080925
O          -10.81810168979142        2.46111639839267       -1.40089328099089
H          -10.42424803069701        2.17362635156951       -2.24025705034658
H          -10.85371734295151        3.42002417706835       -1.41522808617206
O            6.25541698388615        1.12075674118166       -5.75322288238872
H            6.30815084294090        0.64995145189789       -4.89265215125745
H            5.49302386189664        0.71824787596434       -6.19664966469306
O            1.04014907921429        1.20618899100620        6.70254779647864
H            0.35517012918937        1.88684921549106        6.71358474281381
H            0.51331176756154        0.37150882048042        6.70444299892331
O            8.39420483555589        1.09698372705343        1.44951112346400
H            8.43140463401256        1.32493197694472        0.49580186333919
H            8.52551641455033        1.94642617311743        1.92699344903765
O            4.06878776341488       -2.71664427893340        3.77329623396923
H            4.22839162466202       -1.77675792557622        3.53225024626803
H            4.17256499195270       -3.24342775836851        2.96018582194670
O           -5.69764899963464        1.11481496760383       -3.80627288369360
H           -4.82186358224488        1.28221905802717       -4.18880618622394
H           -6.37121811485204        1.35475648106313       -4.47409984480988
O            6.47204198255873        4.79663037114509        2.64136101784640
H            6.21020220062140        4.10895697237211        1.99745554290640
H            6.06512845511017        4.58356487565474        3.49483859247886
O           -3.30363158910697        6.80794438232547       -1.63492454835693
H           -3.82440768587513        5.98982040331608       -1.44099095680383
H           -3.25798908729324        6.87273153195639       -2.59347890131228
O           -4.61355041470410        4.01639859150989        3.38937538336112
H           -4.07557471035465        4.35346130356408        4.12446907153347
H           -5.32286811734084        4.66569746242851        3.26195456178783
O           -6.95261252158009        6.34639738934349        0.02553658462097
H           -6.17527155181678        6.90525865617618        0.22428426784725
H           -6.85534066865372        6.15677910502882       -0.92355093350019
O           -0.69030531748475        2.18987793968608       -5.47758067665039
H           -0.34087413506315        2.67967597291491       -4.69262694189900
H           -1.46726448472309        1.71124484644898       -5.12376407097618
O            1.91607360618844        0.83361260725133        4.16889216685481
H            1.82376296993884       -0.14849723723129        4.18973303422263
H            1.75562176123810        1.08925422872169        5.09988705932831
O           -0.72662585274075        7.00145788107466       -0.92955022782025
H           -1.69090151438032        6.87525367762936       -1.06770034063294
H           -0.58269480740607        7.91519105409996       -0.68987640051749
O           -3.97639648994100        2.08079414275865       -6.82180352408721
H           -4.60941788490767        1.34361726211057       -6.94776304163906
H           -3.58764120029278        1.90697746956176       -5.94162938802325
O           10.66451153207042        1.82204302463373       -2.52449555956010
H           10.83990410882609        2.54035168932551       -1.86090477920617
H           10.38207388958659        2.24980087569491       -3.33749033222778
O            3.68303416329335       -2.86128323295901       -7.05235266220431
H            2.85429629979648       -2.65892820242977       -7.50224347758618
H            3.44208418952659       -3.39903958062428       -6.26830604190991
O           -3.00624528943686        1.39001853985636       -4.42068258014388
H           -2.98849117501187        0.43901762887465       -4.15726243962497
H           -2.90373956815143        1.95106834381836       -3.61404102993823
O           -3.05338838389257        2.95788953110274       -2.33054097783020
H           -3.33090148586180        2.20163679251745       -1.75984401376594
H           -2.39892579654279        3.46640110615799       -1.80937886842226
O            5.46956007323468        4.42463799240391        5.19212017087671
H            6.22008979758924        4.29842104838357        5.77582264727193
H            4.84508278668219        3.70649058751227        5.41789414814000
O            9.30551215460188       -0.99932859920895       -1.56424728024342
H            9.30977713217605       -0.83340984115505       -2.51438398955256
H           10.20409709689532       -0.80470980574650       -1.25348981245206
O           -6.64754868717834       -2.78782212427792       -0.81472547524533
H           -6.11673035953591       -2.16327963056824       -1.34809102729373
H           -7.12821558764666       -2.26696697944964       -0.15841984514650
O           -6.80639991263456       -1.52869517734397       -4.77119523246786
H           -6.22395869049856       -2.26546989472522       -4.46940359477831
H           -7.53853539073719       -1.94150347443295       -5.23016669764697
O           -7.87670076666054       -4.28703817050719       -2.61040851501601
H           -7.76245930969872       -5.17035751183430       -2.24192363437849
H           -7.48802738933497       -3.69708207847773       -1.91885087925806
O            1.97841479204166       -7.22019448294662       -2.64909226580986
H            1.46791092333657       -6.48910971081182       -3.06324885346110
H            2.89696172516687       -7.05473347823580       -2.91283712332659
O           -2.49344654493100       -1.69922033808007        4.51096463977357
H           -2.59485931410975       -2.40369087838077        5.16692666079107
H           -3.38205189056669       -1.52910675962582        4.16037508156436
O            6.27849766645079       -2.92353511250355       -5.75574141647468
H            5.56105785132051       -2.94135956602733       -6.39722507379747
H            5.88230325411724       -2.63030795909286       -4.91425731090755
O            5.56958067359794        0.04004788485403        6.00158241495249
H            5.95797252324394       -0.85478127264483        5.93673830298639
H            4.79890302472488       -0.02294020233871        6.60249361690166
O           -0.40824078508685       -3.53311149370180        6.42002962335897
H           -0.49805878323874       -3.96733392120547        5.55070901233373
H           -1.29343007274308       -3.59194831427214        6.80340773325213
 
 Bond Distances (Angstroems)
 ---------------------------
H1-C2=1.0879         C2-H1=1.0879         C2-H3=1.0868         C2-C4=1.5235         C2-O7=1.4105         H3-C2=1.0868         
C4-C2=1.5235         C4-H5=1.0848         C4-H6=1.0833         C4-N9=1.4722         H5-C4=1.0848         H6-C4=1.0833         
O7-C2=1.4105         O7-H8=0.9748         H8-O7=0.9748         N9-C4=1.4722         N9-H10=1.0414        N9-H11=1.0630        
N9-H12=1.0326        H10-N9=1.0414        H11-N9=1.0630        H12-N9=1.0326        O13-H14=0.9677       O13-H15=0.9652       
H14-O13=0.9677       H15-O13=0.9652       O16-H17=0.9804       O16-H18=0.9590       H17-O16=0.9804       H18-O16=0.9590       
O19-H20=0.9622       O19-H21=0.9798       H20-O19=0.9622       H21-O19=0.9798       O22-H23=0.9631       O22-H24=0.9747       
H23-O22=0.9631       H24-O22=0.9747       O25-H26=0.9738       O25-H27=0.9717       H26-O25=0.9738       H27-O25=0.9717       
O28-H29=0.9664       O28-H30=0.9746       H29-O28=0.9664       H30-O28=0.9746       O31-H32=0.9712       O31-H33=0.9650       
H32-O31=0.9712       H33-O31=0.9650       O34-H35=0.9731       O34-H36=0.9713       H35-O34=0.9731       H36-O34=0.9713       
O37-H38=0.9686       O37-H39=0.9758       H38-O37=0.9686       H39-O37=0.9758       O40-H41=0.9669       O40-H42=0.9730       
H41-O40=0.9669       H42-O40=0.9730       O43-H44=0.9803       O43-H45=0.9788       H44-O43=0.9803       H45-O43=0.9788       
O46-H47=0.9741       O46-H48=0.9815       H47-O46=0.9741       H48-O46=0.9815       O49-H50=0.9925       O49-H51=0.9696       
H50-O49=0.9925       H51-O49=0.9696       O52-H53=0.9815       O52-H54=0.9704       H53-O52=0.9815       H54-O52=0.9704       
O55-H56=0.9749       O55-H57=0.9645       H56-O55=0.9749       H57-O55=0.9645       O58-H59=0.9796       O58-H60=0.9832       
H59-O58=0.9796       H60-O58=0.9832       O61-H62=0.9726       O61-H63=0.9803       H62-O61=0.9726       H63-O61=0.9803       
O64-H65=0.9648       O64-H66=0.9695       H65-O64=0.9648       H66-O64=0.9695       O67-H68=0.9770       O67-H69=0.9746       
H68-O67=0.9770       H69-O67=0.9746       O70-H71=0.9745       O70-H72=0.9778       H71-O70=0.9745       H72-O70=0.9778       
O73-H74=0.9820       O73-H75=0.9661       H74-O73=0.9820       H75-O73=0.9661       O76-H77=0.9838       O76-H78=0.9793       
H77-O76=0.9838       H78-O76=0.9793       O79-H80=0.9645       O79-H81=0.9910       H80-O79=0.9645       H81-O79=0.9910       
O82-H83=0.9785       O82-H84=0.9689       H83-O82=0.9785       H84-O82=0.9689       O85-H86=0.9732       O85-H87=0.9735       
H86-O85=0.9732       H87-O85=0.9735       O88-H89=0.9948       O88-H90=0.9799       H89-O88=0.9948       H90-O88=0.9799       
O91-H92=0.9721       O91-H93=0.9813       H92-O91=0.9721       H93-O91=0.9813       O94-H95=0.9746       O94-H96=0.9719       
H95-O94=0.9746       H96-O94=0.9719       O97-H98=0.9859       O97-H99=0.9621       H98-O97=0.9859       H99-O97=0.9621       
O100-H101=0.9796     O100-H102=0.9710     H101-O100=0.9796     H102-O100=0.9710     O103-H104=0.9813     O103-H105=0.9835     
H104-O103=0.9813     H105-O103=0.9835     O106-H107=0.9664     O106-H108=0.9697     H107-O106=0.9664     H108-O106=0.9697     
O109-H110=0.9591     O109-H111=0.9829     H110-O109=0.9591     H111-O109=0.9829     O112-H113=0.9916     O112-H114=0.9650     
H113-O112=0.9916     H114-O112=0.9650     O115-H116=0.9782     O115-H117=0.9801     H116-O115=0.9782     H117-O115=0.9801     
O118-H119=0.9757     O118-H120=0.9792     H119-O118=0.9757     H120-O118=0.9792     O121-H122=1.0035     O121-H123=0.9568     
H122-O121=1.0035     H123-O121=0.9568     O124-H125=0.9731     O124-H126=0.9829     H125-O124=0.9731     H126-O124=0.9829     
O127-H128=0.9719     O127-H129=0.9753     H128-O127=0.9719     H129-O127=0.9753     O130-H131=0.9674     O130-H132=0.9641     
H131-O130=0.9674     H132-O130=0.9641     O133-H134=0.9747     O133-H135=0.9781     H134-O133=0.9747     H135-O133=0.9781     
O136-H137=0.9568     O136-H138=0.9797     H137-O136=0.9568     H138-O136=0.9797     O139-H140=0.9598     O139-H141=0.9794     
H140-O139=0.9598     H141-O139=0.9794     O142-H143=0.9822     O142-H144=0.9740     H143-O142=0.9822     H144-O142=0.9740     
O145-H146=0.9688     O145-H147=0.9807     H146-O145=0.9688     H147-O145=0.9807     O148-H149=0.9710     O148-H150=0.9750     
H149-O148=0.9710     H150-O148=0.9750     O151-H152=0.9692     O151-H153=0.9631     H152-O151=0.9692     H153-O151=0.9631     
O154-H155=0.9808     O154-H156=0.9647     H155-O154=0.9808     H156-O154=0.9647     O157-H158=0.9573     O157-H159=0.9900     
H158-O157=0.9573     H159-O157=0.9900     O160-H161=0.9744     O160-H162=0.9753     H161-O160=0.9744     H162-O160=0.9753     
O163-H164=0.9800     O163-H165=0.9685     H164-O163=0.9800     H165-O163=0.9685     O166-H167=0.9836     O166-H168=0.9719     
H167-O166=0.9836     H168-O166=0.9719     O169-H170=0.9811     O169-H171=0.9560     H170-O169=0.9811     H171-O169=0.9560     
O172-H173=0.9554     O172-H174=0.9941     H173-O172=0.9554     H174-O172=0.9941     O175-H176=0.9650     O175-H177=0.9744     
H176-O175=0.9650     H177-O175=0.9744     O178-H179=0.9662     O178-H180=0.9793     H179-O178=0.9662     H180-O178=0.9793     
O181-H182=0.9758     O181-H183=0.9662     H182-O181=0.9758     H183-O181=0.9662     O184-H185=0.9733     O184-H186=0.9608     
H185-O184=0.9733     H186-O184=0.9608     O187-H188=0.9809     O187-H189=0.9752     H188-O187=0.9809     H189-O187=0.9752     
O190-H191=0.9618     O190-H192=0.9849     H191-O190=0.9618     H192-O190=0.9849     O193-H194=0.9765     O193-H195=0.9713     
H194-O193=0.9765     H195-O193=0.9713     O196-H197=0.9633     O196-H198=0.9789     H197-O196=0.9633     H198-O196=0.9789     
O199-H200=0.9571     O199-H201=0.9835     H200-O199=0.9571     H201-O199=0.9835     O202-H203=0.9838     O202-H204=0.9844     
H203-O202=0.9838     H204-O202=0.9844     O205-H206=0.9750     O205-H207=0.9741     H206-O205=0.9750     H207-O205=0.9741     
O208-H209=0.9681     O208-H210=0.9766     H209-O208=0.9681     H210-O208=0.9766     O211-H212=0.9621     O211-H213=0.9791     
H212-O211=0.9621     H213-O211=0.9791     O214-H215=0.9701     O214-H216=0.9760     H215-O214=0.9701     H216-O214=0.9760     
O217-H218=0.9725     O217-H219=0.9710     H218-O217=0.9725     H219-O217=0.9710     O220-H221=0.9728     O220-H222=0.9615     
H221-O220=0.9728     H222-O220=0.9615     O223-H224=0.9670     O223-H225=0.9665     H224-O223=0.9670     H225-O223=0.9665     
O226-H227=0.9915     O226-H228=0.9746     H227-O226=0.9915     H228-O226=0.9746     O229-H230=0.9602     O229-H231=0.9958     
H230-O229=0.9602     H231-O229=0.9958     O232-H233=0.9703     O232-H234=0.9906     H233-O232=0.9703     H234-O232=0.9906     
O235-H236=0.9761     O235-H237=0.9819     H236-O235=0.9761     H237-O235=0.9819     O238-H239=0.9705     O238-H240=0.9737     
H239-O238=0.9705     H240-O238=0.9737     O241-H242=0.9660     O241-H243=0.9713     H242-O241=0.9660     H243-O241=0.9713     
O244-H245=0.9639     O244-H246=0.9610     H245-O244=0.9639     H246-O244=0.9610     O247-H248=0.9727     O247-H249=0.9671     
H248-O247=0.9727     H249-O247=0.9671     O250-H251=0.9652     O250-H252=0.9783     H251-O250=0.9652     H252-O250=0.9783     
O253-H254=0.9724     O253-H255=0.9763     H254-O253=0.9724     H255-O253=0.9763     O256-H257=0.9801     O256-H258=0.9654     
H257-O256=0.9801     H258-O256=0.9654     O259-H260=0.9724     O259-H261=0.9802     H260-O259=0.9724     H261-O259=0.9802     
O262-H263=0.9796     O262-H264=0.9683     H263-O262=0.9796     H264-O262=0.9683     O265-H266=0.9692     O265-H267=0.9788     
H266-O265=0.9692     H267-O265=0.9788     O268-H269=0.9790     O268-H270=0.9852     H269-O268=0.9790     H270-O268=0.9852     
O271-H272=0.9709     O271-H273=0.9760     H272-O271=0.9709     H273-O271=0.9760     O274-H275=0.9708     O274-H276=0.9756     
H275-O274=0.9708     H276-O274=0.9756     O277-H278=0.9715     O277-H279=0.9680     H278-O277=0.9715     H279-O277=0.9680     
O280-H281=0.9780     O280-H282=0.9826     H281-O280=0.9780     H282-O280=0.9826     O283-H284=0.9680     O283-H285=0.9703     
H284-O283=0.9680     H285-O283=0.9703     O286-H287=0.9790     O286-H288=0.9734     H287-O286=0.9790     H288-O286=0.9734     
O289-H290=0.9731     O289-H291=0.9818     H290-O289=0.9731     H291-O289=0.9818     O292-H293=0.9794     O292-H294=0.9729     
H293-O292=0.9794     H294-O292=0.9729     O295-H296=0.9648     O295-H297=0.9759     H296-O295=0.9648     H297-O295=0.9759     
O298-H299=0.9601     O298-H300=0.9695     H299-O298=0.9601     H300-O298=0.9695     O301-H302=0.9771     O301-H303=0.9597     
H302-O301=0.9771     H303-O301=0.9597     O304-H305=0.9686     O304-H306=0.9888     H305-O304=0.9686     H306-O304=0.9888     
O307-H308=0.9734     O307-H309=0.9813     H308-O307=0.9734     H309-O307=0.9813     O310-H311=0.9681     O310-H312=0.9683     
H311-O310=0.9681     H312-O310=0.9683     O313-H314=0.9557     O313-H315=0.9822     H314-O313=0.9557     H315-O313=0.9822     
O316-H317=0.9729     O316-H318=0.9700     H317-O316=0.9729     H318-O316=0.9700     O319-H320=0.9781     O319-H321=0.9772     
H320-O319=0.9781     H321-O319=0.9772     O322-H323=0.9735     O322-H324=0.9774     H323-O322=0.9735     H324-O322=0.9774     
O325-H326=0.9575     O325-H327=0.9748     H326-O325=0.9575     H327-O325=0.9748     O328-H329=0.9825     O328-H330=0.9715     
H329-O328=0.9825     H330-O328=0.9715     O331-H332=0.9692     O331-H333=0.9803     H332-O331=0.9692     H333-O331=0.9803     
O334-H335=0.9661     O334-H336=0.9768     H335-O334=0.9661     H336-O334=0.9768     O337-H338=0.9705     O337-H339=0.9754     
H338-O337=0.9705     H339-O337=0.9754     O340-H341=0.9700     O340-H342=0.9706     H341-O340=0.9700     H342-O340=0.9706     
O343-H344=0.9875     O343-H345=0.9590     H344-O343=0.9875     H345-O343=0.9590     O346-H347=0.9807     O346-H348=0.9630     
H347-O346=0.9807     H348-O346=0.9630     O349-H350=0.9765     O349-H351=0.9695     H350-O349=0.9765     H351-O349=0.9695     
O352-H353=0.9780     O352-H354=0.9805     H353-O352=0.9780     H354-O352=0.9805     O355-H356=0.9564     O355-H357=0.9811     
H356-O355=0.9564     H357-O355=0.9811     O358-H359=0.9695     O358-H360=0.9746     H359-O358=0.9695     H360-O358=0.9746     
O361-H362=0.9780     O361-H363=0.9754     H362-O361=0.9780     H363-O361=0.9754     O364-H365=0.9723     O364-H366=0.9579     
H365-O364=0.9723     H366-O364=0.9579     O367-H368=0.9741     O367-H369=0.9598     H368-O367=0.9741     H369-O367=0.9598     
O370-H371=0.9701     O370-H372=0.9737     H371-O370=0.9701     H372-O370=0.9737     O373-H374=0.9684     O373-H375=0.9650     
H374-O373=0.9684     H375-O373=0.9650     O376-H377=0.9771     O376-H378=0.9696     H377-O376=0.9771     H378-O376=0.9696     
O379-H380=0.9674     O379-H381=0.9717     H380-O379=0.9674     H381-O379=0.9717     O382-H383=0.9724     O382-H384=0.9707     
H383-O382=0.9724     H384-O382=0.9707     O385-H386=0.9560     O385-H387=0.9906     H386-O385=0.9560     H387-O385=0.9906     
O388-H389=0.9685     O388-H390=0.9788     H389-O388=0.9685     H390-O388=0.9788     O391-H392=0.9850     O391-H393=0.9740     
H392-O391=0.9850     H393-O391=0.9740     O394-H395=0.9695     O394-H396=0.9643     H395-O394=0.9695     H396-O394=0.9643     
O397-H398=0.9702     O397-H399=0.9723     H398-O397=0.9702     H399-O397=0.9723     O400-H401=0.9733     O400-H402=0.9661     
H401-O400=0.9733     H402-O400=0.9661     O403-H404=0.9721     O403-H405=0.9792     H404-O403=0.9721     H405-O403=0.9792     
O406-H407=0.9573     O406-H408=0.9839     H407-O406=0.9573     H408-O406=0.9839     O409-H410=0.9767     O409-H411=0.9678     
H410-O409=0.9767     H411-O409=0.9678     O412-H413=0.9830     O412-H414=0.9808     H413-O412=0.9830     H414-O412=0.9808     
O415-H416=0.9659     O415-H417=0.9710     H416-O415=0.9659     H417-O415=0.9710     O418-H419=0.9826     O418-H420=0.9689     
H419-O418=0.9826     H420-O418=0.9689     O421-H422=0.9706     O421-H423=0.9717     H422-O421=0.9706     H423-O421=0.9717     
O424-H425=0.9761     O424-H426=0.9652     H425-O424=0.9761     H426-O424=0.9652     O427-H428=0.9734     O427-H429=0.9607     
H428-O427=0.9734     H429-O427=0.9607     O430-H431=0.9626     O430-H432=0.9782     H431-O430=0.9626     H432-O430=0.9782     
O433-H434=0.9719     O433-H435=0.9737     H434-O433=0.9719     H435-O433=0.9737     O436-H437=0.9639     O436-H438=0.9717     
H437-O436=0.9639     H438-O436=0.9717     O439-H440=0.9704     O439-H441=0.9783     H440-O439=0.9704     H441-O439=0.9783     
O442-H443=0.9974     O442-H444=0.9705     H443-O442=0.9974     H444-O442=0.9705     O445-H446=0.9750     O445-H447=0.9806     
H446-O445=0.9750     H447-O445=0.9806     O448-H449=0.9872     O448-H450=0.9585     H449-O448=0.9872     H450-O448=0.9585     
O451-H452=0.9677     O451-H453=0.9642     H452-O451=0.9677     H453-O451=0.9642     O454-H455=0.9669     O454-H456=0.9669     
H455-O454=0.9669     H456-O454=0.9669     O457-H458=0.9702     O457-H459=0.9816     H458-O457=0.9702     H459-O457=0.9816     
O460-H461=0.9805     O460-H462=0.9683     H461-O460=0.9805     H462-O460=0.9683     O463-H464=0.9823     O463-H465=0.9759     
H464-O463=0.9823     H465-O463=0.9759     O466-H467=0.9789     O466-H468=0.9650     H467-O466=0.9789     H468-O466=0.9650     
O469-H470=0.9593     O469-H471=0.9752     H470-O469=0.9593     H471-O469=0.9752     O472-H473=0.9653     O472-H474=0.9710     
H473-O472=0.9653     H474-O472=0.9710     O475-H476=0.9784     O475-H477=0.9662     H476-O475=0.9784     H477-O475=0.9662     
O478-H479=0.9571     O478-H480=0.9816     H479-O478=0.9571     H480-O478=0.9816     O481-H482=0.9819     O481-H483=0.9647     
H482-O481=0.9819     H483-O481=0.9647     O484-H485=0.9690     O484-H486=0.9769     H485-O484=0.9690     H486-O484=0.9769     
O487-H488=0.9791     O487-H489=0.9729     H488-O487=0.9791     H489-O487=0.9729     O490-H491=0.9777     O490-H492=0.9708     
H491-O490=0.9777     H492-O490=0.9708     O493-H494=0.9635     O493-H495=0.9774     H494-O493=0.9635     H495-O493=0.9774     
O496-H497=0.9829     O496-H498=0.9741     H497-O496=0.9829     H498-O496=0.9741     O499-H500=0.9709     O499-H501=0.9671     
H500-O499=0.9709     H501-O499=0.9671     O502-H503=0.9724     O502-H504=0.9784     H503-O502=0.9724     H504-O502=0.9784     
O505-H506=0.9789     O505-H507=0.9798     H506-O505=0.9789     H507-O505=0.9798     O508-H509=0.9949     O508-H510=0.9934     
H509-O508=0.9949     H510-O508=0.9934     O511-H512=0.9734     O511-H513=0.9791     H512-O511=0.9734     H513-O511=0.9791     
O514-H515=0.9769     O514-H516=0.9774     H515-O514=0.9769     H516-O514=0.9774     O517-H518=0.9662     O517-H519=0.9729     
H518-O517=0.9662     H519-O517=0.9729     O520-H521=0.9778     O520-H522=0.9811     H521-O520=0.9778     H522-O520=0.9811     
O523-H524=0.9700     O523-H525=0.9751     H524-O523=0.9700     H525-O523=0.9751     O526-H527=0.9787     O526-H528=0.9800     
H527-O526=0.9787     H528-O526=0.9800     O529-H530=0.9707     O529-H531=0.9597     H530-O529=0.9707     H531-O529=0.9597     
O532-H533=0.9824     O532-H534=0.9695     H533-O532=0.9824     H534-O532=0.9695     O535-H536=0.9657     O535-H537=0.9870     
H536-O535=0.9657     H537-O535=0.9870     O538-H539=0.9813     O538-H540=0.9833     H539-O538=0.9813     H540-O538=0.9833     
O541-H542=0.9833     O541-H543=0.9744     H542-O541=0.9833     H543-O541=0.9744     O544-H545=0.9702     O544-H546=0.9784     
H545-O544=0.9702     H546-O544=0.9784     O547-H548=0.9778     O547-H549=0.9692     H548-O547=0.9778     H549-O547=0.9692     
O550-H551=0.9890     O550-H552=0.9618     H551-O550=0.9890     H552-O550=0.9618     O553-H554=0.9713     O553-H555=0.9700     
H554-O553=0.9713     H555-O553=0.9700     O556-H557=0.9778     O556-H558=0.9727     H557-O556=0.9778     H558-O556=0.9727     
O559-H560=0.9890     O559-H561=0.9787     H560-O559=0.9890     H561-O559=0.9787     O562-H563=0.9867     O562-H564=0.9787     
H563-O562=0.9867     H564-O562=0.9787     O565-H566=0.9823     O565-H567=0.9555     H566-O565=0.9823     H567-O565=0.9555     
O568-H569=0.9798     O568-H570=0.9778     H569-O568=0.9798     H570-O568=0.9778     O571-H572=0.9935     O571-H573=0.9611     
H572-O571=0.9935     H573-O571=0.9611     O574-H575=0.9644     O574-H576=0.9808     H575-O574=0.9644     H576-O574=0.9808     
O577-H578=0.9870     O577-H579=0.9879     H578-O577=0.9870     H579-O577=0.9879     O580-H581=0.9872     O580-H582=0.9790     
H581-O580=0.9872     H582-O580=0.9790     O583-H584=0.9591     O583-H585=0.9781     H584-O583=0.9591     H585-O583=0.9781     
O586-H587=0.9645     O586-H588=0.9705     H587-O586=0.9645     H588-O586=0.9705     O589-H590=0.9779     O589-H591=0.9660     
H590-O589=0.9779     H591-O589=0.9660     O592-H593=0.9865     O592-H594=0.9576     H593-O592=0.9865     H594-O592=0.9576     
O595-H596=0.9639     O595-H597=0.9886     H596-O595=0.9639     H597-O595=0.9886     O598-H599=0.9832     O598-H600=0.9699     
H599-O598=0.9832     H600-O598=0.9699     O601-H602=0.9679     O601-H603=0.9703     H602-O601=0.9679     H603-O601=0.9703     
O604-H605=0.9626     O604-H606=0.9752     H605-O604=0.9626     H606-O604=0.9752     O607-H608=0.9776     O607-H609=0.9793     
H608-O607=0.9776     H609-O607=0.9793     O610-H611=0.9759     O610-H612=0.9664     H611-O610=0.9759     H612-O610=0.9664     
 C  H  Rav=1.0857 sigma=0.0018  Rmin=1.0833  Rmax=1.0879     4
 C  C  Rav=1.5235 sigma=0.0000  Rmin=1.5235  Rmax=1.5235     1
 N  H  Rav=1.0457 sigma=0.0128  Rmin=1.0326  Rmax=1.0630     3
 N  C  Rav=1.4722 sigma=0.0000  Rmin=1.4722  Rmax=1.4722     1
 O  H  Rav=0.9737 sigma=0.0083  Rmin=0.9554  Rmax=1.0035   401
 O  C  Rav=1.4105 sigma=0.0000  Rmin=1.4105  Rmax=1.4105     1
 
 selected bond angles (degree)
 --------------------
H3-C2-H1=108.98                C4-C2-H1=110.24                C4-C2-H3=108.88                O7-C2-H1=109.10                
O7-C2-H3=107.45                O7-C2-C4=112.11                H5-C4-C2=110.54                H6-C4-C2=108.40                
H6-C4-H5=108.96                N9-C4-C2=111.53                N9-C4-H5=108.19                N9-C4-H6=109.17                
H8-O7-C2=107.10                H10-N9-C4=110.42               H11-N9-C4=106.81               H11-N9-H10=109.03              
H12-N9-C4=109.91               H12-N9-H10=110.28              H12-N9-H11=110.33              
 
 selected dihedral angles (degree)
 ---------------------------------
H5-C4-C2-H1=178.09            H5-C4-C2-H3= 58.60            H5-C4-C2-O7=299.84            H6-C4-C2-H1= 58.73            
H6-C4-C2-H3=299.24            H6-C4-C2-O7=180.48            N9-C4-C2-H1=298.51            N9-C4-C2-H3=179.01            
N9-C4-C2-O7= 60.26            H8-O7-C2-H1= 37.14            H8-O7-C2-H3=155.15            H8-O7-C2-C4=274.74            
H10-N9-C4-C2=297.27           H10-N9-C4-H5= 59.05           H10-N9-C4-H6=177.50           H11-N9-C4-C2=178.85           
H11-N9-C4-H5=300.64           H11-N9-C4-H6= 59.09           H12-N9-C4-C2= 59.15           H12-N9-C4-H5=180.94           
H12-N9-C4-H6=299.39           
 
 CMA Distance (Angstroems)
 ---------------------------
R(CMA):  0.8740
           -------------------------------------------------
          |                Final Singlepoint                |
           -------------------------------------------------

          ...................................................
          :                      SETUP                      :
          :.................................................:
          :  # basis functions                1224          :
          :  # atomic orbitals                1224          :
          :  # shells                          816          :
          :  # electrons                      1626          :
          :  max. iterations                   250          :
          :  Hamiltonian                  GFN2-xTB          :
          :  restarted?                      false          :
          :  GBSA solvation                  false          :
          :  PC potential                    false          :
          :  electronic temp.          300.0000000     K    :
          :  accuracy                    1.0000000          :
          :  -> integral cutoff          0.2500000E+02      :
          :  -> integral neglect         0.1000000E-07      :
          :  -> SCF convergence          0.1000000E-05 Eh   :
          :  -> wf. convergence          0.1000000E-03 e    :
          :  Broyden damping             0.4000000          :
          ...................................................

 iter      E             dE          RMSdq      gap      omega  full diag
   1  -1039.7967778 -0.103980E+04  0.271E-05    7.90       0.0  T
   2  -1039.7967778 -0.284217E-10  0.160E-05    7.90     252.4  T
   3  -1039.7967778 -0.109139E-10  0.427E-06    7.90     946.0  T

   *** convergence criteria satisfied after 3 iterations ***

         #    Occupation            Energy/Eh            Energy/eV
      -------------------------------------------------------------
         1        2.0000           -0.7453632             -20.2824
       ...           ...                  ...                  ...
       807        2.0000           -0.4570338             -12.4365
       808        2.0000           -0.4557559             -12.4017
       809        2.0000           -0.4555009             -12.3948
       810        2.0000           -0.4553739             -12.3914
       811        2.0000           -0.4551998             -12.3866
       812        2.0000           -0.4528779             -12.3234
       813        2.0000           -0.4371871             -11.8965 (HOMO)
       814                         -0.1467613              -3.9936 (LUMO)
       815                         -0.1327680              -3.6128
       816                         -0.1250743              -3.4034
       817                         -0.1194559              -3.2506
       818                         -0.1123825              -3.0581
       ...                                ...                  ...
      1224                          0.3778702              10.2824
      -------------------------------------------------------------
                  HL-Gap            0.2904257 Eh            7.9029 eV
             Fermi-level           -0.2919742 Eh           -7.9450 eV

 SCC (total)                   0 d,  0 h,  0 min, 12.218 sec
 SCC setup                      ...        0 min,  0.032 sec (  0.263%)
 Dispersion                     ...        0 min,  0.078 sec (  0.634%)
 classical contributions        ...        0 min,  0.021 sec (  0.169%)
 integral evaluation            ...        0 min,  0.698 sec (  5.709%)
 iterations                     ...        0 min,  1.847 sec ( 15.118%)
 molecular gradient             ...        0 min,  9.471 sec ( 77.515%)
 printout                       ...        0 min,  0.072 sec (  0.591%)

         :::::::::::::::::::::::::::::::::::::::::::::::::::::
         ::                     SUMMARY                     ::
         :::::::::::::::::::::::::::::::::::::::::::::::::::::
         :: total energy           -1033.459130033839 Eh    ::
         :: gradient norm              0.000202402119 Eh/a0 ::
         :: HOMO-LUMO gap              7.902886157026 eV    ::
         ::.................................................::
         :: SCC energy             -1039.796777806943 Eh    ::
         :: -> isotropic ES            5.734144599129 Eh    ::
         :: -> anisotropic ES         -1.306751058516 Eh    ::
         :: -> anisotropic XC         -0.098429504305 Eh    ::
         :: -> dispersion             -0.634753523418 Eh    ::
         :: repulsion energy           6.214185635477 Eh    ::
         :: add. restraining           0.000000000000 Eh    ::
         :: total charge               1.000000000000 e     ::
         :::::::::::::::::::::::::::::::::::::::::::::::::::::

           ------------------------------------------------- 
          |                Numerical Hessian                |
           ------------------------------------------------- 
step length          :   0.00500
SCC accuracy         :   0.30000
Hessian scale factor :   1.00000
frozen atoms in %    :   0.00000    0
RMS gradient         :   0.00020
estimated CPU  time    763.81 min
estimated wall time    765.86 min
