      -----------------------------------------------------------      
     |                   =====================                   |     
     |                           x T B                           |     
     |                   =====================                   |     
     |                         S. Grimme                         |     
     |          Mulliken Center for Theoretical Chemistry        |     
     |                    University of Bonn                     |     
      -----------------------------------------------------------      

   * xtb version 6.5.1 (579679a) compiled by 'ehlert@majestix' on 2022-07-11

   xtb is free software: you can redistribute it and/or modify it under
   the terms of the GNU Lesser General Public License as published by
   the Free Software Foundation, either version 3 of the License, or
   (at your option) any later version.
   
   xtb is distributed in the hope that it will be useful,
   but WITHOUT ANY WARRANTY; without even the implied warranty of
   MERCHANTABILITY or FITNESS FOR A PARTICULAR PURPOSE.  See the
   GNU Lesser General Public License for more details.
   
   Cite this work as:
   * C. Bannwarth, E. Caldeweyher, S. Ehlert, A. Hansen, P. Pracht,
     J. Seibert, S. Spicher, S. Grimme, WIREs Comput. Mol. Sci., 2020, 11,
     e01493. DOI: 10.1002/wcms.1493
   
   for GFN2-xTB:
   * C. Bannwarth, S. Ehlert and S. Grimme., J. Chem. Theory Comput., 2019,
     15, 1652-1671. DOI: 10.1021/acs.jctc.8b01176
   for GFN1-xTB:
   * S. Grimme, C. Bannwarth, P. Shushkov, J. Chem. Theory Comput., 2017,
     13, 1989-2009. DOI: 10.1021/acs.jctc.7b00118
   for GFN0-xTB:
   * P. Pracht, E. Caldeweyher, S. Ehlert, S. Grimme, ChemRxiv, 2019, preprint.
     DOI: 10.26434/chemrxiv.8326202.v1
   for GFN-FF:
   * S. Spicher and S. Grimme, Angew. Chem. Int. Ed., 2020, 59, 15665-15673.
     DOI: 10.1002/anie.202004239
   
   for ALPB and GBSA implicit solvation:
   * S. Ehlert, M. Stahn, S. Spicher, S. Grimme, J. Chem. Theory Comput.,
     2021, 17, 4250-4261. DOI: 10.1021/acs.jctc.1c00471
   
   for DFT-D4:
   * E. Caldeweyher, C. Bannwarth and S. Grimme, J. Chem. Phys., 2017,
     147, 034112. DOI: 10.1063/1.4993215
   * E. Caldeweyher, S. Ehlert, A. Hansen, H. Neugebauer, S. Spicher,
     C. Bannwarth and S. Grimme, J. Chem. Phys., 2019, 150, 154122.
     DOI: 10.1063/1.5090222
   * E. Caldeweyher, J.-M. Mewes, S. Ehlert and S. Grimme, Phys. Chem. Chem. Phys.
     2020, 22, 8499-8512. DOI: 10.1039/D0CP00502A
   
   for sTDA-xTB:
   * S. Grimme and C. Bannwarth, J. Chem. Phys., 2016, 145, 054103.
     DOI: 10.1063/1.4959605
   
   in the mass-spec context:
   * V. Asgeirsson, C. Bauer and S. Grimme, Chem. Sci., 2017, 8, 4879.
     DOI: 10.1039/c7sc00601b
   * J. Koopman and S. Grimme, ACS Omega 2019, 4, 12, 15120-15133.
     DOI: 10.1021/acsomega.9b02011
   
   for metadynamics refer to:
   * S. Grimme, J. Chem. Theory Comput., 2019, 155, 2847-2862
     DOI: 10.1021/acs.jctc.9b00143
   
   for SPH calculations refer to:
   * S. Spicher and S. Grimme, J. Chem. Theory Comput., 2021, 17, 1701-1714
     DOI: 10.1021/acs.jctc.0c01306
   
   with help from (in alphabetical order)
   P. Atkinson, C. Bannwarth, F. Bohle, G. Brandenburg, E. Caldeweyher
   M. Checinski, S. Dohm, S. Ehlert, S. Ehrlich, I. Gerasimov, C. Hölzer
   A. Katbashev, J. Koopman, C. Lavigne, S. Lehtola, F. März, M. Müller,
   F. Musil, H. Neugebauer, J. Pisarek, C. Plett, P. Pracht, F. Pultar,
   J. Seibert, P. Shushkov, S. Spicher, M. Stahn, M. Steiner, T. Strunk,
   J. Stückrath, T. Rose, and J. Unsleber
   
 * started run on 2022/10/27 at 21:10:41.630     

           -------------------------------------------------
          |                Calculation Setup                |
           -------------------------------------------------

          program call               : xtb solute --gfn2 --sp --lmo
          hostname                   : cn0727
          coordinate file            : solute
          omp threads                :                    25

   ID    Z sym.   atoms
    1    1 h      1, 3, 5, 6, 8, 10-12
    2    6 c      2, 4
    3    8 o      7
    4    7 n      9

           -------------------------------------------------
          |                 G F N 2 - x T B                 |
           -------------------------------------------------

        Reference                      10.1021/acs.jctc.8b01176
      * Hamiltonian:
        H0-scaling (s, p, d)           1.850000    2.230000    2.230000
        zeta-weighting                 0.500000
      * Dispersion:
        s8                             2.700000
        a1                             0.520000
        a2                             5.000000
        s9                             5.000000
      * Repulsion:
        kExp                           1.500000    1.000000
        rExp                           1.000000
      * Coulomb:
        alpha                          2.000000
        third order                    shell-resolved
        anisotropic                    true
        a3                             3.000000
        a5                             4.000000
        cn-shift                       1.200000
        cn-exp                         4.000000
        max-rad                        5.000000


          ...................................................
          :                      SETUP                      :
          :.................................................:
          :  # basis functions                  24          :
          :  # atomic orbitals                  24          :
          :  # shells                           16          :
          :  # electrons                        26          :
          :  max. iterations                   250          :
          :  Hamiltonian                  GFN2-xTB          :
          :  restarted?                      false          :
          :  GBSA solvation                  false          :
          :  PC potential                    false          :
          :  electronic temp.          300.0000000     K    :
          :  accuracy                    1.0000000          :
          :  -> integral cutoff          0.2500000E+02      :
          :  -> integral neglect         0.1000000E-07      :
          :  -> SCF convergence          0.1000000E-05 Eh   :
          :  -> wf. convergence          0.1000000E-03 e    :
          :  Broyden damping             0.4000000          :
          ...................................................

 iter      E             dE          RMSdq      gap      omega  full diag
   1    -14.9436246 -0.149436E+02  0.475E+00   11.10       0.0  T
   2    -15.0431060 -0.994815E-01  0.243E+00    8.81       1.0  T
   3    -15.0454696 -0.236354E-02  0.133E+00    8.14       1.0  T
   4    -15.0457882 -0.318642E-03  0.219E-01    7.86       1.0  T
   5    -15.0458584 -0.701947E-04  0.959E-02    7.88       1.0  T
   6    -15.0458631 -0.470873E-05  0.267E-02    7.93       1.1  T
   7    -15.0458640 -0.832943E-06  0.883E-03    7.93       3.3  T
   8    -15.0458641 -0.110574E-06  0.298E-03    7.93       9.7  T
   9    -15.0458641 -0.609380E-08  0.428E-04    7.93      67.5  T
  10    -15.0458641 -0.263729E-09  0.173E-04    7.93     167.3  T

   *** convergence criteria satisfied after 10 iterations ***

         #    Occupation            Energy/Eh            Energy/eV
      -------------------------------------------------------------
         1        2.0000           -0.9089994             -24.7351
       ...           ...                  ...                  ...
         7        2.0000           -0.7512556             -20.4427
         8        2.0000           -0.7110732             -19.3493
         9        2.0000           -0.7086363             -19.2830
        10        2.0000           -0.6853359             -18.6489
        11        2.0000           -0.6542364             -17.8027
        12        2.0000           -0.6269482             -17.0601
        13        2.0000           -0.5690401             -15.4844 (HOMO)
        14                         -0.2775703              -7.5531 (LUMO)
        15                         -0.1716668              -4.6713
        16                         -0.1231596              -3.3513
        17                         -0.1120374              -3.0487
        18                         -0.0830280              -2.2593
       ...                                ...                  ...
        24                          0.0939102               2.5554
      -------------------------------------------------------------
                  HL-Gap            0.2914699 Eh            7.9313 eV
             Fermi-level           -0.4233052 Eh          -11.5187 eV
 
 localization/xTB-IFF output generation
 averaging CT terms over            1  occ. levels
 averaging CT terms over            1  virt. levels
 dipole moment from electron density (au)
     X       Y       Z   
   2.9866  -0.8561   0.0234  total (Debye):    7.897
cpu  time for init local    0.10 s
wall time for init local    0.01 s
 doing rotations ...
 initialization of trafo matrix to unity

 converged in     11 iterations, threshold :   0.97363198D-06
 doing transformations ...
 lmo centers(Z=2) and atoms on file <lmocent.coord>
 LMO Fii/eV  ncent    charge center   contributions...
    1 sigma -23.04   1.81   2.48717   0.25124  -0.00052    9N :  0.65    4C :  0.36
    2 sigma -22.57   1.84   4.27564   0.54031  -0.00314    9N :  0.64   12H :  0.37
    3 sigma -22.56   1.84   3.64537  -0.85426  -0.85132    9N :  0.64   10H :  0.37
    4 sigma -22.55   1.84   3.64207  -0.81793   0.89975    9N :  0.64   11H :  0.37
    5 sigma -21.06   1.94  -2.42104  -0.25980   0.00082    7O :  0.57    2C :  0.44
    6 sigma -20.21   1.95  -0.02288  -0.03236   0.00063    4C :  0.54    2C :  0.47
    7 sigma -20.19   1.85  -4.15444  -0.20196  -0.00365    7O :  0.65    8H :  0.35
    8 sigma -19.55   1.96   0.84210   1.70612   1.01591    4C :  0.56    5H :  0.44
    9 sigma -19.55   1.96   0.84605   1.66259  -1.08260    4C :  0.56    6H :  0.44
   10 sigma -18.83   1.97  -1.05684  -1.82748  -1.07131    2C :  0.52    3H :  0.48
   11 sigma -18.83   1.97  -1.06102  -1.78157   1.14218    2C :  0.52    1H :  0.48
   12 LP    -18.02   1.00  -3.34170   1.31703   1.41111    7O :  1.00
   13 LP    -18.01   1.01  -3.33626   1.25711  -1.47710    7O :  1.00
 files:
 coordprot.0/xtbscreen.xyz/xtblmoinfo/lmocent.coord
 with protonation site input, xtbdock and
 LMO center info written
 

 SCC (total)                   0 d,  0 h,  0 min,  0.026 sec
 SCC setup                      ...        0 min,  0.000 sec (  1.372%)
 Dispersion                     ...        0 min,  0.001 sec (  2.199%)
 classical contributions        ...        0 min,  0.000 sec (  0.683%)
 integral evaluation            ...        0 min,  0.001 sec (  1.963%)
 iterations                     ...        0 min,  0.003 sec ( 12.525%)
 molecular gradient             ...        0 min,  0.001 sec (  3.659%)
 printout                       ...        0 min,  0.020 sec ( 76.685%)

         :::::::::::::::::::::::::::::::::::::::::::::::::::::
         ::                     SUMMARY                     ::
         :::::::::::::::::::::::::::::::::::::::::::::::::::::
         :: total energy             -14.886870549432 Eh    ::
         :: gradient norm              0.000397030286 Eh/a0 ::
         :: HOMO-LUMO gap              7.931299273744 eV    ::
         ::.................................................::
         :: SCC energy               -15.045864073136 Eh    ::
         :: -> isotropic ES            0.136250224240 Eh    ::
         :: -> anisotropic ES         -0.009710935167 Eh    ::
         :: -> anisotropic XC          0.005441819611 Eh    ::
         :: -> dispersion             -0.003895397316 Eh    ::
         :: repulsion energy           0.158991983614 Eh    ::
         :: add. restraining           0.000000000000 Eh    ::
         :: total charge               1.000000000000 e     ::
         :::::::::::::::::::::::::::::::::::::::::::::::::::::

           -------------------------------------------------
          |                Property Printout                |
           -------------------------------------------------

    * Orbital Energies and Occupations

         #    Occupation            Energy/Eh            Energy/eV
      -------------------------------------------------------------
         1        2.0000           -0.9089994             -24.7351
         2        2.0000           -0.8580822             -23.3496
         3        2.0000           -0.8442498             -22.9732
         4        2.0000           -0.8183119             -22.2674
         5        2.0000           -0.8148817             -22.1741
         6        2.0000           -0.7859623             -21.3871
         7        2.0000           -0.7512556             -20.4427
         8        2.0000           -0.7110732             -19.3493
         9        2.0000           -0.7086363             -19.2830
        10        2.0000           -0.6853359             -18.6489
        11        2.0000           -0.6542364             -17.8027
        12        2.0000           -0.6269482             -17.0601
        13        2.0000           -0.5690401             -15.4844 (HOMO)
        14                         -0.2775703              -7.5531 (LUMO)
        15                         -0.1716668              -4.6713
        16                         -0.1231596              -3.3513
        17                         -0.1120374              -3.0487
        18                         -0.0830280              -2.2593
        19                         -0.0523926              -1.4257
        20                         -0.0259839              -0.7071
        21                         -0.0130232              -0.3544
        22                          0.0020190               0.0549
        23                          0.0810908               2.2066
        24                          0.0939102               2.5554
      -------------------------------------------------------------
                  HL-Gap            0.2914699 Eh            7.9313 eV
             Fermi-level           -0.4233052 Eh          -11.5187 eV

     #   Z          covCN         q      C6AA      α(0)
     1   1 h        0.923     0.051     2.313     2.378
     2   6 c        3.673     0.068    19.666     6.356
     3   1 h        0.923     0.051     2.313     2.378
     4   6 c        3.730    -0.042    21.420     6.607
     5   1 h        0.924     0.129     1.539     1.940
     6   1 h        0.924     0.129     1.539     1.940
     7   8 o        1.659    -0.416    21.167     6.211
     8   1 h        0.805     0.325     0.650     1.266
     9   7 n        3.483    -0.127    23.744     7.237
    10   1 h        0.859     0.276     0.790     1.393
    11   1 h        0.859     0.276     0.790     1.393
    12   1 h        0.859     0.280     0.776     1.380

 Mol. C6AA /au·bohr⁶  :        754.026666
 Mol. C8AA /au·bohr⁸  :      15200.358221
 Mol. α(0) /au        :         40.478548


Wiberg/Mayer (AO) data.
largest (>0.10) Wiberg bond orders for each atom

 ---------------------------------------------------------------------------
     #   Z sym  total        # sym  WBO       # sym  WBO       # sym  WBO
 ---------------------------------------------------------------------------
     1   1 h    0.997 --     2 c    0.966
     2   6 c    3.964 --     7 o    1.022     4 c    0.997     3 h    0.966
                             1 h    0.966
     3   1 h    0.997 --     2 c    0.966
     4   6 c    3.882 --     2 c    0.997     5 h    0.962     6 h    0.962
                             9 n    0.936
     5   1 h    0.983 --     4 c    0.962
     6   1 h    0.983 --     4 c    0.962
     7   8 o    1.962 --     2 c    1.022     8 h    0.879
     8   1 h    0.894 --     7 o    0.879
     9   7 n    3.676 --     4 c    0.936    10 h    0.908    11 h    0.908
                            12 h    0.908
    10   1 h    0.924 --     9 n    0.908
    11   1 h    0.924 --     9 n    0.908
    12   1 h    0.922 --     9 n    0.908
 ---------------------------------------------------------------------------

Topologies differ in total number of bonds
Writing topology from bond orders to xtbtopo.mol

molecular dipole:
                 x           y           z       tot (Debye)
 q only:        2.796      -0.555       0.017
   full:        2.987      -0.856       0.023       7.897
molecular quadrupole (traceless):
                xx          xy          yy          xz          yz          zz
 q only:       13.328       1.849      -6.084       0.000      -0.021      -7.244
  q+dip:       12.956       3.649      -6.738      -0.040       0.018      -6.218
   full:       14.004       3.289      -6.785      -0.028      -0.003      -7.219


           -------------------------------------------------
          | TOTAL ENERGY              -14.886870549432 Eh   |
          | GRADIENT NORM               0.000397030286 Eh/α |
          | HOMO-LUMO GAP               7.931299273744 eV   |
           -------------------------------------------------

------------------------------------------------------------------------
 * finished run on 2022/10/27 at 21:10:41.705     
------------------------------------------------------------------------
 total:
 * wall-time:     0 d,  0 h,  0 min,  0.075 sec
 *  cpu-time:     0 d,  0 h,  0 min,  1.257 sec
 * ratio c/w:    16.728 speedup
 SCF:
 * wall-time:     0 d,  0 h,  0 min,  0.026 sec
 *  cpu-time:     0 d,  0 h,  0 min,  0.503 sec
 * ratio c/w:    19.115 speedup

