      -----------------------------------------------------------      
     |                   =====================                   |     
     |                           x T B                           |     
     |                   =====================                   |     
     |                         S. Grimme                         |     
     |          Mulliken Center for Theoretical Chemistry        |     
     |                    University of Bonn                     |     
      -----------------------------------------------------------      

   * xtb version 6.5.1 (579679a) compiled by 'ehlert@majestix' on 2022-07-11

   xtb is free software: you can redistribute it and/or modify it under
   the terms of the GNU Lesser General Public License as published by
   the Free Software Foundation, either version 3 of the License, or
   (at your option) any later version.
   
   xtb is distributed in the hope that it will be useful,
   but WITHOUT ANY WARRANTY; without even the implied warranty of
   MERCHANTABILITY or FITNESS FOR A PARTICULAR PURPOSE.  See the
   GNU Lesser General Public License for more details.
   
   Cite this work as:
   * C. Bannwarth, E. Caldeweyher, S. Ehlert, A. Hansen, P. Pracht,
     J. Seibert, S. Spicher, S. Grimme, WIREs Comput. Mol. Sci., 2020, 11,
     e01493. DOI: 10.1002/wcms.1493
   
   for GFN2-xTB:
   * C. Bannwarth, S. Ehlert and S. Grimme., J. Chem. Theory Comput., 2019,
     15, 1652-1671. DOI: 10.1021/acs.jctc.8b01176
   for GFN1-xTB:
   * S. Grimme, C. Bannwarth, P. Shushkov, J. Chem. Theory Comput., 2017,
     13, 1989-2009. DOI: 10.1021/acs.jctc.7b00118
   for GFN0-xTB:
   * P. Pracht, E. Caldeweyher, S. Ehlert, S. Grimme, ChemRxiv, 2019, preprint.
     DOI: 10.26434/chemrxiv.8326202.v1
   for GFN-FF:
   * S. Spicher and S. Grimme, Angew. Chem. Int. Ed., 2020, 59, 15665-15673.
     DOI: 10.1002/anie.202004239
   
   for ALPB and GBSA implicit solvation:
   * S. Ehlert, M. Stahn, S. Spicher, S. Grimme, J. Chem. Theory Comput.,
     2021, 17, 4250-4261. DOI: 10.1021/acs.jctc.1c00471
   
   for DFT-D4:
   * E. Caldeweyher, C. Bannwarth and S. Grimme, J. Chem. Phys., 2017,
     147, 034112. DOI: 10.1063/1.4993215
   * E. Caldeweyher, S. Ehlert, A. Hansen, H. Neugebauer, S. Spicher,
     C. Bannwarth and S. Grimme, J. Chem. Phys., 2019, 150, 154122.
     DOI: 10.1063/1.5090222
   * E. Caldeweyher, J.-M. Mewes, S. Ehlert and S. Grimme, Phys. Chem. Chem. Phys.
     2020, 22, 8499-8512. DOI: 10.1039/D0CP00502A
   
   for sTDA-xTB:
   * S. Grimme and C. Bannwarth, J. Chem. Phys., 2016, 145, 054103.
     DOI: 10.1063/1.4959605
   
   in the mass-spec context:
   * V. Asgeirsson, C. Bauer and S. Grimme, Chem. Sci., 2017, 8, 4879.
     DOI: 10.1039/c7sc00601b
   * J. Koopman and S. Grimme, ACS Omega 2019, 4, 12, 15120-15133.
     DOI: 10.1021/acsomega.9b02011
   
   for metadynamics refer to:
   * S. Grimme, J. Chem. Theory Comput., 2019, 155, 2847-2862
     DOI: 10.1021/acs.jctc.9b00143
   
   for SPH calculations refer to:
   * S. Spicher and S. Grimme, J. Chem. Theory Comput., 2021, 17, 1701-1714
     DOI: 10.1021/acs.jctc.0c01306
   
   with help from (in alphabetical order)
   P. Atkinson, C. Bannwarth, F. Bohle, G. Brandenburg, E. Caldeweyher
   M. Checinski, S. Dohm, S. Ehlert, S. Ehrlich, I. Gerasimov, C. Hölzer
   A. Katbashev, J. Koopman, C. Lavigne, S. Lehtola, F. März, M. Müller,
   F. Musil, H. Neugebauer, J. Pisarek, C. Plett, P. Pracht, F. Pultar,
   J. Seibert, P. Shushkov, S. Spicher, M. Stahn, M. Steiner, T. Strunk,
   J. Stückrath, T. Rose, and J. Unsleber
   
 * started run on 2022/11/17 at 06:48:47.985     

           -------------------------------------------------
          |                Calculation Setup                |
           -------------------------------------------------

          program call               : xtb solvent_cluster.coord --gfn2 --input xcontrol --opt 1
          hostname                   : cn0363
          coordinate file            : solvent_cluster.coord
          omp threads                :                     2

   ID    Z sym.   atoms
    1    8 o      1, 4, 7, 10, 13, 16, 19, 22, 25, 28, 31, 34, 37, 40, 43,
                  46, 49, 52, 55, 58, 61, 64, 67, 70, 73, 76, 79, 82, 85, 88,
                  91, 94, 97, 100, 103, 106, 109, 112, 115, 118, 121, 124,
                  127, 130, 133, 136, 139, 142, 145, 148, 151, 154, 157, 160,
                  163, 166, 169, 172, 175, 178, 181, 184, 187, 190, 193, 196,
                  199, 202, 205, 208, 211, 214, 217, 220, 223, 226, 229, 232,
                  235, 238, 241, 244, 247, 250, 253, 256, 259, 262, 265, 268,
                  271, 274, 277, 280, 283, 286, 289, 292, 295, 298, 301, 304,
                  307, 310, 313, 316, 319, 322, 325, 328, 331, 334, 337, 340,
                  343, 346, 349, 352, 355, 358, 361, 364, 367, 370, 373, 376,
                  379, 382, 385, 388, 391, 394, 397, 400, 403, 406, 409, 412,
                  415, 418, 421, 424, 427, 430, 433, 436, 439, 442, 445, 448,
                  451, 454, 457, 460, 463, 466, 469, 472, 475, 478, 481, 484,
                  487, 490, 493, 496, 499, 502, 505, 508, 511, 514, 517, 520,
                  523, 526, 529
    2    1 h      2, 3, 5, 6, 8, 9, 11, 12, 14, 15, 17, 18, 20, 21, 23, 24,
                  26, 27, 29, 30, 32, 33, 35, 36, 38, 39, 41, 42, 44, 45, 47,
                  48, 50, 51, 53, 54, 56, 57, 59, 60, 62, 63, 65, 66, 68, 69,
                  71, 72, 74, 75, 77, 78, 80, 81, 83, 84, 86, 87, 89, 90, 92,
                  93, 95, 96, 98, 99, 101, 102, 104, 105, 107, 108, 110, 111,
                  113, 114, 116, 117, 119, 120, 122, 123, 125, 126, 128, 129,
                  131, 132, 134, 135, 137, 138, 140, 141, 143, 144, 146, 147,
                  149, 150, 152, 153, 155, 156, 158, 159, 161, 162, 164, 165,
                  167, 168, 170, 171, 173, 174, 176, 177, 179, 180, 182, 183,
                  185, 186, 188, 189, 191, 192, 194, 195, 197, 198, 200, 201,
                  203, 204, 206, 207, 209, 210, 212, 213, 215, 216, 218, 219,
                  221, 222, 224, 225, 227, 228, 230, 231, 233, 234, 236, 237,
                  239, 240, 242, 243, 245, 246, 248, 249, 251, 252, 254, 255,
                  257, 258, 260, 261, 263, 264, 266, 267, 269, 270, 272, 273,
                  275, 276, 278, 279, 281, 282, 284, 285, 287, 288, 290, 291,
                  293, 294, 296, 297, 299, 300, 302, 303, 305, 306, 308, 309,
                  311, 312, 314, 315, 317, 318, 320, 321, 323, 324, 326, 327,
                  329, 330, 332, 333, 335, 336, 338, 339, 341, 342, 344, 345,
                  347, 348, 350, 351, 353, 354, 356, 357, 359, 360, 362, 363,
                  365, 366, 368, 369, 371, 372, 374, 375, 377, 378, 380, 381,
                  383, 384, 386, 387, 389, 390, 392, 393, 395, 396, 398, 399,
                  401, 402, 404, 405, 407, 408, 410, 411, 413, 414, 416, 417,
                  419, 420, 422, 423, 425, 426, 428, 429, 431, 432, 434, 435,
                  437, 438, 440, 441, 443, 444, 446, 447, 449, 450, 452, 453,
                  455, 456, 458, 459, 461, 462, 464, 465, 467, 468, 470, 471,
                  473, 474, 476, 477, 479, 480, 482, 483, 485, 486, 488, 489,
                  491, 492, 494, 495, 497, 498, 500, 501, 503, 504, 506, 507,
                  509, 510, 512, 513, 515, 516, 518, 519, 521, 522, 524, 525,
                  527, 528, 530, 531

molecular fragmentation (1/2 indicates fragments):
111222222222222222222222222222222222222222222222222222222222222222222222
222222222222222222222222222222222222222222222222222222222222222222222222
222222222222222222222222222222222222222222222222222222222222222222222222
222222222222222222222222222222222222222222222222222222222222222222222222
222222222222222222222222222222222222222222222222222222222222222222222222
222222222222222222222222222222222222222222222222222222222222222222222222
222222222222222222222222222222222222222222222222222222222222222222222222
222222222222222222222222222
# atoms in fragment 1/2:     3   528
 fragment masses (1/2) :       18.02     3170.69
CMA distance (Bohr)    :   5.450
constraining FC (au)   :  0.0500

           -------------------------------------------------
          |                 G F N 2 - x T B                 |
           -------------------------------------------------

        Reference                      10.1021/acs.jctc.8b01176
      * Hamiltonian:
        H0-scaling (s, p, d)           1.850000    2.230000    2.230000
        zeta-weighting                 0.500000
      * Dispersion:
        s8                             2.700000
        a1                             0.520000
        a2                             5.000000
        s9                             5.000000
      * Repulsion:
        kExp                           1.500000    1.000000
        rExp                           1.000000
      * Coulomb:
        alpha                          2.000000
        third order                    shell-resolved
        anisotropic                    true
        a3                             3.000000
        a5                             4.000000
        cn-shift                       1.200000
        cn-exp                         4.000000
        max-rad                        5.000000


          ...................................................
          :                      SETUP                      :
          :.................................................:
          :  # basis functions                1062          :
          :  # atomic orbitals                1062          :
          :  # shells                          708          :
          :  # electrons                      1416          :
          :  max. iterations                   250          :
          :  Hamiltonian                  GFN2-xTB          :
          :  restarted?                      false          :
          :  GBSA solvation                  false          :
          :  PC potential                    false          :
          :  electronic temp.          300.0000000     K    :
          :  accuracy                    1.0000000          :
          :  -> integral cutoff          0.2500000E+02      :
          :  -> integral neglect         0.1000000E-07      :
          :  -> SCF convergence          0.1000000E-05 Eh   :
          :  -> wf. convergence          0.1000000E-03 e    :
          :  Broyden damping             0.4000000          :
          ...................................................

 iter      E             dE          RMSdq      gap      omega  full diag
   1   -906.5771939 -0.906577E+03  0.406E+00    8.71       0.0  T
   2   -906.6340944 -0.569004E-01  0.241E+00    7.57       1.0  T
   3   -906.6567683 -0.226739E-01  0.214E-01    6.03       1.0  T
   4   -906.6607071 -0.393886E-02  0.464E-02    6.47       1.0  T
   5   -906.6607769 -0.697845E-04  0.314E-02    6.40       1.0  T
   6   -906.6608068 -0.298959E-04  0.430E-03    6.44       1.0  T
   7   -906.6608086 -0.176118E-05  0.746E-04    6.43       5.8  T
   8   -906.6608086 -0.204044E-07  0.380E-04    6.43      11.4  T
   9   -906.6608086 -0.981845E-08  0.677E-05    6.43      64.1  T

   *** convergence criteria satisfied after 9 iterations ***

         #    Occupation            Energy/Eh            Energy/eV
      -------------------------------------------------------------
         1        2.0000           -0.6997203             -19.0404
       ...           ...                  ...                  ...
       702        2.0000           -0.3596592              -9.7868
       703        2.0000           -0.3590156              -9.7693
       704        2.0000           -0.3576384              -9.7318
       705        2.0000           -0.3460230              -9.4158
       706        2.0000           -0.3445532              -9.3758
       707        2.0000           -0.3341667              -9.0931
       708        2.0000           -0.3153885              -8.5822 (HOMO)
       709                         -0.0789768              -2.1491 (LUMO)
       710                         -0.0741629              -2.0181
       711                         -0.0521928              -1.4202
       712                         -0.0488295              -1.3287
       713                         -0.0447500              -1.2177
       ...                                ...                  ...
      1062                          0.4809165              13.0864
      -------------------------------------------------------------
                  HL-Gap            0.2364117 Eh            6.4331 eV
             Fermi-level           -0.1971826 Eh           -5.3656 eV

 SCC (total)                   0 d,  0 h,  0 min,  8.323 sec
 SCC setup                      ...        0 min,  0.030 sec (  0.362%)
 Dispersion                     ...        0 min,  0.067 sec (  0.802%)
 classical contributions        ...        0 min,  0.019 sec (  0.227%)
 integral evaluation            ...        0 min,  0.457 sec (  5.491%)
 iterations                     ...        0 min,  2.950 sec ( 35.441%)
 molecular gradient             ...        0 min,  4.772 sec ( 57.338%)
 printout                       ...        0 min,  0.028 sec (  0.338%)

         :::::::::::::::::::::::::::::::::::::::::::::::::::::
         ::                     SUMMARY                     ::
         :::::::::::::::::::::::::::::::::::::::::::::::::::::
         :: total energy            -901.194359676144 Eh    ::
         :: gradient norm              0.108292283504 Eh/a0 ::
         :: HOMO-LUMO gap              6.433090408559 eV    ::
         ::.................................................::
         :: SCC energy              -906.660808615415 Eh    ::
         :: -> isotropic ES            5.095240958073 Eh    ::
         :: -> anisotropic ES         -1.112850267912 Eh    ::
         :: -> anisotropic XC         -0.092806034686 Eh    ::
         :: -> dispersion             -0.531795768857 Eh    ::
         :: repulsion energy           5.372605136709 Eh    ::
         :: add. restraining           0.000000000000 Eh    ::
         :: total charge               0.000000000000 e     ::
         :::::::::::::::::::::::::::::::::::::::::::::::::::::

      ----------------------------------------------------------- 
     |                       L-ANC optimizer                     |
      ----------------------------------------------------------- 
          low memory version by Sebastian Ehlert

          ...................................................
          :                      SETUP                      :
          :.................................................:
          :   energy convergence        0.1000000E-05 Eh    :
          :   grad. convergence         0.8000000E-03 Eh/a0 :
          :   optimization log               true           :
          :   writing optlog all                1     steps :
          :   Hessian reset                    20     steps :
          :   maximium step len.        1.0000000     a0    :
          :   LBFGS images                     20           :
          ...................................................
 * calculating model hessian...
Using Lindh-Hessian (1995)
 Shifting diagonal of input Hessian by   1.000010574872533E-002
 Lowest  eigenvalues of input Hessian
    0.010000   -0.000000   -0.000000   -0.000000   -0.000000   -0.000000
   -0.000000   -0.000000   -0.000000   -0.000000   -0.000000   -0.000000
   -0.000000   -0.000000   -0.000000   -0.000000   -0.000000   -0.000000
 Highest eigenvalues
    0.321139    0.339425    1.231070    1.252401    1.428543    1.458031
 

........................................................................
.............................. CYCLE    1 ..............................
........................................................................
   1   -906.6599983 -0.906660E+03  0.322E-02    6.52       0.0  T
   2   -906.6600082 -0.992287E-05  0.191E-02    6.49       1.0  T
   3   -906.6600103 -0.208778E-05  0.199E-03    6.47       2.2  T
   4   -906.6600106 -0.326434E-06  0.450E-04    6.48       9.6  T
   5   -906.6600106 -0.502018E-08  0.906E-05    6.48      47.9  T
     SCC iter.                  ...        0 min,  1.419 sec
     gradient                   ...        0 min,  4.812 sec
 * total energy  :  -901.1987383 Eh     change       -0.4378576E-02 Eh
   gradient norm :     0.0150155 Eh/a0  converged?    E=F G=F D=F
   step length   :     0.4286840 a0

........................................................................
.............................. CYCLE    2 ..............................
........................................................................
   1   -906.6539601 -0.906654E+03  0.313E-02    6.53       0.0  T
   2   -906.6539648 -0.472868E-05  0.189E-02    6.51       1.0  T
   3   -906.6539667 -0.185602E-05  0.143E-03    6.50       3.0  T
   4   -906.6539668 -0.140136E-06  0.469E-04    6.50       9.2  T
   5   -906.6539668 -0.611783E-08  0.618E-05    6.50      70.2  T
     SCC iter.                  ...        0 min,  1.409 sec
     gradient                   ...        0 min,  4.829 sec
 * total energy  :  -901.1996414 Eh     change       -0.9031813E-03 Eh
   gradient norm :     0.0392392 Eh/a0  converged?    E=F G=F D=F
   step length   :     0.4068994 a0

........................................................................
.............................. CYCLE    3 ..............................
........................................................................
   1   -906.6591994 -0.906659E+03  0.126E-02    6.49       0.0  T
   2   -906.6592010 -0.156885E-05  0.763E-03    6.49       1.0  T
   3   -906.6592018 -0.749669E-06  0.833E-04    6.50       5.2  T
   4   -906.6592018 -0.274655E-07  0.264E-04    6.50      16.4  T
     SCC iter.                  ...        0 min,  1.124 sec
     gradient                   ...        0 min,  4.829 sec
 * total energy  :  -901.2007289 Eh     change       -0.1087461E-02 Eh
   gradient norm :     0.0200387 Eh/a0  converged?    E=F G=F D=F
   step length   :     0.1295823 a0

........................................................................
.............................. CYCLE    4 ..............................
........................................................................
   1   -906.6641565 -0.906664E+03  0.165E-02    6.52       0.0  T
   2   -906.6641584 -0.187941E-05  0.100E-02    6.52       1.0  T
   3   -906.6641594 -0.104295E-05  0.893E-04    6.52       4.9  T
   4   -906.6641594 -0.293736E-07  0.278E-04    6.52      15.6  T
   5   -906.6641594 -0.256500E-08  0.354E-05    6.52     122.6  T
     SCC iter.                  ...        0 min,  1.389 sec
     gradient                   ...        0 min,  4.857 sec
 * total energy  :  -901.2015934 Eh     change       -0.8644583E-03 Eh
   gradient norm :     0.0134468 Eh/a0  converged?    E=F G=F D=F
   step length   :     0.2273682 a0

........................................................................
.............................. CYCLE    5 ..............................
........................................................................
   1   -906.6607482 -0.906661E+03  0.377E-02    6.55       0.0  T
   2   -906.6607573 -0.907860E-05  0.230E-02    6.56       1.0  T
   3   -906.6607616 -0.438798E-05  0.186E-03    6.57       2.3  T
   4   -906.6607618 -0.189936E-06  0.649E-04    6.57       6.7  T
   5   -906.6607618 -0.112722E-07  0.862E-05    6.57      50.4  T
     SCC iter.                  ...        0 min,  1.376 sec
     gradient                   ...        0 min,  4.878 sec
 * total energy  :  -901.2017893 Eh     change       -0.1959841E-03 Eh
   gradient norm :     0.0385282 Eh/a0  converged?    E=F G=F D=F
   step length   :     0.5006116 a0

........................................................................
.............................. CYCLE    6 ..............................
........................................................................
   1   -906.6659463 -0.906666E+03  0.231E-02    6.62       0.0  T
   2   -906.6659529 -0.659731E-05  0.141E-02    6.63       1.0  T
   3   -906.6659564 -0.349461E-05  0.176E-03    6.63       2.5  T
   4   -906.6659565 -0.120247E-06  0.558E-04    6.64       7.8  T
   5   -906.6659566 -0.960620E-08  0.732E-05    6.64      59.3  T
     SCC iter.                  ...        0 min,  1.365 sec
     gradient                   ...        0 min,  4.890 sec
 * total energy  :  -901.2025209 Eh     change       -0.7315191E-03 Eh
   gradient norm :     0.0175590 Eh/a0  converged?    E=F G=F D=F
   step length   :     0.1979497 a0

........................................................................
.............................. CYCLE    7 ..............................
........................................................................
   1   -906.6652953 -0.906665E+03  0.800E-03    6.61       0.0  T
   2   -906.6652959 -0.672262E-06  0.478E-03    6.60       1.0  T
   3   -906.6652962 -0.241801E-06  0.546E-04    6.59       7.9  T
   4   -906.6652962 -0.159673E-07  0.177E-04    6.59      24.5  T
     SCC iter.                  ...        0 min,  1.085 sec
     gradient                   ...        0 min,  4.888 sec
 * total energy  :  -901.2027152 Eh     change       -0.1943138E-03 Eh
   gradient norm :     0.0071976 Eh/a0  converged?    E=F G=F D=F
   step length   :     0.0946620 a0

........................................................................
.............................. CYCLE    8 ..............................
........................................................................
   1   -906.6652689 -0.906665E+03  0.735E-03    6.61       0.0  T
   2   -906.6652694 -0.492734E-06  0.446E-03    6.61       1.0  T
   3   -906.6652695 -0.145541E-06  0.418E-04    6.61      10.4  T
   4   -906.6652695 -0.167856E-07  0.127E-04    6.61      34.3  T
     SCC iter.                  ...        0 min,  1.088 sec
     gradient                   ...        0 min,  4.894 sec
 * total energy  :  -901.2028167 Eh     change       -0.1014831E-03 Eh
   gradient norm :     0.0046025 Eh/a0  converged?    E=F G=F D=F
   step length   :     0.0945591 a0

........................................................................
.............................. CYCLE    9 ..............................
........................................................................
   1   -906.6650626 -0.906665E+03  0.503E-03    6.62       0.0  T
   2   -906.6650628 -0.163957E-06  0.305E-03    6.62       1.4  T
   3   -906.6650628 -0.585845E-07  0.247E-04    6.62      17.5  T
   4   -906.6650628 -0.561965E-08  0.837E-05    6.62      51.8  T
     SCC iter.                  ...        0 min,  1.126 sec
     gradient                   ...        0 min,  4.929 sec
 * total energy  :  -901.2028471 Eh     change       -0.3043407E-04 Eh
   gradient norm :     0.0044500 Eh/a0  converged?    E=F G=F D=F
   step length   :     0.0761972 a0

........................................................................
.............................. CYCLE   10 ..............................
........................................................................
   1   -906.6672004 -0.906667E+03  0.450E-03    6.64       0.0  T
   2   -906.6672006 -0.176635E-06  0.270E-03    6.64       1.6  T
   3   -906.6672007 -0.630197E-07  0.277E-04    6.64      15.7  T
   4   -906.6672007 -0.541138E-08  0.938E-05    6.64      46.3  T
     SCC iter.                  ...        0 min,  1.077 sec
     gradient                   ...        0 min,  4.939 sec
 * total energy  :  -901.2028585 Eh     change       -0.1145439E-04 Eh
   gradient norm :     0.0045280 Eh/a0  converged?    E=F G=F D=F
   step length   :     0.0714532 a0

........................................................................
.............................. CYCLE   11 ..............................
........................................................................
   1   -906.6662138 -0.906666E+03  0.203E-03    6.64       0.0  T
   2   -906.6662138 -0.585354E-07  0.121E-03    6.64       3.6  T
   3   -906.6662139 -0.185863E-07  0.160E-04    6.63      27.2  T
   4   -906.6662139 -0.180955E-08  0.490E-05    6.63      88.5  T
     SCC iter.                  ...        0 min,  1.072 sec
     gradient                   ...        0 min,  4.932 sec
 * total energy  :  -901.2028772 Eh     change       -0.1860952E-04 Eh
   gradient norm :     0.0011371 Eh/a0  converged?    E=F G=F D=F
   step length   :     0.0293701 a0

........................................................................
.............................. CYCLE   12 ..............................
........................................................................
   1   -906.6659973 -0.906666E+03  0.144E-03    6.63       0.0  T
   2   -906.6659974 -0.110403E-06  0.854E-04    6.63       5.1  T
   3   -906.6659974 -0.163379E-07  0.222E-04    6.63      19.5  T
     SCC iter.                  ...        0 min,  0.744 sec
     gradient                   ...        0 min,  4.815 sec
 * total energy  :  -901.2028834 Eh     change       -0.6239307E-05 Eh
   gradient norm :     0.0018743 Eh/a0  converged?    E=F G=F D=F
   step length   :     0.0321297 a0

........................................................................
.............................. CYCLE   13 ..............................
........................................................................
   1   -906.6661196 -0.906666E+03  0.144E-03    6.64       0.0  T
   2   -906.6661197 -0.804870E-07  0.851E-04    6.64       5.1  T
   3   -906.6661197 -0.130013E-07  0.187E-04    6.64      23.2  T
     SCC iter.                  ...        0 min,  0.738 sec
     gradient                   ...        0 min,  4.814 sec
 * total energy  :  -901.2028890 Eh     change       -0.5569890E-05 Eh
   gradient norm :     0.0012861 Eh/a0  converged?    E=F G=F D=F
   step length   :     0.0512211 a0

........................................................................
.............................. CYCLE   14 ..............................
........................................................................
   1   -906.6662819 -0.906666E+03  0.133E-03    6.64       0.0  T
   2   -906.6662819 -0.267614E-07  0.796E-04    6.64       5.4  T
   3   -906.6662819 -0.519833E-08  0.106E-04    6.64      40.8  T
     SCC iter.                  ...        0 min,  0.740 sec
     gradient                   ...        0 min,  4.832 sec
 * total energy  :  -901.2028936 Eh     change       -0.4613739E-05 Eh
   gradient norm :     0.0010503 Eh/a0  converged?    E=F G=F D=F
   step length   :     0.0316476 a0

........................................................................
.............................. CYCLE   15 ..............................
........................................................................
   1   -906.6662617 -0.906666E+03  0.158E-03    6.65       0.0  T
   2   -906.6662618 -0.540524E-07  0.943E-04    6.65       4.6  T
   3   -906.6662618 -0.975615E-08  0.151E-04    6.65      28.8  T
     SCC iter.                  ...        0 min,  0.740 sec
     gradient                   ...        0 min,  4.830 sec
 * total energy  :  -901.2028989 Eh     change       -0.5336721E-05 Eh
   gradient norm :     0.0009182 Eh/a0  converged?    E=F G=F D=F
   step length   :     0.0366000 a0

........................................................................
.............................. CYCLE   16 ..............................
........................................................................
   1   -906.6661441 -0.906666E+03  0.260E-03    6.66       0.0  T
   2   -906.6661442 -0.766149E-07  0.158E-03    6.66       2.7  T
   3   -906.6661442 -0.177916E-07  0.167E-04    6.66      26.0  T
   4   -906.6661442 -0.268551E-08  0.348E-05    6.66     124.8  T
     SCC iter.                  ...        0 min,  1.024 sec
     gradient                   ...        0 min,  4.805 sec
 * total energy  :  -901.2029044 Eh     change       -0.5493970E-05 Eh
   gradient norm :     0.0016270 Eh/a0  converged?    E=F G=F D=F
   step length   :     0.0534510 a0

........................................................................
.............................. CYCLE   17 ..............................
........................................................................
   1   -906.6662002 -0.906666E+03  0.234E-03    6.67       0.0  T
   2   -906.6662002 -0.322686E-07  0.143E-03    6.67       3.0  T
   3   -906.6662002 -0.123564E-07  0.102E-04    6.67      42.3  T
   4   -906.6662002 -0.853788E-09  0.318E-05    6.67     136.6  T
     SCC iter.                  ...        0 min,  0.991 sec
     gradient                   ...        0 min,  4.792 sec
 * total energy  :  -901.2029088 Eh     change       -0.4412430E-05 Eh
   gradient norm :     0.0006468 Eh/a0  converged?    E=F G=T D=F
   step length   :     0.0453818 a0

........................................................................
.............................. CYCLE   18 ..............................
........................................................................
   1   -906.6660374 -0.906666E+03  0.276E-03    6.67       0.0  T
   2   -906.6660374 -0.290411E-07  0.168E-03    6.67       2.6  T
   3   -906.6660374 -0.142051E-07  0.957E-05    6.67      45.3  T
   4   -906.6660374 -0.406885E-09  0.288E-05    6.67     150.6  T
     SCC iter.                  ...        0 min,  0.979 sec
     gradient                   ...        0 min,  4.780 sec
 * total energy  :  -901.2029118 Eh     change       -0.2977528E-05 Eh
   gradient norm :     0.0014186 Eh/a0  converged?    E=F G=F D=F
   step length   :     0.0481786 a0

........................................................................
.............................. CYCLE   19 ..............................
........................................................................
   1   -906.6662142 -0.906666E+03  0.882E-04    6.67       0.0  T
   2   -906.6662142 -0.198200E-07  0.528E-04    6.67       8.2  T
   3   -906.6662142 -0.397370E-08  0.951E-05    6.67      45.6  T
     SCC iter.                  ...        0 min,  0.739 sec
     gradient                   ...        0 min,  4.773 sec
 * total energy  :  -901.2029138 Eh     change       -0.2050876E-05 Eh
   gradient norm :     0.0010386 Eh/a0  converged?    E=F G=F D=F
   step length   :     0.0131475 a0

........................................................................
.............................. CYCLE   20 ..............................
........................................................................
   1   -906.6662323 -0.906666E+03  0.971E-04    6.67       0.0  T
   2   -906.6662323 -0.691750E-08  0.596E-04    6.67       7.3  T
   3   -906.6662323 -0.283353E-08  0.473E-05    6.67      91.8  T
     SCC iter.                  ...        0 min,  0.739 sec
     gradient                   ...        0 min,  4.762 sec
 * total energy  :  -901.2029151 Eh     change       -0.1250271E-05 Eh
   gradient norm :     0.0005779 Eh/a0  converged?    E=F G=T D=F
   step length   :     0.0132018 a0
 * RMSD in coord.:     0.0753346 a0     energy gain  -0.8555420E-02 Eh
 * calculating model hessian...
Using Lindh-Hessian (1995)
 Shifting diagonal of input Hessian by   1.000005748743348E-002
 Lowest  eigenvalues of input Hessian
    0.010000   -0.000000   -0.000000   -0.000000   -0.000000   -0.000000
   -0.000000   -0.000000   -0.000000   -0.000000   -0.000000   -0.000000
   -0.000000   -0.000000   -0.000000   -0.000000   -0.000000   -0.000000
 Highest eigenvalues
    0.294113    0.331194    1.219717    1.244623    1.368781    1.456097
 

........................................................................
.............................. CYCLE   21 ..............................
........................................................................
   1   -906.6663807 -0.906666E+03  0.633E-03    6.67       0.0  T
   2   -906.6663810 -0.292372E-06  0.390E-03    6.67       1.1  T
   3   -906.6663811 -0.137635E-06  0.302E-04    6.68      14.4  T
   4   -906.6663812 -0.478667E-08  0.871E-05    6.68      49.8  T
     SCC iter.                  ...        0 min,  0.945 sec
     gradient                   ...        0 min,  4.771 sec
 * total energy  :  -901.2029883 Eh     change       -0.7324405E-04 Eh
   gradient norm :     0.0008095 Eh/a0  converged?    E=F G=F D=F
   step length   :     0.0946553 a0

........................................................................
.............................. CYCLE   22 ..............................
........................................................................
   1   -906.6663764 -0.906666E+03  0.389E-03    6.68       0.0  T
   2   -906.6663767 -0.290045E-06  0.238E-03    6.68       1.8  T
   3   -906.6663768 -0.789876E-07  0.325E-04    6.68      13.4  T
   4   -906.6663768 -0.837645E-08  0.730E-05    6.68      59.4  T
     SCC iter.                  ...        0 min,  0.961 sec
     gradient                   ...        0 min,  4.738 sec
 * total energy  :  -901.2030208 Eh     change       -0.3244883E-04 Eh
   gradient norm :     0.0011321 Eh/a0  converged?    E=F G=F D=F
   step length   :     0.0956001 a0

........................................................................
.............................. CYCLE   23 ..............................
........................................................................
   1   -906.6663342 -0.906666E+03  0.189E-03    6.68       0.0  T
   2   -906.6663342 -0.482468E-07  0.115E-03    6.68       3.8  T
   3   -906.6663342 -0.143367E-07  0.127E-04    6.68      34.2  T
   4   -906.6663342 -0.141699E-08  0.328E-05    6.68     132.3  T
     SCC iter.                  ...        0 min,  0.954 sec
     gradient                   ...        0 min,  4.731 sec
 * total energy  :  -901.2030285 Eh     change       -0.7726186E-05 Eh
   gradient norm :     0.0006261 Eh/a0  converged?    E=F G=T D=F
   step length   :     0.0443863 a0

........................................................................
.............................. CYCLE   24 ..............................
........................................................................
   1   -906.6661407 -0.906666E+03  0.295E-03    6.68       0.0  T
   2   -906.6661408 -0.885199E-07  0.182E-03    6.69       2.4  T
   3   -906.6661408 -0.353748E-07  0.171E-04    6.69      25.4  T
   4   -906.6661408 -0.225964E-08  0.452E-05    6.69      96.1  T
     SCC iter.                  ...        0 min,  0.947 sec
     gradient                   ...        0 min,  4.740 sec
 * total energy  :  -901.2030336 Eh     change       -0.5126389E-05 Eh
   gradient norm :     0.0010927 Eh/a0  converged?    E=F G=F D=F
   step length   :     0.0394705 a0

........................................................................
.............................. CYCLE   25 ..............................
........................................................................
   1   -906.6661212 -0.906666E+03  0.281E-03    6.69       0.0  T
   2   -906.6661212 -0.626549E-07  0.172E-03    6.70       2.5  T
   3   -906.6661212 -0.188695E-07  0.144E-04    6.70      30.1  T
   4   -906.6661212 -0.203056E-08  0.382E-05    6.70     113.5  T
     SCC iter.                  ...        0 min,  0.954 sec
     gradient                   ...        0 min,  4.736 sec
 * total energy  :  -901.2030404 Eh     change       -0.6781530E-05 Eh
   gradient norm :     0.0006935 Eh/a0  converged?    E=F G=T D=F
   step length   :     0.0533771 a0

........................................................................
.............................. CYCLE   26 ..............................
........................................................................
   1   -906.6655752 -0.906666E+03  0.851E-03    6.70       0.0  T
   2   -906.6655758 -0.566538E-06  0.521E-03    6.71       1.0  T
   3   -906.6655760 -0.184455E-06  0.449E-04    6.72       9.7  T
   4   -906.6655760 -0.175689E-07  0.115E-04    6.71      37.6  T
     SCC iter.                  ...        0 min,  0.945 sec
     gradient                   ...        0 min,  4.743 sec
 * total energy  :  -901.2030510 Eh     change       -0.1056988E-04 Eh
   gradient norm :     0.0035606 Eh/a0  converged?    E=F G=F D=F
   step length   :     0.1520773 a0

........................................................................
.............................. CYCLE   27 ..............................
........................................................................
   1   -906.6657695 -0.906666E+03  0.251E-03    6.72       0.0  T
   2   -906.6657695 -0.257792E-07  0.152E-03    6.72       2.9  T
   3   -906.6657696 -0.738464E-08  0.953E-05    6.72      45.5  T
   4   -906.6657696 -0.855152E-09  0.260E-05    6.72     166.6  T
     SCC iter.                  ...        0 min,  0.940 sec
     gradient                   ...        0 min,  4.738 sec
 * total energy  :  -901.2030636 Eh     change       -0.1265447E-04 Eh
   gradient norm :     0.0023169 Eh/a0  converged?    E=F G=F D=F
   step length   :     0.0649216 a0

........................................................................
.............................. CYCLE   28 ..............................
........................................................................
   1   -906.6655189 -0.906666E+03  0.989E-03    6.73       0.0  T
   2   -906.6655193 -0.366088E-06  0.602E-03    6.74       1.0  T
   3   -906.6655194 -0.133243E-06  0.357E-04    6.74      12.2  T
   4   -906.6655194 -0.979821E-08  0.101E-04    6.74      43.2  T
     SCC iter.                  ...        0 min,  0.944 sec
     gradient                   ...        0 min,  4.734 sec
 * total energy  :  -901.2030884 Eh     change       -0.2477743E-04 Eh
   gradient norm :     0.0039517 Eh/a0  converged?    E=F G=F D=F
   step length   :     0.2113272 a0

........................................................................
.............................. CYCLE   29 ..............................
........................................................................
   1   -906.6653704 -0.906665E+03  0.124E-02    6.75       0.0  T
   2   -906.6653708 -0.383733E-06  0.755E-03    6.75       1.0  T
   3   -906.6653709 -0.158880E-06  0.362E-04    6.75      12.0  T
   4   -906.6653709 -0.856960E-08  0.115E-04    6.75      37.7  T
     SCC iter.                  ...        0 min,  0.934 sec
     gradient                   ...        0 min,  4.734 sec
 * total energy  :  -901.2031359 Eh     change       -0.4748244E-04 Eh
   gradient norm :     0.0049694 Eh/a0  converged?    E=F G=F D=F
   step length   :     0.2720413 a0

........................................................................
.............................. CYCLE   30 ..............................
........................................................................
   1   -906.6661516 -0.906666E+03  0.119E-02    6.76       0.0  T
   2   -906.6661523 -0.679247E-06  0.720E-03    6.75       1.0  T
   3   -906.6661524 -0.153346E-06  0.479E-04    6.75       9.1  T
   4   -906.6661524 -0.265976E-07  0.120E-04    6.75      36.2  T
     SCC iter.                  ...        0 min,  0.933 sec
     gradient                   ...        0 min,  4.736 sec
 * total energy  :  -901.2032113 Eh     change       -0.7540336E-04 Eh
   gradient norm :     0.0041745 Eh/a0  converged?    E=F G=F D=F
   step length   :     0.2566069 a0

........................................................................
.............................. CYCLE   31 ..............................
........................................................................
   1   -906.6530249 -0.906653E+03  0.533E-02    6.65       0.0  T
   2   -906.6530512 -0.262304E-04  0.328E-02    6.60       1.0  T
   3   -906.6530593 -0.817390E-05  0.310E-03    6.53       1.4  T
   4   -906.6530603 -0.927891E-06  0.107E-03    6.54       4.0  T
   5   -906.6530603 -0.267962E-07  0.144E-04    6.54      30.2  T
   6   -906.6530603 -0.113494E-08  0.549E-05    6.54      79.0  T
     SCC iter.                  ...        0 min,  1.517 sec
     gradient                   ...        0 min,  4.729 sec
 * total energy  :  -901.2006411 Eh     change        0.2570207E-02 Eh
   gradient norm :     0.0521974 Eh/a0  converged?    E=F G=F D=F
   step length   :     2.6582876 a0

........................................................................
.............................. CYCLE   32 ..............................
........................................................................
   1   -906.6666197 -0.906667E+03  0.517E-02    6.60       0.0  T
   2   -906.6666481 -0.283894E-04  0.312E-02    6.68       1.0  T
   3   -906.6666563 -0.823167E-05  0.328E-03    6.77       1.3  T
   4   -906.6666573 -0.949207E-06  0.105E-03    6.76       4.1  T
   5   -906.6666573 -0.268112E-07  0.142E-04    6.76      30.6  T
   6   -906.6666573 -0.111027E-08  0.506E-05    6.76      85.7  T
     SCC iter.                  ...        0 min,  1.529 sec
     gradient                   ...        0 min,  4.724 sec
 * total energy  :  -901.2032953 Eh     change       -0.2654239E-02 Eh
   gradient norm :     0.0032499 Eh/a0  converged?    E=F G=F D=F
   step length   :     0.9726081 a0

........................................................................
.............................. CYCLE   33 ..............................
........................................................................
   1   -906.6664218 -0.906666E+03  0.382E-03    6.75       0.0  T
   2   -906.6664219 -0.118235E-06  0.227E-03    6.75       1.9  T
   3   -906.6664219 -0.153212E-07  0.209E-04    6.75      20.7  T
   4   -906.6664219 -0.466116E-08  0.281E-05    6.75     154.6  T
     SCC iter.                  ...        0 min,  1.036 sec
     gradient                   ...        0 min,  4.723 sec
 * total energy  :  -901.2033596 Eh     change       -0.6427672E-04 Eh
   gradient norm :     0.0030995 Eh/a0  converged?    E=F G=F D=F
   step length   :     0.0668813 a0

........................................................................
.............................. CYCLE   34 ..............................
........................................................................
   1   -906.6621934 -0.906662E+03  0.296E-02    6.70       0.0  T
   2   -906.6621972 -0.383266E-05  0.180E-02    6.69       1.0  T
   3   -906.6621985 -0.130039E-05  0.119E-03    6.67       3.6  T
   4   -906.6621987 -0.127658E-06  0.407E-04    6.68      10.7  T
   5   -906.6621987 -0.440286E-08  0.643E-05    6.68      67.5  T
     SCC iter.                  ...        0 min,  1.300 sec
     gradient                   ...        0 min,  4.720 sec
 * total energy  :  -901.2034880 Eh     change       -0.1283584E-03 Eh
   gradient norm :     0.0191884 Eh/a0  converged?    E=F G=F D=F
   step length   :     0.5057629 a0

........................................................................
.............................. CYCLE   35 ..............................
........................................................................
   1   -906.6656969 -0.906666E+03  0.129E-02    6.70       0.0  T
   2   -906.6656980 -0.116251E-05  0.772E-03    6.72       1.0  T
   3   -906.6656983 -0.238058E-06  0.645E-04    6.74       6.7  T
   4   -906.6656983 -0.438650E-07  0.163E-04    6.73      26.7  T
     SCC iter.                  ...        0 min,  1.041 sec
     gradient                   ...        0 min,  4.721 sec
 * total energy  :  -901.2036585 Eh     change       -0.1705694E-03 Eh
   gradient norm :     0.0044036 Eh/a0  converged?    E=F G=F D=F
   step length   :     0.2105526 a0

........................................................................
.............................. CYCLE   36 ..............................
........................................................................
   1   -906.6651388 -0.906665E+03  0.111E-02    6.73       0.0  T
   2   -906.6651394 -0.569403E-06  0.675E-03    6.72       1.0  T
   3   -906.6651396 -0.239687E-06  0.469E-04    6.72       9.3  T
   4   -906.6651396 -0.163102E-07  0.168E-04    6.72      25.8  T
     SCC iter.                  ...        0 min,  1.049 sec
     gradient                   ...        0 min,  4.725 sec
 * total energy  :  -901.2038166 Eh     change       -0.1580457E-03 Eh
   gradient norm :     0.0083171 Eh/a0  converged?    E=F G=F D=F
   step length   :     0.1817118 a0

........................................................................
.............................. CYCLE   37 ..............................
........................................................................
   1   -906.6556054 -0.906656E+03  0.442E-02    6.64       0.0  T
   2   -906.6556266 -0.211891E-04  0.271E-02    6.59       1.0  T
   3   -906.6556317 -0.508558E-05  0.279E-03    6.53       1.6  T
   4   -906.6556325 -0.840527E-06  0.824E-04    6.54       5.3  T
   5   -906.6556326 -0.170453E-07  0.132E-04    6.54      33.0  T
     SCC iter.                  ...        0 min,  1.302 sec
     gradient                   ...        0 min,  4.719 sec
 * total energy  :  -901.2022542 Eh     change        0.1562383E-02 Eh
   gradient norm :     0.0413050 Eh/a0  converged?    E=F G=F D=F
   step length   :     0.8013676 a0

........................................................................
.............................. CYCLE   38 ..............................
........................................................................
   1   -906.6658434 -0.906666E+03  0.392E-02    6.61       0.0  T
   2   -906.6658631 -0.197468E-04  0.238E-02    6.67       1.0  T
   3   -906.6658682 -0.506083E-05  0.278E-03    6.74       1.6  T
   4   -906.6658689 -0.715482E-06  0.812E-04    6.73       5.3  T
   5   -906.6658689 -0.162504E-07  0.116E-04    6.72      37.5  T
     SCC iter.                  ...        0 min,  1.179 sec
     gradient                   ...        0 min,  4.712 sec
 * total energy  :  -901.2039609 Eh     change       -0.1706708E-02 Eh
   gradient norm :     0.0033871 Eh/a0  converged?    E=F G=F D=F
   step length   :     0.6739424 a0

........................................................................
.............................. CYCLE   39 ..............................
........................................................................
   1   -906.6660222 -0.906666E+03  0.491E-03    6.73       0.0  T
   2   -906.6660223 -0.874779E-07  0.299E-03    6.73       1.5  T
   3   -906.6660223 -0.289385E-07  0.177E-04    6.73      24.6  T
   4   -906.6660223 -0.300599E-08  0.582E-05    6.73      74.6  T
     SCC iter.                  ...        0 min,  0.937 sec
     gradient                   ...        0 min,  4.710 sec
 * total energy  :  -901.2040363 Eh     change       -0.7535173E-04 Eh
   gradient norm :     0.0031682 Eh/a0  converged?    E=F G=F D=F
   step length   :     0.0807679 a0

........................................................................
.............................. CYCLE   40 ..............................
........................................................................
   1   -906.6625258 -0.906663E+03  0.307E-02    6.71       0.0  T
   2   -906.6625301 -0.429981E-05  0.188E-02    6.69       1.0  T
   3   -906.6625316 -0.147337E-05  0.127E-03    6.68       3.4  T
   4   -906.6625318 -0.148373E-06  0.432E-04    6.68      10.0  T
   5   -906.6625318 -0.477519E-08  0.659E-05    6.68      65.8  T
     SCC iter.                  ...        0 min,  1.168 sec
     gradient                   ...        0 min,  4.708 sec
 * total energy  :  -901.2038875 Eh     change        0.1488092E-03 Eh
   gradient norm :     0.0166055 Eh/a0  converged?    E=F G=F D=F
   step length   :     0.5232799 a0

........................................................................
.............................. CYCLE   41 ..............................
........................................................................
   1   -906.6663397 -0.906666E+03  0.217E-02    6.70       0.0  T
   2   -906.6663427 -0.300936E-05  0.132E-02    6.71       1.0  T
   3   -906.6663437 -0.968512E-06  0.109E-03    6.74       4.0  T
   4   -906.6663438 -0.105749E-06  0.359E-04    6.73      12.1  T
   5   -906.6663438 -0.325554E-08  0.489E-05    6.73      88.7  T
     SCC iter.                  ...        0 min,  1.169 sec
     gradient                   ...        0 min,  4.706 sec
 * total energy  :  -901.2041572 Eh     change       -0.2697082E-03 Eh
   gradient norm :     0.0012956 Eh/a0  converged?    E=F G=F D=F
   step length   :     0.3656044 a0

........................................................................
.............................. CYCLE   42 ..............................
........................................................................
   1   -906.6666579 -0.906667E+03  0.358E-03    6.74       0.0  T
   2   -906.6666583 -0.358327E-06  0.209E-03    6.75       2.1  T
   3   -906.6666584 -0.641772E-07  0.397E-04    6.75      10.9  T
   4   -906.6666584 -0.902173E-08  0.689E-05    6.75      63.0  T
     SCC iter.                  ...        0 min,  0.939 sec
     gradient                   ...        0 min,  4.707 sec
 * total energy  :  -901.2041649 Eh     change       -0.7717695E-05 Eh
   gradient norm :     0.0038816 Eh/a0  converged?    E=F G=F D=F
   step length   :     0.0625264 a0
 * RMSD in coord.:     0.0856139 a0     energy gain  -0.1249790E-02 Eh
 * calculating model hessian...
Using Lindh-Hessian (1995)
 Shifting diagonal of input Hessian by   1.000003038098484E-002
 Lowest  eigenvalues of input Hessian
    0.010000    0.010000   -0.000000   -0.000000   -0.000000   -0.000000
   -0.000000   -0.000000   -0.000000   -0.000000   -0.000000   -0.000000
   -0.000000   -0.000000   -0.000000   -0.000000   -0.000000   -0.000000
 Highest eigenvalues
    0.292957    0.323119    1.211011    1.243996    1.366903    1.440146
 

........................................................................
.............................. CYCLE   43 ..............................
........................................................................
   1   -906.6665393 -0.906667E+03  0.423E-03    6.75       0.0  T
   2   -906.6665394 -0.154355E-06  0.259E-03    6.75       1.7  T
   3   -906.6665395 -0.461993E-07  0.234E-04    6.74      18.5  T
   4   -906.6665395 -0.514183E-08  0.601E-05    6.74      72.3  T
     SCC iter.                  ...        0 min,  0.931 sec
     gradient                   ...        0 min,  4.714 sec
 * total energy  :  -901.2042403 Eh     change       -0.7545324E-04 Eh
   gradient norm :     0.0013724 Eh/a0  converged?    E=F G=F D=F
   step length   :     0.0730107 a0

........................................................................
.............................. CYCLE   44 ..............................
........................................................................
   1   -906.6659437 -0.906666E+03  0.969E-03    6.73       0.0  T
   2   -906.6659449 -0.117231E-05  0.593E-03    6.72       1.0  T
   3   -906.6659451 -0.269469E-06  0.667E-04    6.72       6.5  T
   4   -906.6659452 -0.431525E-07  0.153E-04    6.72      28.4  T
     SCC iter.                  ...        0 min,  0.951 sec
     gradient                   ...        0 min,  4.711 sec
 * total energy  :  -901.2042940 Eh     change       -0.5368538E-04 Eh
   gradient norm :     0.0029679 Eh/a0  converged?    E=F G=F D=F
   step length   :     0.2256210 a0

........................................................................
.............................. CYCLE   45 ..............................
........................................................................
   1   -906.6663976 -0.906666E+03  0.274E-03    6.72       0.0  T
   2   -906.6663977 -0.690458E-07  0.169E-03    6.73       2.6  T
   3   -906.6663977 -0.262082E-07  0.163E-04    6.73      26.7  T
   4   -906.6663977 -0.194780E-08  0.479E-05    6.73      90.5  T
     SCC iter.                  ...        0 min,  0.949 sec
     gradient                   ...        0 min,  4.712 sec
 * total energy  :  -901.2043128 Eh     change       -0.1879507E-04 Eh
   gradient norm :     0.0012687 Eh/a0  converged?    E=F G=F D=F
   step length   :     0.0307504 a0

........................................................................
.............................. CYCLE   46 ..............................
........................................................................
   1   -906.6665529 -0.906667E+03  0.201E-03    6.73       0.0  T
   2   -906.6665529 -0.685116E-07  0.122E-03    6.73       3.6  T
   3   -906.6665530 -0.137620E-07  0.165E-04    6.74      26.3  T
   4   -906.6665530 -0.238776E-08  0.322E-05    6.74     135.0  T
     SCC iter.                  ...        0 min,  0.949 sec
     gradient                   ...        0 min,  4.711 sec
 * total energy  :  -901.2043169 Eh     change       -0.4113048E-05 Eh
   gradient norm :     0.0005098 Eh/a0  converged?    E=F G=T D=F
   step length   :     0.0247686 a0

........................................................................
.............................. CYCLE   47 ..............................
........................................................................
   1   -906.6664586 -0.906666E+03  0.568E-04    6.74       0.0  T
   2   -906.6664586 -0.192620E-08  0.345E-04    6.74      12.6  T
   3   -906.6664586 -0.604700E-09  0.270E-05    6.74     160.7  T
     SCC iter.                  ...        0 min,  0.716 sec
     gradient                   ...        0 min,  4.711 sec
 * total energy  :  -901.2043178 Eh     change       -0.8369501E-06 Eh
   gradient norm :     0.0001008 Eh/a0  converged?    E=T G=T D=F
   step length   :     0.0120137 a0

   *** GEOMETRY OPTIMIZATION CONVERGED AFTER 47 CYCLES ***

------------------------------------------------------------------------
 total energy gain   :        -0.0099581 Eh       -6.2488 kcal/mol
 total RMSD          :         0.1541102 a0        0.0816 Å
 total power (kW/mol):        -0.5562760 (step)   -0.0849 (real)
------------------------------------------------------------------------

 L-ANCopt (total)              0 d,  0 h,  5 min,  8.044 sec
 setup                          ...        0 min,  0.017 sec (  0.006%)
 model hessian                  ...        0 min, 11.609 sec (  3.769%)
 ANC generation                 ...        0 min,  2.751 sec (  0.893%)
 coordinate transformation      ...        0 min,  0.003 sec (  0.001%)
 Rational function              ...        0 min,  0.000 sec (  0.000%)
 singlepoint calculation        ...        4 min, 53.430 sec ( 95.256%)
 optimization log               ...        0 min,  0.226 sec (  0.073%)
 hessian update                 ...        0 min,  0.001 sec (  0.000%)

================
 final structure:
================
$coord
        1.05386621791000       -4.88166968871600       -2.05829880142600      o
       -0.72774227146500       -5.33433104532900       -1.86903524860500      h
        1.19024641572800       -4.37008169719900       -3.84832174666800      h
        2.82737345913200       -8.55340897244900        1.52572199833400      o
        2.82379383271300      -10.04888190169000        2.60825522037700      h
        3.96726795044100       -8.83841193459400        0.10743247508400      h
        4.47318686691100        4.74159080229600        0.07713915768000      o
        5.79294843225100        4.81969134520300        1.35732591759500      h
        2.98826095323900        5.53682582392100        0.81930984940700      h
        5.87112027792000       -4.11159223262900        0.62555864683200      o
        4.30794538582400       -4.73732715347600       -0.06139768477600      h
        6.28247145181600       -2.54870397359900       -0.25886693657200      h
      -11.10807516634400        1.96355792650700        8.79870626734800      o
      -11.41300365968100        2.87007555029900        7.20921315685400      h
      -10.05760347279500        0.52913784485000        8.34264161143300      h
        5.84785619510600       -8.49675444500400       -2.55640441295600      o
        5.80926357549800       -6.78263737447800       -3.19468257876400      h
        6.21439822716500       -9.56372852170600       -4.00781050077600      h
       -4.91686144279900       -5.94526476591200        4.60891331592700      o
       -3.96345179288300       -6.88361530576700        3.33724091262000      h
       -3.81996359839800       -4.64238500630200        5.27300654623700      h
        6.89469054395900       -7.50278641338400       10.78800020488400      o
        6.29548878649800       -6.08187940936800        9.71244256622100      h
        7.16015022659900       -6.68977450637200       12.43201761655400      h
       -2.22533183720000       -8.56778048739300        1.18919318547400      o
       -2.35958323379200      -10.37638650666900        1.42713292120700      h
       -0.41285425927000       -8.24192510048500        1.24105254163800      h
        0.85606933185300        7.13099189579700        2.75857511186300      o
       -0.65851204944100        8.08752135059600        2.28344997496700      h
        0.45624792966300        6.20620553970900        4.30014372858700      h
       -3.27854611874300       -0.60061335969000       -3.83884449872200      o
       -3.17606802019400       -2.32770699897400       -3.26713108250300      h
       -4.41756056656700        0.30695660259500       -2.69087327032900      h
        4.49374535519500        4.81079631842100        5.64387964686900      o
        5.80633109612500        6.08012940333100        5.56397523147500      h
        4.36429177644600        4.40870792048000        7.44923371348200      h
       -1.86682452813600        5.67828157827500       -2.11402984342100      o
       -2.39547222626300        7.09614730742600       -1.09073162384200      h
       -3.08285469636400        5.52896287191200       -3.49865614671300      h
       -8.22020379598300        7.31518034637400        2.67699948368900      o
       -7.49132865044100        7.12504570888000        0.97493024416800      h
       -9.56518791245900        8.52830724850100        2.46572032120200      h
       -1.05852560217700        1.54222051567400       -7.86798704105300      o
       -1.71809530326400        0.54892254875000       -6.46401014794200      h
       -1.62213530641900        0.70922466963100       -9.40872732475300      h
       -5.49198059039800       11.55257902427600       -3.68949465704600      o
       -5.80577316436500       11.32016493282400       -5.46560186184100      h
       -3.69623843379100       11.98414304632100       -3.56607437591000      h
       -8.27377159933100        1.48306462280700       -5.85184730953900      o
       -9.55422550867000        2.67163859648800       -5.27925948726500      h
       -8.20643635763900        0.07834071120100       -4.66723630698000      h
        0.30645717353800       -3.59288833839900       -6.74922418113700      o
       -0.75972690323100       -4.99584111040600       -7.25597934574900      h
        1.11732115699800       -2.95632634100700       -8.26901099302700      h
        4.73853789673400        0.27815113937400        3.79317188629800      o
        4.64981895764000        2.07795601080800        4.28068224341300      h
        6.40432767613600       -0.23441444479300        4.32486782954400      h
        8.95115195823000       -3.08192783265100        4.39590189929900      o
        7.78926717674900       -3.73051827151500        3.12212622023900      h
       10.41081640394000       -4.19940847307000        4.42286990336700      h
      -10.84459997846500       11.03524105117400       -4.72619060615000      o
      -10.45357697513300       12.77142644319200       -5.04740413354100      h
       -9.68126792126300       10.02800867539200       -5.77714966247800      h
        3.34188990906400        1.30516346904200       -5.30079967022800      o
        3.33083666236900        3.14888728854300       -5.09805654215000      h
        1.91543340089900        1.01335126645500       -6.43003860521100      h
        9.09676071870500        4.44836803531600        2.09967649630300      o
       10.39140650072500        5.61288182432500        1.52971956183500      h
        9.62878595520100        2.79679789774000        1.43180599068100      h
       16.30285117372600       -1.89590313083400        0.16470456874900      o
       17.98775261960400       -2.50366162767500        0.57473310474500      h
       15.08021460710500       -2.91219973757000        1.11757038577200      h
      -11.21799481236200        1.54194493391500       -0.53026075213400      o
      -11.55129278627700       -0.02498409039700       -1.38305359606700      h
      -11.87037446166900        1.29715442893400        1.19114833127900      h
        6.82473187661200        0.40546143177100       -1.63122427256200      o
        8.38591759366200        0.90880204262700       -2.45112542931300      h
        6.06388531491300        1.94863062407500       -1.02132871412500      h
       -7.98881193383100       -2.21001010455400        7.17982519430300      o
       -6.18186356099300       -2.37994865236700        7.37945110018500      h
       -8.26050667785700       -2.24878588036800        5.34593925124400      h
       -7.92313471690000        0.70845479376800      -10.92116943252600      o
       -8.76338233525000       -0.90562498585100      -11.24785564500600      h
       -7.84695416428100        0.77330652379100       -9.07049498498900      h
      -10.48404616196100        5.10763414323600      -10.13832929196500      o
       -9.60846826260100        3.70772893472400      -10.94459506536600      h
      -11.45107164865700        4.28701069278800       -8.79033725750000      h
       11.21269793830500       -6.35398471525400        8.04716095737000      o
        9.94703832984100       -6.98349729748400        9.21705532565800      h
       11.96889945932300       -7.80963448845100        7.23750463086800      h
        9.45805409741200       -7.65729335742800       -9.99913612803400      o
       10.20671109525800       -6.27859647389200       -9.00379800088200      h
        9.38476431356900       -7.00952192730300      -11.70613271023800      h
      -15.99442664543100       -7.13493619170300        0.41858692794200      o
      -16.06546389068200       -8.86957353609600        0.98845287456200      h
      -16.64382674040100       -6.14489126970400        1.87844858507300      h
       -6.07918100430100        2.03617639182000       -0.49776841412300      o
       -7.90588593886300        1.78480573163700       -0.46262517421900      h
       -5.83692906569700        3.79499452999900       -0.93461487876500      h
        0.77893199019900       -9.86525970409200       -3.58942371238700      o
        1.39744603783600       -9.82125117999200       -5.34509807261900      h
        1.25257044699900       -8.26737823635900       -2.81552408166600      h
        1.55058575400600       -0.05771722730500        7.75776788197600      o
        2.72374612903800       -0.34434267016700        6.36116130519300      h
        0.90345939203800        1.63302411464200        7.50985614877000      h
        7.13763495940800      -11.21326655230800       -6.74740766317100      o
        8.37973061635300      -12.03457870241800       -5.64191671274800      h
        8.09545895452900      -10.19003591159600       -7.92460028290000      h
        5.52622881603000       -3.71073821539500        7.97624189180000      o
        4.03614239924100       -4.07892796791800        6.92568006172400      h
        6.93058630164900       -3.45783731920000        6.79869653960600      h
      -11.21771117394600       -6.48481107370300        2.02628300070900      o
       -9.91284464680100       -7.24032431287800        0.94783745299300      h
      -12.86203408778400       -6.68154885075700        1.20448984693700      h
       10.76331147619600        2.63055472300500       -4.08466079740500      o
       10.07233409784100        4.29085619589900       -3.63733222020900      h
       12.32627555915800        2.40312578662200       -3.10356175660300      h
       -4.55029243017700        4.82579981517000       -6.30893790768700      o
       -3.16934240617200        3.91395996551300       -7.13442786978400      h
       -5.86004896960200        3.54985984431800       -6.01088055597900      h
        8.40980922309500       -8.40294682749600        2.31963350919500      o
        7.89964582850700       -9.95528581405800        1.47448244469200      h
        7.64742095002300       -7.05226424506600        1.34065360140400      h
        2.06380584362200       -2.30087325540000       12.39300579412700      o
        2.14381972025800       -1.46667107766500       10.75341357676600      h
        0.57347089895700       -1.65653990044800       13.22534021624400      h
       11.95723883222000       -1.39099978729200        9.05364016019900      o
       11.05357885881200       -0.42370738871100        7.75424633836300      h
       11.60703084803800       -3.16694089972800        8.72218244109700      h
       -2.75465033040200       -2.66085949649500        8.15238493222500      o
       -2.72967886053900       -3.62347184760000        9.72228637791400      h
       -1.07301716196200       -1.93018869386000        7.90982045033500      h
        2.13882487902100        6.11650722330700       -4.87410628075700      o
        2.97603510570400        7.59262380019900       -4.17589100918700      h
        0.65336962381900        5.86658359129000       -3.76263538478600      h
       -2.30705196194600       14.57379869686800        0.35781399431300      o
       -1.46996384519600       14.62123329222400       -1.25982359616100      h
       -0.96945430516000       14.67428038158700        1.65398622835800      h
       -6.68245102444500      -12.57224314306300        1.96536696947300      o
       -7.30472515504500      -12.52287423480700        3.73428557984500      h
       -5.09760460039400      -13.46258139701600        2.03897822517900      h
      -13.45574109174700        0.35964876759800        3.80985554953700      o
      -14.81730846030700       -0.32170665251200        2.78663598148600      h
      -13.20611238680200       -0.86060350250100        5.14570672008800      h
       18.11209204662300        3.76752516028400       -6.02475415950400      o
       16.54203285870600        3.74528986355200       -7.01249767157400      h
       18.40822165563200        5.55120747195400       -5.67837923439900      h
       -3.50572588946800        4.87528806207600      -11.77214688023400      o
       -5.23116302295400        4.78672988593700      -11.21918966869400      h
       -3.11596065050100        3.26571665437800      -12.52751469498100      h
      -16.38858339113100       -1.32523727512400       -0.05468566638700      o
      -16.27842124584100        0.24053701551700       -1.02508853177100      h
      -18.18788739485900       -1.64264945776400        0.19028422309800      h
        4.48338037560400        3.95654312167500       10.60757288550200      o
        5.48672563405300        2.49522224613400       11.08739660128300      h
        2.76995923993400        3.66699371000900       11.23355800190700      h
      -16.07634888335900        2.79205711503900       -2.93108944723000      o
      -14.93846984600200        2.67534053069500       -4.41618670537700      h
      -15.27410794919600        3.94108019305300       -1.72703393830600      h
       -7.88068004339400        2.67831342374800        4.74509550674900      o
       -8.35370813175200        4.27281883900300        3.97780528645500      h
       -8.85218590855500        1.36434474092900        3.94648400443400      h
       16.44592998043800       -1.80203256976700        6.89189935013500      o
       14.95108208410200       -1.64075568553300        7.99155491413200      h
       16.67000102612100       -3.58403269728600        6.58085799057200      h
       15.20280189005100        2.62584332611000       -1.85982922622200      o
       15.74682603330300        1.07481882913900       -1.02946601201300      h
       16.39111275170800        2.97229975320600       -3.22376782536000      h
      -17.24564093494900        6.33764645536700        6.90189453738100      o
      -18.23022312239900        5.70740531745400        5.48980480718300      h
      -16.89831473295000        8.09402630623200        6.49271310392300      h
        3.89331488545100        3.06476942981300      -11.04667195468700      o
        2.59399667740800        4.34931988139500      -11.00928269045400      h
        5.10999178422700        3.59675697119000       -9.78661558397300      h
       -5.91921822736700       -8.30569954139800        8.81098385104500      o
       -5.66273902170300       -7.42658148065500        7.15760367783000      h
       -7.49975508169000       -7.59858895032600        9.45204816869900      h
        9.12113560340800       10.56950496814600        0.28885583273200      o
       10.39150248406400       10.82868920444500        1.55769690916000      h
        7.50377450950900       10.54703123184100        1.17543156484100      h
      -11.06003771968600        5.30617872619800       -3.92764575730300      o
      -12.56500734385300        6.25392121328100       -4.43368102344400      h
      -11.45531533894700        4.35954437044400       -2.40024173601100      h
      -12.54105852318700        5.37997335184100        5.27857974944000      o
      -11.68759049850300        6.92874147067500        5.80478834729200      h
      -14.24521826334700        5.49774770669500        5.99375243108500      h
      -11.62030257573800       10.72930455193800        0.40351144416100      o
      -11.36333273410100       10.63611337248300       -1.41913264848200      h
      -10.68629919339300       12.21188909100100        0.90415801484000      h
      -14.18616947636800        5.92369471904400        0.61341986142800      o
      -13.70124049567100        7.65203208410700        0.32199392014700      h
      -13.41351011096000        5.46158552051200        2.25669032376800      h
       11.17883728526100        0.02438436753700        1.05834468264900      o
       12.72695367200800        0.65487495513300        1.83697534981000      h
       10.38157420521100       -1.00383525739600        2.36966119405800      h
        7.84049859663300        8.66393936145300        6.64427302564000      o
        9.45496247363300        8.99416680338800        5.80177401500600      h
        8.31425724983000        7.69588647573400        8.13059615505800      h
       10.44643577333600       -3.75441442967500       -2.50352108422000      o
        8.69335532596400       -3.63600529263100       -3.05107481999500      h
       10.78629054411700       -2.36463855230700       -1.34949310444700      h
       -1.51020628059500       10.88967787750400        6.96500943804700      o
       -2.81017478377700        9.59760864535300        7.06129054714100      h
       -0.07595109377900       10.24396329766700        7.90516105567300      h
       -2.68866836246900       -0.62074730800000       13.81764173218600      o
       -3.47277582033700       -2.24653923507600       13.51497245422100      h
       -3.96627909710300        0.42419179482500       14.58961907263400      h
       -8.95015651163800       -2.06291739388000        2.35807754399700      o
       -9.96111784546400       -3.60653727032800        2.33957713092200      h
       -7.98445174684900       -2.09891757971600        0.80766048960600      h
       10.99313897350800       -3.58792048490500       -7.54657875718200      o
       11.45361915343800       -3.58546228195800       -5.76045663073300      h
        9.59865303981500       -2.38635924340400       -7.68122068680700      h
      -12.06538103886000       -8.84278793310200        6.32916383481800      o
      -11.83613757666000       -7.79879022636000        7.80186827926100      h
      -11.58333943790400       -7.79353619976000        4.86318183702800      h
        5.69909083319300       -3.72093651605500       -4.61240786404900      o
        5.36042279084300       -4.32485962416500       -6.32983626923000      h
        5.09673065562200       -2.00202867636500       -4.53214878999100      h
        9.62886082255300        0.31838164720100      -12.50591492215700      o
        8.77019210595000        0.40979794539900      -10.87578704345700      h
       11.36681559313400       -0.17823213945400      -12.14510786914800      h
      -13.69075943229300        2.36890821914800       -7.26108280257500      o
      -13.43849854886100        0.53876867403600       -7.49346296758900      h
      -15.25222803999600        2.74421521571100       -8.18602053610500      h
       15.32195201944200       -2.54820045101700       -4.73975827910700      o
       15.71489856820400       -2.28488812822400       -2.95309011124200      h
       16.71332708363200       -1.87988771437400       -5.74184639302100      h
       12.47465218913600       -8.18006330827600       -1.56381130795400      o
       11.41444358474500       -6.67392475179300       -1.84601306488500      h
       13.65779598730300       -8.11217677910000       -2.98325531826500      h
      -19.55600014728500       -5.22422665346600       -2.87171628350000      o
      -20.71771602506100       -4.42332907011200       -1.71925658389000      h
      -18.23284024884200       -5.95463336293000       -1.81696204160400      h
       -0.47112954286800        3.63687295179700       11.57201967087600      o
       -1.16217065374300        2.05161270629800       12.16677436177100      h
       -1.07144110028500        3.88408326578500        9.85378436310700      h
        7.79358360750400        0.37973098957400       -7.68577925438400      o
        8.89486283783200        1.30817462734500       -6.55516793276400      h
        6.08763400245100        0.69450077446600       -7.05329139086600      h
        2.88593127943600        9.03928938008400        9.14336987987700      o
        4.52350451793800        9.50354662197700        8.51171804000000      h
        3.11775360452900        7.46266228314500       10.02238953975500      h
       13.62891275316700        3.48586238683000       -8.22847831707700      o
       12.60850188555000        4.43481961809900       -9.46261977508300      h
       12.55703540870200        3.28298092930100       -6.73456104028400      h
        1.70548439779900       -4.98524810816700        4.99458014503500      o
        2.39811809033500       -5.98721153739700        3.62249743082300      h
        0.66826995116900       -6.15370321260600        5.96344764550200      h
      -12.95730558395500       -3.74384006542500       -2.75033134322500      o
      -14.31170332376000       -3.10711174909500       -1.64922066681400      h
      -13.14777273176900       -5.57425928789900       -2.78634901979700      h
      -15.21680812323600        7.35548658459000      -10.37546282676600      o
      -16.37566749618100        6.00889431133200      -10.76873838418500      h
      -13.53272530078100        6.74965727760100      -10.77825188879100      h
       -0.60786108949600       12.74776151700100       -4.25026812679000      o
        0.87597021686100       11.79274278206900       -3.71543783306200      h
       -0.99813329525900       12.27320547315300       -5.98111903032300      h
       14.93043023863100        1.98533158038600        3.86224563088700      o
       16.47163049221000        2.56032955724500        2.99077867329400      h
       15.44774058110500        0.50103763661300        4.83569268717300      h
       20.51788035449600        0.78420043692000       -2.37751077342200      o
       21.02507231036300       -0.83503567141200       -3.07742724677900      h
       20.14733277465500        1.85764536612900       -3.80240343283100      h
       12.46705940935600        9.12045839611500        4.59532230976800      o
       13.31920808955400        8.11716889969900        5.87197880895300      h
       12.88136795352800        8.29496801790000        3.01111593438500      h
       13.24898354041100        6.76414670180600        0.08948957595000      o
       12.85656779733900        7.50382682619400       -1.55688940753000      h
       14.03851158116700        5.13768332089700       -0.33025973565100      h
        2.55237572340100      -13.94252917084900       -1.52054883140700      o
        2.77563691172200      -15.10757648467400       -2.88479393313300      h
        2.01295465360700      -12.30990710730800       -2.29561219864200      h
       13.29231332540600       -5.06683355346800        2.71291397385400      o
       14.68952497070600       -5.73846968745400        3.70436403314100      h
       12.84578061649900       -6.33009529037600        1.46639920997400      h
        2.18143982075100      -12.04483558685000        5.15904766448200      o
        3.85970535619800      -11.88964848338300        5.91679056220200      h
        1.10178149945400      -10.93274810977300        6.16438343212300      h
      -21.45019762527200       -1.40619045705000        0.50098335442500      o
      -21.40490419599700       -1.18435402609700        2.31176554374200      h
      -21.96688940526300        0.20666433776800       -0.19917959324300      h
      -13.98032736686400       -3.13025204975700        7.75947160182200      o
      -14.97196126984000       -1.91226001434800        8.68284590592600      h
      -12.80825818309000       -3.90679563932900        8.93399388722800      h
      -14.99418141550500      -11.56212494542900        3.09969425273500      o
      -16.03047915097500      -12.79482624215600        3.92049815821600      h
      -14.12382692294800      -10.62687636502000        4.43390197738300      h
       -2.58973566475600       -7.85324040511500       -7.67576025489100      o
       -3.36355027028200       -7.36125039292100       -9.26991691687600      h
       -1.26364751576800       -9.03354060093200       -8.08154867482400      h
       10.18229693675800      -12.63191423890700       -2.97566896223000      o
       10.95019959833500      -11.04293598821700       -2.45039286778900      h
        9.12275594476600      -13.13575702497100       -1.57886795192200      h
      -10.24183517598600       -3.91528899616700      -10.96305701099100      o
       -9.60919469820000       -5.01272204440500       -9.63484592214000      h
      -11.86516975257000       -3.38157494900700      -10.31567641965600      h
       -3.27115040166300      -12.96400382926500       -3.47552848983000      o
       -1.97375847934200      -11.65984001580100       -3.58542071989300      h
       -3.29102231055800      -13.51841218800700       -1.74802934899400      h
       17.73390017175000       -6.55803179751100        4.68394017687000      o
       17.46573616863300       -8.18163566042100        3.85623455796300      h
       19.10606644624100       -5.76665063649900        3.77906965408900      h
        6.84003841340400      -10.78602835730300        6.69829746028800      o
        6.84307713090300       -9.85877946569400        8.27506223396700      h
        7.22444402826400       -9.57213593683100        5.36563486080300      h
       -8.31069031216500      -12.29132231589100        6.61354220323100      o
       -9.87015587650200      -11.30906207798900        6.52418111825100      h
       -7.16754246355900      -11.22192063978700        7.57868438847900      h
       -7.41647494659900       -8.34140902275400       -0.72332452834400      o
       -6.86516934476700       -9.63139636688100        0.47189973696100      h
       -7.81230283629300       -9.27066030690700       -2.27483052181800      h
[...]
   157   8 o      158   1 h                                       0.9919647
   157   8 o      159   1 h                                       0.9777034
   160   8 o      161   1 h                                       0.9692669
   160   8 o      162   1 h                                       0.9624799
   163   8 o      164   1 h                                       0.9857228
   163   8 o      165   1 h                                       0.9645668
   166   8 o      167   1 h                                       0.9744828
   166   8 o      168   1 h                                       0.9746697
   169   8 o      170   1 h                                       0.9700850
   169   8 o      171   1 h                                       0.9718633
   172   8 o      173   1 h                                       0.9670627
   172   8 o      174   1 h                                       0.9687060
   175   8 o      177   1 h                                       0.9770546
   178   8 o      179   1 h                                       0.9599815
   178   8 o      180   1 h                                       0.9760959
   181   8 o      182   1 h                                       0.9785089
   181   8 o      183   1 h                                       0.9736465
   184   8 o      185   1 h                                       0.9763264
   184   8 o      186   1 h                                       0.9799790
   187   8 o      188   1 h                                       0.9752881
   187   8 o      189   1 h                                       0.9643617
   190   8 o      191   1 h                                       0.9623515
   190   8 o      192   1 h                                       0.9915383
   193   8 o      194   1 h                                       0.9758190
   193   8 o      195   1 h                                       0.9775345
   196   8 o      197   1 h                                       0.9793852
   196   8 o      198   1 h                                       0.9715455
   199   8 o      200   1 h                                       0.9739057
   199   8 o      201   1 h                                       0.9727019
   202   8 o      203   1 h                                       0.9712430
   202   8 o      204   1 h                                       0.9696977
   205   8 o      206   1 h                                       0.9685003
   205   8 o      207   1 h                                       0.9642266
   208   8 o      209   1 h                                       0.9764930
   208   8 o      210   1 h                                       0.9667700
   211   8 o      212   1 h                                       0.9760818
   211   8 o      213   1 h                                       0.9766825
   214   8 o      215   1 h                                       0.9629488
   214   8 o      216   1 h                                       0.9875072
   217   8 o      218   1 h                                       0.9799042
   217   8 o      219   1 h                                       0.9647764
   220   8 o      221   1 h                                       0.9761830
   220   8 o      222   1 h                                       0.9753663
   223   8 o      224   1 h                                       0.9853285
   223   8 o      225   1 h                                       0.9806997
   226   8 o      227   1 h                                       0.9780369
   226   8 o      228   1 h                                       0.9738511
   229   8 o      230   1 h                                       0.9860510
   229   8 o      231   1 h                                       0.9785143
   232   8 o      233   1 h                                       0.9640884
   232   8 o      234   1 h                                       0.9752886
   235   8 o      236   1 h                                       0.9677321
   235   8 o      237   1 h                                       0.9719907
   238   8 o      239   1 h                                       0.9690022
   238   8 o      240   1 h                                       0.9771004
   241   8 o      242   1 h                                       0.9607395
   241   8 o      243   1 h                                       0.9630692
   244   8 o      245   1 h                                       0.9850181
   244   8 o      246   1 h                                       0.9788879
   247   8 o      248   1 h                                       0.9709045
   247   8 o      249   1 h                                       0.9728525
   250   8 o      251   1 h                                       0.9832251
   250   8 o      252   1 h                                       0.9740326
   253   8 o      254   1 h                                       0.9628891
   253   8 o      255   1 h                                       0.9707775
   256   8 o      257   1 h                                       0.9757345
   256   8 o      258   1 h                                       0.9719246
   259   8 o      260   1 h                                       0.9850909
   259   8 o      261   1 h                                       0.9783825
   262   8 o      263   1 h                                       0.9713037
   262   8 o      264   1 h                                       0.9641936
   265   8 o      266   1 h                                       0.9703730
   265   8 o      267   1 h                                       0.9704014
   268   8 o      269   1 h                                       0.9774293
   268   8 o      270   1 h                                       0.9821802
   271   8 o      272   1 h                                       0.9566766
   271   8 o      273   1 h                                       0.9980504 (max)
   274   8 o      275   1 h                                       0.9737823
   274   8 o      276   1 h                                       0.9684118
   277   8 o      278   1 h                                       0.9778807
   277   8 o      279   1 h                                       0.9776327
   280   8 o      281   1 h                                       0.9656862
   280   8 o      282   1 h                                       0.9697813
   283   8 o      284   1 h                                       0.9641288
   283   8 o      285   1 h                                       0.9694592
   286   8 o      287   1 h                                       0.9565067
   286   8 o      288   1 h                                       0.9775205
   289   8 o      290   1 h                                       0.9731941
   289   8 o      291   1 h                                       0.9636669
   292   8 o      293   1 h                                       0.9743821
   292   8 o      294   1 h                                       0.9653008
   295   8 o      296   1 h                                       0.9712584
   295   8 o      297   1 h                                       0.9669862
   298   8 o      299   1 h                                       0.9752014
   298   8 o      300   1 h                                       0.9601348
   301   8 o      302   1 h                                       0.9747638
   301   8 o      303   1 h                                       0.9653555
   304   8 o      305   1 h                                       0.9679731
   304   8 o      306   1 h                                       0.9753660
   307   8 o      308   1 h                                       0.9764365
   307   8 o      309   1 h                                       0.9731549
   310   8 o      311   1 h                                       0.9752618
   310   8 o      312   1 h                                       0.9796726
   313   8 o      314   1 h                                       0.9662831
   316   8 o      317   1 h                                       0.9648336
   316   8 o      318   1 h                                       0.9741867
   319   8 o      320   1 h                                       0.9762911
   319   8 o      321   1 h                                       0.9562310
   322   8 o      323   1 h                                       0.9784977
   322   8 o      324   1 h                                       0.9645365
   325   8 o      326   1 h                                       0.9819263
   325   8 o      327   1 h                                       0.9689617
   328   8 o      329   1 h                                       0.9811588
   328   8 o      330   1 h                                       0.9631138
   331   8 o      332   1 h                                       0.9723015
   331   8 o      333   1 h                                       0.9713637
   334   8 o      335   1 h                                       0.9647174
   334   8 o      336   1 h                                       0.9768656
   337   8 o      339   1 h                                       0.9565883
   340   8 o      341   1 h                                       0.9888201
   340   8 o      342   1 h                                       0.9624682
   343   8 o      344   1 h                                       0.9714080
   343   8 o      345   1 h                                       0.9809308
   346   8 o      347   1 h                                       0.9759626
   346   8 o      348   1 h                                       0.9653479
   349   8 o      350   1 h                                       0.9754395
   349   8 o      351   1 h                                       0.9707774
   352   8 o      353   1 h                                       0.9824268
   352   8 o      354   1 h                                       0.9555186 (min)
   355   8 o      356   1 h                                       0.9750457
   355   8 o      357   1 h                                       0.9678393
   358   8 o      359   1 h                                       0.9800627
   358   8 o      360   1 h                                       0.9825759
   361   8 o      362   1 h                                       0.9614893
   361   8 o      363   1 h                                       0.9677662
   364   8 o      365   1 h                                       0.9862786
   364   8 o      366   1 h                                       0.9585945
   367   8 o      368   1 h                                       0.9621917
   367   8 o      369   1 h                                       0.9700114
   370   8 o      371   1 h                                       0.9796426
   370   8 o      372   1 h                                       0.9766687
   373   8 o      374   1 h                                       0.9746124
   373   8 o      375   1 h                                       0.9567817
   376   8 o      377   1 h                                       0.9678664
   376   8 o      378   1 h                                       0.9752777
   379   8 o      380   1 h                                       0.9700735
   379   8 o      381   1 h                                       0.9595469
   382   8 o      383   1 h                                       0.9566212
   382   8 o      384   1 h                                       0.9936496
   385   8 o      386   1 h                                       0.9634670
   385   8 o      387   1 h                                       0.9834105
   388   8 o      389   1 h                                       0.9796098
   388   8 o      390   1 h                                       0.9608007
   391   8 o      392   1 h                                       0.9853894
   391   8 o      393   1 h                                       0.9604843
   394   8 o      395   1 h                                       0.9679142
   394   8 o      396   1 h                                       0.9718716
   397   8 o      398   1 h                                       0.9569608
   397   8 o      399   1 h                                       0.9838020
   400   8 o      401   1 h                                       0.9655557
   400   8 o      402   1 h                                       0.9725528
   403   8 o      404   1 h                                       0.9858401
   403   8 o      405   1 h                                       0.9587622
   406   8 o      407   1 h                                       0.9783769
   406   8 o      408   1 h                                       0.9695908
   409   8 o      410   1 h                                       0.9738327
   409   8 o      411   1 h                                       0.9781345
   412   8 o      413   1 h                                       0.9633963
   412   8 o      414   1 h                                       0.9904753
   415   8 o      416   1 h                                       0.9776473
   415   8 o      417   1 h                                       0.9604031
   418   8 o      419   1 h                                       0.9798658
   418   8 o      420   1 h                                       0.9585119
   421   8 o      422   1 h                                       0.9864533
   421   8 o      423   1 h                                       0.9677966
   424   8 o      425   1 h                                       0.9676049
   424   8 o      426   1 h                                       0.9673541
   427   8 o      428   1 h                                       0.9749080
   427   8 o      429   1 h                                       0.9862864
   430   8 o      431   1 h                                       0.9692092
   430   8 o      432   1 h                                       0.9841771
   433   8 o      434   1 h                                       0.9570072
   433   8 o      435   1 h                                       0.9801667
   436   8 o      437   1 h                                       0.9684981
   436   8 o      438   1 h                                       0.9720477
   439   8 o      440   1 h                                       0.9646849
   439   8 o      441   1 h                                       0.9813924
   442   8 o      443   1 h                                       0.9632608
   442   8 o      444   1 h                                       0.9754203
   445   8 o      446   1 h                                       0.9601113
   445   8 o      447   1 h                                       0.9778954
   448   8 o      449   1 h                                       0.9954318
   448   8 o      450   1 h                                       0.9671068
   451   8 o      452   1 h                                       0.9724739
   451   8 o      453   1 h                                       0.9755733
   454   8 o      455   1 h                                       0.9827559
   454   8 o      456   1 h                                       0.9761659
   457   8 o      458   1 h                                       0.9712595
   457   8 o      459   1 h                                       0.9612561
   460   8 o      461   1 h                                       0.9651894
   460   8 o      462   1 h                                       0.9672493
   463   8 o      464   1 h                                       0.9667577
   463   8 o      465   1 h                                       0.9684711
   466   8 o      467   1 h                                       0.9921204
   466   8 o      468   1 h                                       0.9584177
   469   8 o      470   1 h                                       0.9737771
   469   8 o      471   1 h                                       0.9695876
   472   8 o      473   1 h                                       0.9682733
   472   8 o      474   1 h                                       0.9743868
   475   8 o      476   1 h                                       0.9606543
   475   8 o      477   1 h                                       0.9759968
   478   8 o      479   1 h                                       0.9689433
   478   8 o      480   1 h                                       0.9630617
   481   8 o      482   1 h                                       0.9703208
   481   8 o      483   1 h                                       0.9789139
   484   8 o      485   1 h                                       0.9688408
   484   8 o      486   1 h                                       0.9808670
   487   8 o      488   1 h                                       0.9783927
   487   8 o      489   1 h                                       0.9754294
   490   8 o      491   1 h                                       0.9754789
   490   8 o      492   1 h                                       0.9778471
   493   8 o      494   1 h                                       0.9664441
   493   8 o      495   1 h                                       0.9842370
   496   8 o      497   1 h                                       0.9562224
   496   8 o      498   1 h                                       0.9961569
   499   8 o      500   1 h                                       0.9720218
   499   8 o      501   1 h                                       0.9681509
   502   8 o      503   1 h                                       0.9715770
   502   8 o      504   1 h                                       0.9747740
   505   8 o      506   1 h                                       0.9906492
   505   8 o      507   1 h                                       0.9694702
   508   8 o      509   1 h                                       0.9714918
   508   8 o      510   1 h                                       0.9702254
   511   8 o      512   1 h                                       0.9632806
   511   8 o      513   1 h                                       0.9761190
   514   8 o      515   1 h                                       0.9724079
   514   8 o      516   1 h                                       0.9709549
   517   8 o      518   1 h                                       0.9679299
   517   8 o      519   1 h                                       0.9834105
   520   8 o      521   1 h                                       0.9819601
   520   8 o      522   1 h                                       0.9828020
   523   8 o      524   1 h                                       0.9760187
   523   8 o      525   1 h                                       0.9724550
   526   8 o      527   1 h                                       0.9668910
   526   8 o      528   1 h                                       0.9836476
   529   8 o      530   1 h                                       0.9626134
   529   8 o      531   1 h                                       0.9631749

 * 1 distinct bonds (by element types)

   Z      Z             #   av. dist./Å        max./Å        min./Å
   1 H    8 O         351     0.9732868     0.9980504     0.9555186


optimized geometry written to: xtbopt.coord


           -------------------------------------------------
          | TOTAL ENERGY             -901.204317769773 Eh   |
          | GRADIENT NORM               0.003287720940 Eh/α |
          | HOMO-LUMO GAP               6.736242876352 eV   |
           -------------------------------------------------

------------------------------------------------------------------------
 * finished run on 2022/11/17 at 06:54:10.780     
------------------------------------------------------------------------
 total:
 * wall-time:     0 d,  0 h,  5 min, 22.795 sec
 *  cpu-time:     0 d,  0 h,  8 min, 19.737 sec
 * ratio c/w:     1.548 speedup
 SCF:
 * wall-time:     0 d,  0 h,  0 min,  8.330 sec
 *  cpu-time:     0 d,  0 h,  0 min, 13.086 sec
 * ratio c/w:     1.571 speedup
 ANC optimizer:
 * wall-time:     0 d,  0 h,  5 min, 13.883 sec
 *  cpu-time:     0 d,  0 h,  8 min,  5.622 sec
 * ratio c/w:     1.547 speedup

